Job Start Time: Thu May  9 18:47:37 MDT 2024
SLURM Job ID: 265176
SLURM Job Name: Ac2_rdkit_conf_3_spc
SLURM Job Nodes: node08
SLURM Memory / CPU: 8000

                                 *****************
                                 * O   R   C   A *
                                 *****************

                                            #,                                       
                                            ###                                      
                                            ####                                     
                                            #####                                    
                                            ######                                   
                                           ########,                                 
                                     ,,################,,,,,                         
                               ,,#################################,,                 
                          ,,##########################################,,             
                       ,#########################################, ''#####,          
                    ,#############################################,,   '####,        
                  ,##################################################,,,,####,       
                ,###########''''           ''''###############################       
              ,#####''   ,,,,##########,,,,          '''####'''          '####       
            ,##' ,,,,###########################,,,                        '##       
           ' ,,###''''                  '''############,,,                           
         ,,##''                                '''############,,,,        ,,,,,,###''
      ,#''                                            '''#######################'''  
     '                                                          ''''####''''         
             ,#######,   #######,   ,#######,      ##                                
            ,#'     '#,  ##    ##  ,#'     '#,    #''#        ######   ,####,        
            ##       ##  ##   ,#'  ##            #'  '#       #        #'  '#        
            ##       ##  #######   ##           ,######,      #####,   #    #        
            '#,     ,#'  ##    ##  '#,     ,#' ,#      #,         ##   #,  ,#        
             '#######'   ##     ##  '#######'  #'      '#     #####' # '####'        



                  #######################################################
                  #                        -***-                        #
                  #          Department of theory and spectroscopy      #
                  #    Directorship and core code : Frank Neese         #
                  #        Max Planck Institute fuer Kohlenforschung    #
                  #                Kaiser Wilhelm Platz 1               #
                  #                 D-45470 Muelheim/Ruhr               #
                  #                      Germany                        #
                  #                                                     #
                  #                  All rights reserved                #
                  #                        -***-                        #
                  #######################################################


                         Program Version 5.0.3 -  RELEASE  -


 With contributions from (in alphabetic order):
   Daniel Aravena         : Magnetic Suceptibility
   Michael Atanasov       : Ab Initio Ligand Field Theory (pilot matlab implementation)
   Alexander A. Auer      : GIAO ZORA, VPT2 properties, NMR spectrum
   Ute Becker             : Parallelization
   Giovanni Bistoni       : ED, misc. LED, open-shell LED, HFLD
   Martin Brehm           : Molecular dynamics
   Dmytro Bykov           : SCF Hessian
   Vijay G. Chilkuri      : MRCI spin determinant printing, contributions to CSF-ICE
   Dipayan Datta          : RHF DLPNO-CCSD density
   Achintya Kumar Dutta   : EOM-CC, STEOM-CC
   Dmitry Ganyushin       : Spin-Orbit,Spin-Spin,Magnetic field MRCI
   Miquel Garcia          : C-PCM and meta-GGA Hessian, CC/C-PCM, Gaussian charge scheme
   Yang Guo               : DLPNO-NEVPT2, F12-NEVPT2, CIM, IAO-localization
   Andreas Hansen         : Spin unrestricted coupled pair/coupled cluster methods
   Benjamin Helmich-Paris : MC-RPA, TRAH-SCF, COSX integrals
   Lee Huntington         : MR-EOM, pCC
   Robert Izsak           : Overlap fitted RIJCOSX, COSX-SCS-MP3, EOM
   Marcus Kettner         : VPT2
   Christian Kollmar      : KDIIS, OOCD, Brueckner-CCSD(T), CCSD density, CASPT2, CASPT2-K
   Simone Kossmann        : Meta GGA functionals, TD-DFT gradient, OOMP2, MP2 Hessian
   Martin Krupicka        : Initial AUTO-CI
   Lucas Lang             : DCDCAS
   Marvin Lechner         : AUTO-CI (C++ implementation), FIC-MRCC
   Dagmar Lenk            : GEPOL surface, SMD
   Dimitrios Liakos       : Extrapolation schemes; Compound Job, initial MDCI parallelization
   Dimitrios Manganas     : Further ROCIS development; embedding schemes
   Dimitrios Pantazis     : SARC Basis sets
   Anastasios Papadopoulos: AUTO-CI, single reference methods and gradients
   Taras Petrenko         : DFT Hessian,TD-DFT gradient, ASA, ECA, R-Raman, ABS, FL, XAS/XES, NRVS
   Peter Pinski           : DLPNO-MP2, DLPNO-MP2 Gradient
   Christoph Reimann      : Effective Core Potentials
   Marius Retegan         : Local ZFS, SOC
   Christoph Riplinger    : Optimizer, TS searches, QM/MM, DLPNO-CCSD(T), (RO)-DLPNO pert. Triples
   Tobias Risthaus        : Range-separated hybrids, TD-DFT gradient, RPA, STAB
   Michael Roemelt        : Original ROCIS implementation
   Masaaki Saitow         : Open-shell DLPNO-CCSD energy and density
   Barbara Sandhoefer     : DKH picture change effects
   Avijit Sen             : IP-ROCIS
   Kantharuban Sivalingam : CASSCF convergence, NEVPT2, FIC-MRCI
   Bernardo de Souza      : ESD, SOC TD-DFT
   Georgi Stoychev        : AutoAux, RI-MP2 NMR, DLPNO-MP2 response
   Willem Van den Heuvel  : Paramagnetic NMR
   Boris Wezisla          : Elementary symmetry handling
   Frank Wennmohs         : Technical directorship


 We gratefully acknowledge several colleagues who have allowed us to
 interface, adapt or use parts of their codes:
   Stefan Grimme, W. Hujo, H. Kruse, P. Pracht,  : VdW corrections, initial TS optimization,
                  C. Bannwarth, S. Ehlert          DFT functionals, gCP, sTDA/sTD-DF
   Ed Valeev, F. Pavosevic, A. Kumar             : LibInt (2-el integral package), F12 methods
   Garnet Chan, S. Sharma, J. Yang, R. Olivares  : DMRG
   Ulf Ekstrom                                   : XCFun DFT Library
   Mihaly Kallay                                 : mrcc  (arbitrary order and MRCC methods)
   Jiri Pittner, Ondrej Demel                    : Mk-CCSD
   Frank Weinhold                                : gennbo (NPA and NBO analysis)
   Christopher J. Cramer and Donald G. Truhlar   : smd solvation model
   Lars Goerigk                                  : TD-DFT with DH, B97 family of functionals
   V. Asgeirsson, H. Jonsson                     : NEB implementation
   FAccTs GmbH                                   : IRC, NEB, NEB-TS, DLPNO-Multilevel, CI-OPT
                                                   MM, QMMM, 2- and 3-layer-ONIOM, Crystal-QMMM,
                                                   LR-CPCM, SF, NACMEs, symmetry and pop. for TD-DFT,
                                                   nearIR, NL-DFT gradient (VV10), updates on ESD,
                                                   ML-optimized integration grids
   S Lehtola, MJT Oliveira, MAL Marques          : LibXC Library
   Liviu Ungur et al                             : ANISO software


 Your calculation uses the libint2 library for the computation of 2-el integrals
 For citations please refer to: http://libint.valeyev.net

 Your ORCA version has been built with support for libXC version: 5.1.0
 For citations please refer to: https://tddft.org/programs/libxc/

 This ORCA versions uses:
   CBLAS   interface :  Fast vector & matrix operations
   LAPACKE interface :  Fast linear algebra routines
   SCALAPACK package :  Parallel linear algebra routines
   Shared memory     :  Shared parallel matrices
   BLAS/LAPACK       :  OpenBLAS 0.3.15  USE64BITINT DYNAMIC_ARCH NO_AFFINITY Zen SINGLE_THREADED
        Core in use  :  Zen
   Copyright (c) 2011-2014, The OpenBLAS Project


Your calculation utilizes the DFT-NL dispersion correction.
Cite in your paper:
Vydrov, O. A.; Van Voorhis, T. J. Chem. Phys. 2010, 133, 244103
Hujo, W.; Grimme, S. J. Chem. Theory Comput. 2011, 7, 3866 
   

Your calculation utilizes the SMD solvation module
Please cite in your paper:
A.V. Marenich, C.J. Cramer, D.G. Truhlar J. Phys. Chem. B, 113, (2009), 6378 

================================================================================

----- Orbital basis set information -----
Your calculation utilizes the basis: def2-TZVPP
   F. Weigend and R. Ahlrichs, Phys. Chem. Chem. Phys. 7, 3297 (2005).

----- AuxJ basis set information -----
Your calculation utilizes the auxiliary basis: def2/J
   F. Weigend, Phys. Chem. Chem. Phys. 8, 1057 (2006).

================================================================================
                                        WARNINGS
                       Please study these warnings very carefully!
================================================================================

Using LibXC functional ID 531 : wB97M-V exchange-correlation functional
[ 1]  N. Mardirossian and M. Head-Gordon, J. Chem. Phys. 144, 214110 (2016)
Using LibXC functional ID 531 : wB97M-V exchange-correlation functional
[ 1]  N. Mardirossian and M. Head-Gordon, J. Chem. Phys. 144, 214110 (2016)

WARNING: B97M-V or wB97M-V functional requested.
  ===> : libXC variant has now been activated.
         Any manually given DFX/HFX/RangeSep scaling parameters are IGNORED!

Your calculation utilizes LibXC
 by S Lehtola, C Steigemann, MJT Oliveira & MAL Marques
Please cite in your paper:
 S Lehtola, C Steigemann, MJT Oliveira & MAL Marques, SoftwareX, 7, (2018), 1.
   


INFO   : the flag for use of the SHARK integral package has been found!

================================================================================
                                       INPUT FILE
================================================================================
NAME = /tmp/265176/Ac2_rdkit_conf_3_spc.inp
|  1> # Ac2_rdkit_conf_3_spc
|  2> %maxcore 16000
|  3> %pal nprocs 8 end
|  4> ! wB97M-V def2-TZVPP def2/J RIJCOSX
|  5> %cpcm
|  6> smd true
|  7> SMDsolvent "ETHYL ETHANOATE"
|  8> end
|  9> * xyz 0 1
| 10>  C  -3.32579400   0.42663900  -1.15486900
| 11>  C  -2.36348300   0.18188400  -0.00298700
| 12>  C  -2.90278900  -0.89904500   0.92336100
| 13>  C  -2.07200900   1.48140700   0.73489600
| 14>  O  -1.16276900  -0.28981400  -0.68020500
| 15>  C  -0.06294200  -0.58546100   0.01856700
| 16>  O   0.05765900  -0.55060000   1.21870700
| 17>  N   0.93821200  -0.98465800  -0.83046400
| 18>  C   2.27083300  -1.02854400  -0.30571500
| 19>  C   2.86216400   0.35332000  -0.10027200
| 20>  O   2.34992300   1.38077400  -0.43494700
| 21>  O   4.06279800   0.28047000   0.49494900
| 22>  H  -3.49377600  -0.49572000  -1.71132400
| 23>  H  -2.92049900   1.17626600  -1.83478700
| 24>  H  -4.28114300   0.78275200  -0.76938400
| 25>  H  -3.03922100  -1.83063500   0.37210700
| 26>  H  -2.22978100  -1.07297700   1.75915200
| 27>  H  -3.87328200  -0.58477000   1.31021600
| 28>  H  -1.60430000   2.19801300   0.05819700
| 29>  H  -3.01140800   1.90638300   1.09149000
| 30>  H  -1.41466100   1.31507700   1.58449300
| 31>  H   0.81844800  -0.70633300  -1.79139100
| 32>  H   2.92538500  -1.58630200  -0.97624300
| 33>  H   2.26793800  -1.54181700   0.65489900
| 34>  H   4.39204400   1.18482900   0.59991100
| 35> **                         ****END OF INPUT****
================================================================================

                       ****************************
                       * Single Point Calculation *
                       ****************************

---------------------------------
CARTESIAN COORDINATES (ANGSTROEM)
---------------------------------
  C     -3.325794    0.426639   -1.154869
  C     -2.363483    0.181884   -0.002987
  C     -2.902789   -0.899045    0.923361
  C     -2.072009    1.481407    0.734896
  O     -1.162769   -0.289814   -0.680205
  C     -0.062942   -0.585461    0.018567
  O      0.057659   -0.550600    1.218707
  N      0.938212   -0.984658   -0.830464
  C      2.270833   -1.028544   -0.305715
  C      2.862164    0.353320   -0.100272
  O      2.349923    1.380774   -0.434947
  O      4.062798    0.280470    0.494949
  H     -3.493776   -0.495720   -1.711324
  H     -2.920499    1.176266   -1.834787
  H     -4.281143    0.782752   -0.769384
  H     -3.039221   -1.830635    0.372107
  H     -2.229781   -1.072977    1.759152
  H     -3.873282   -0.584770    1.310216
  H     -1.604300    2.198013    0.058197
  H     -3.011408    1.906383    1.091490
  H     -1.414661    1.315077    1.584493
  H      0.818448   -0.706333   -1.791391
  H      2.925385   -1.586302   -0.976243
  H      2.267938   -1.541817    0.654899
  H      4.392044    1.184829    0.599911

----------------------------
CARTESIAN COORDINATES (A.U.)
----------------------------
  NO LB      ZA    FRAG     MASS         X           Y           Z
   0 C     6.0000    0    12.011   -6.284840    0.806231   -2.182386
   1 C     6.0000    0    12.011   -4.466336    0.343711   -0.005645
   2 C     6.0000    0    12.011   -5.485476   -1.698949    1.744899
   3 C     6.0000    0    12.011   -3.915530    2.799454    1.388752
   4 O     8.0000    0    15.999   -2.197315   -0.547669   -1.285401
   5 C     6.0000    0    12.011   -0.118943   -1.106361    0.035087
   6 O     8.0000    0    15.999    0.108960   -1.040483    2.303022
   7 N     7.0000    0    14.007    1.772964   -1.860734   -1.569350
   8 C     6.0000    0    12.011    4.291252   -1.943666   -0.577718
   9 C     6.0000    0    12.011    5.408706    0.667678   -0.189487
  10 O     8.0000    0    15.999    4.440711    2.609285   -0.821931
  11 O     8.0000    0    15.999    7.677576    0.530011    0.935318
  12 H     1.0000    0     1.008   -6.602280   -0.936775   -3.233934
  13 H     1.0000    0     1.008   -5.518943    2.222821   -3.467245
  14 H     1.0000    0     1.008   -8.090188    1.479187   -1.453925
  15 H     1.0000    0     1.008   -5.743295   -3.459399    0.703180
  16 H     1.0000    0     1.008   -4.213675   -2.027633    3.324316
  17 H     1.0000    0     1.008   -7.319442   -1.105055    2.475949
  18 H     1.0000    0     1.008   -3.031688    4.153643    0.109976
  19 H     1.0000    0     1.008   -5.690736    3.602542    2.062617
  20 H     1.0000    0     1.008   -2.673322    2.485135    2.994258
  21 H     1.0000    0     1.008    1.546643   -1.334776   -3.385238
  22 H     1.0000    0     1.008    5.528176   -2.997676   -1.844832
  23 H     1.0000    0     1.008    4.285782   -2.913612    1.237580
  24 H     1.0000    0     1.008    8.299760    2.239002    1.133667

--------------------------------
INTERNAL COORDINATES (ANGSTROEM)
--------------------------------
 C      0   0   0     0.000000000000     0.00000000     0.00000000
 C      1   0   0     1.520782565875     0.00000000     0.00000000
 C      2   1   0     1.522294019492   110.54938562     0.00000000
 C      2   1   3     1.522559831959   110.53907626   235.06588627
 O      2   1   3     1.456995996056   102.79825213   117.57418869
 C      5   2   1     1.336154514464   120.45736146   178.46942488
 O      6   5   2     1.206687992035   126.58458271     2.73081306
 N      6   5   2     1.372050004732   109.96085765   180.98599999
 C      8   6   5     1.432887372977   117.44597326   165.20642415
 C      9   8   6     1.517045580168   112.59479193   287.14195914
 O     10   9   8     1.195851127784   125.29282199   353.80452215
 O     10   9   8     1.342057064099   111.05921059   174.80826885
 H      1   2   3     1.090232197392   110.36073393   302.12761750
 H      1   2   3     1.090180335026   110.35330349   181.96071621
 H      1   2   3     1.090003149443   109.83521564    62.05044893
 H      3   2   1     1.091033725987   110.06814364    59.61633911
 H      3   2   1     1.087078058085   111.23152876   180.81466588
 H      3   2   1     1.091000563565   109.04870921   300.95241512
 H      4   2   1     1.090961687924   110.00485369   298.82716613
 H      4   2   1     1.090978626103   109.02865896    57.59837272
 H      4   2   1     1.087008336865   111.34310089   177.84286349
 H      8   6   5     1.007565839362   115.02779037    19.63437408
 H      9   8   6     1.090477008493   110.40915774   165.86884001
 H      9   8   6     1.089144990600   109.57021534    47.49272891
 H     12  10   9     0.968134882566   107.55513565   179.94011219

---------------------------
INTERNAL COORDINATES (A.U.)
---------------------------
 C      0   0   0     0.000000000000     0.00000000     0.00000000
 C      1   0   0     2.873862558746     0.00000000     0.00000000
 C      2   1   0     2.876718792146   110.54938562     0.00000000
 C      2   1   3     2.877221104911   110.53907626   235.06588627
 O      2   1   3     2.753323410766   102.79825213   117.57418869
 C      5   2   1     2.524966104939   120.45736146   178.46942488
 O      6   5   2     2.280309834038   126.58458271     2.73081306
 N      6   5   2     2.592798750989   109.96085765   180.98599999
 C      8   6   5     2.707764715681   117.44597326   165.20642415
 C      9   8   6     2.866800679192   112.59479193   287.14195914
 O     10   9   8     2.259831128452   125.29282199   353.80452215
 O     10   9   8     2.536120307241   111.05921059   174.80826885
 H      1   2   3     2.060240275454   110.36073393   302.12761750
 H      1   2   3     2.060142269786   110.35330349   181.96071621
 H      1   2   3     2.059807437558   109.83521564    62.05044893
 H      3   2   1     2.061754944986   110.06814364    59.61633911
 H      3   2   1     2.054279815975   111.23152876   180.81466588
 H      3   2   1     2.061692277091   109.04870921   300.95241512
 H      4   2   1     2.061618812777   110.00485369   298.82716613
 H      4   2   1     2.061650821296   109.02865896    57.59837272
 H      4   2   1     2.054148061963   111.34310089   177.84286349
 H      8   6   5     1.904023498289   115.02779037    19.63437408
 H      9   8   6     2.060702901390   110.40915774   165.86884001
 H      9   8   6     2.058185752367   109.57021534    47.49272891
 H     12  10   9     1.829509788746   107.55513565   179.94011219

---------------------
BASIS SET INFORMATION
---------------------
There are 4 groups of distinct atoms

 Group   1 Type C   : 11s6p2d1f contracted to 5s3p2d1f pattern {62111/411/11/1}
 Group   2 Type O   : 11s6p2d1f contracted to 5s3p2d1f pattern {62111/411/11/1}
 Group   3 Type N   : 11s6p2d1f contracted to 5s3p2d1f pattern {62111/411/11/1}
 Group   4 Type H   : 5s2p1d contracted to 3s2p1d pattern {311/11/1}

Atom   0C    basis set group =>   1
Atom   1C    basis set group =>   1
Atom   2C    basis set group =>   1
Atom   3C    basis set group =>   1
Atom   4O    basis set group =>   2
Atom   5C    basis set group =>   1
Atom   6O    basis set group =>   2
Atom   7N    basis set group =>   3
Atom   8C    basis set group =>   1
Atom   9C    basis set group =>   1
Atom  10O    basis set group =>   2
Atom  11O    basis set group =>   2
Atom  12H    basis set group =>   4
Atom  13H    basis set group =>   4
Atom  14H    basis set group =>   4
Atom  15H    basis set group =>   4
Atom  16H    basis set group =>   4
Atom  17H    basis set group =>   4
Atom  18H    basis set group =>   4
Atom  19H    basis set group =>   4
Atom  20H    basis set group =>   4
Atom  21H    basis set group =>   4
Atom  22H    basis set group =>   4
Atom  23H    basis set group =>   4
Atom  24H    basis set group =>   4
---------------------------------
AUXILIARY/J BASIS SET INFORMATION
---------------------------------
There are 4 groups of distinct atoms

 Group   1 Type C   : 12s5p4d2f1g contracted to 6s4p3d1f1g pattern {711111/2111/211/2/1}
 Group   2 Type O   : 12s5p4d2f1g contracted to 6s4p3d1f1g pattern {711111/2111/211/2/1}
 Group   3 Type N   : 12s5p4d2f1g contracted to 6s4p3d1f1g pattern {711111/2111/211/2/1}
 Group   4 Type H   : 5s2p1d contracted to 3s1p1d pattern {311/2/1}

Atom   0C    basis set group =>   1
Atom   1C    basis set group =>   1
Atom   2C    basis set group =>   1
Atom   3C    basis set group =>   1
Atom   4O    basis set group =>   2
Atom   5C    basis set group =>   1
Atom   6O    basis set group =>   2
Atom   7N    basis set group =>   3
Atom   8C    basis set group =>   1
Atom   9C    basis set group =>   1
Atom  10O    basis set group =>   2
Atom  11O    basis set group =>   2
Atom  12H    basis set group =>   4
Atom  13H    basis set group =>   4
Atom  14H    basis set group =>   4
Atom  15H    basis set group =>   4
Atom  16H    basis set group =>   4
Atom  17H    basis set group =>   4
Atom  18H    basis set group =>   4
Atom  19H    basis set group =>   4
Atom  20H    basis set group =>   4
Atom  21H    basis set group =>   4
Atom  22H    basis set group =>   4
Atom  23H    basis set group =>   4
Atom  24H    basis set group =>   4


           ************************************************************
           *        Program running with 8 parallel MPI-processes     *
           *              working on a common directory               *
           ************************************************************
------------------------------------------------------------------------------
                           ORCA GTO INTEGRAL CALCULATION
                           -- RI-GTO INTEGRALS CHOSEN --
------------------------------------------------------------------------------
------------------------------------------------------------------------------
                   ___                                                        
                  /   \      - P O W E R E D   B Y -                         
                 /     \                                                     
                 |  |  |   _    _      __       _____    __    __             
                 |  |  |  | |  | |    /  \     |  _  \  |  |  /  |          
                  \  \/   | |  | |   /    \    | | | |  |  | /  /          
                 / \  \   | |__| |  /  /\  \   | |_| |  |  |/  /          
                |  |  |   |  __  | /  /__\  \  |    /   |      \           
                |  |  |   | |  | | |   __   |  |    \   |  |\   \          
                \     /   | |  | | |  |  |  |  | |\  \  |  | \   \       
                 \___/    |_|  |_| |__|  |__|  |_| \__\ |__|  \__/        
                                                                              
                      - O R C A' S   B I G   F R I E N D -                    
                                      &                                       
                       - I N T E G R A L  F E E D E R -                       
                                                                              
 v1 FN, 2020, v2 2021                                                         
------------------------------------------------------------------------------


Reading SHARK input file /tmp/265176/Ac2_rdkit_conf_3_spc.SHARKINP.tmp ... ok
----------------------
SHARK INTEGRAL PACKAGE
----------------------

Number of atoms                             ...     25
Number of basis functions                   ...    554
Number of shells                            ...    210
Maximum angular momentum                    ...      3
Integral batch strategy                     ... SHARK/LIBINT Hybrid
RI-J (if used) integral strategy            ... SPLIT-RIJ (Revised 2003 algorithm where possible)
Printlevel                                  ...      1
Contraction scheme used                     ... SEGMENTED contraction
Coulomb Range Separation                    ... NOT USED
Exchange Range Separation                   ... Long Range
   Mu parameter                             ...  0.300000
   Scaling (regular/separated)              ...  0.150000  0.850000
Finite Nucleus Model                        ... NOT USED
Auxiliary Coulomb fitting basis             ... AVAILABLE
   # of basis functions in Aux-J            ...    731
   # of shells in Aux-J                     ...    245
   Maximum angular momentum in Aux-J        ...      4
Auxiliary J/K fitting basis                 ... NOT available
Auxiliary Correlation fitting basis         ... NOT available
Auxiliary 'external' fitting basis          ... NOT available
Integral threshold                          ...     1.000000e-10
Primitive cut-off                           ...     1.000000e-11
Primitive pair pre-selection threshold      ...     1.000000e-11

Calculating pre-screening integrals         ... done (  0.0 sec) Dimension = 210
Organizing shell pair data                  ... done (  0.2 sec)
Shell pair information
Total number of shell pairs                 ...     22155
Shell pairs after pre-screening             ...     17179
Total number of primitive shell pairs       ...     59643
Primitive shell pairs kept                  ...     33781
          la=0 lb=0:   3855 shell pairs
          la=1 lb=0:   4891 shell pairs
          la=1 lb=1:   1599 shell pairs
          la=2 lb=0:   2720 shell pairs
          la=2 lb=1:   1766 shell pairs
          la=2 lb=2:    500 shell pairs
          la=3 lb=0:    902 shell pairs
          la=3 lb=1:    576 shell pairs
          la=3 lb=2:    310 shell pairs
          la=3 lb=3:     60 shell pairs

Calculating one electron integrals          ... done (  0.0 sec)
Calculating RI/J V-Matrix + Cholesky decomp.... done (  0.0 sec)
Calculating Nuclear repulsion               ... done (  0.0 sec) ENN=    765.682024734804 Eh

SHARK setup successfully completed in   0.5 seconds

Maximum memory used throughout the entire GTOINT-calculation: 29.1 MB


           ************************************************************
           *        Program running with 8 parallel MPI-processes     *
           *              working on a common directory               *
           ************************************************************
-------------------------------------------------------------------------------
                                 ORCA SCF
-------------------------------------------------------------------------------

------------
SCF SETTINGS
------------
Hamiltonian:
 Density Functional     Method          .... DFT(GTOs)
  Functional kind                       .... Exchange-Correlation
  Functional name                       .... wB97M-V exchange-correlation functional
  Functional family                     .... Hybrid MGGA
  Functional refs                              
    [ 0] N. Mardirossian and M. Head-Gordon, J. Chem. Phys. 144, 214110 (2016)
  Fraction of HF Exchange (short range) .... 0.1500
  Fraction of HF Exchange (long range)  .... 1.0000
  Range separation parameter mu         .... 0.3000
  Functional external parameters         .... 0
   Density functional embedding theory  .... OFF
 Long-range corrected/Screened/Range-Separated Hybrid DFT is turned on
   Amount of maximum screened exact exchange              ....  0.850000
   Range separation parameter mu (erf(mu*r12)/r12)        ....  0.300000
   NL short-range parameter             ....  6.000000
   NL long-range parameter              ....  0.010000
 RI-approximation to the Coulomb term is turned on
   Number of AuxJ basis functions       .... 731
   RIJ-COSX (HFX calculated with COS-X)).... on


General Settings:
 Integral files         IntName         .... /tmp/265176/Ac2_rdkit_conf_3_spc
 Hartree-Fock type      HFTyp           .... RHF
 Total Charge           Charge          ....    0
 Multiplicity           Mult            ....    1
 Number of Electrons    NEL             ....   94
 Basis Dimension        Dim             ....  554
 Nuclear Repulsion      ENuc            ....    765.6820247348 Eh

Convergence Acceleration:
 DIIS                   CNVDIIS         .... on
   Start iteration      DIISMaxIt       ....    12
   Startup error        DIISStart       ....  0.200000
   # of expansion vecs  DIISMaxEq       ....     5
   Bias factor          DIISBfac        ....   1.050
   Max. coefficient     DIISMaxC        ....  10.000
 Trust-Rad. Augm. Hess. CNVTRAH         .... auto
   Auto Start mean grad. ratio tolernc. ....  1.125000
   Auto Start start iteration           ....    20
   Auto Start num. interpolation iter.  ....    10
   Max. Number of Micro iterations      ....    16
   Max. Number of Macro iterations      .... Maxiter - #DIIS iter
   Number of Davidson start vectors     ....     2
   Converg. threshold I  (grad. norm)   ....   5.000e-05
   Converg. threshold II (energy diff.) ....   1.000e-06
   Grad. Scal. Fac. for Micro threshold ....   0.100
   Minimum threshold for Micro iter.    ....   0.010
   NR start threshold (gradient norm)   ....   0.001
   Initial trust radius                 ....   0.400
   Minimum AH scaling param. (alpha)    ....   1.000
   Maximum AH scaling param. (alpha)    .... 1000.000
   Orbital update algorithm             .... Taylor
   White noise on init. David. guess    .... on
   Maximum white noise                  ....   0.010
   Quad. conv. algorithm                .... NR
 SOSCF                  CNVSOSCF        .... on
   Start iteration      SOSCFMaxIt      ....   150
   Startup grad/error   SOSCFStart      ....  0.003300
 Level Shifting         CNVShift        .... on
   Level shift para.    LevelShift      ....    0.2500
   Turn off err/grad.   ShiftErr        ....    0.0010
 Zerner damping         CNVZerner       .... off
 Static damping         CNVDamp         .... on
   Fraction old density DampFac         ....    0.7000
   Max. Damping (<1)    DampMax         ....    0.9800
   Min. Damping (>=0)   DampMin         ....    0.0000
   Turn off err/grad.   DampErr         ....    0.1000
 Fernandez-Rico         CNVRico         .... off

SCF Procedure:
 Maximum # iterations   MaxIter         ....   125
 SCF integral mode      SCFMode         .... Direct
   Integral package                     .... SHARK and LIBINT hybrid scheme
 Reset frequency        DirectResetFreq ....    20
 Integral Threshold     Thresh          ....  1.000e-10 Eh
 Primitive CutOff       TCut            ....  1.000e-11 Eh

Convergence Tolerance:
 Convergence Check Mode ConvCheckMode   .... Total+1el-Energy
 Convergence forced     ConvForced      .... 0
 Energy Change          TolE            ....  1.000e-06 Eh
 1-El. energy change                    ....  1.000e-03 Eh
 Orbital Gradient       TolG            ....  5.000e-05
 Orbital Rotation angle TolX            ....  5.000e-05
 DIIS Error             TolErr          ....  1.000e-06


Diagonalization of the overlap matrix:
Smallest eigenvalue                        ... 1.404e-04
Time for diagonalization                   ...    0.040 sec
Threshold for overlap eigenvalues          ... 1.000e-08
Number of eigenvalues below threshold      ... 0
Time for construction of square roots      ...    0.024 sec
Total time needed                          ...    0.066 sec

Time for model grid setup =    0.122 sec

------------------------------
INITIAL GUESS: MODEL POTENTIAL
------------------------------
Loading Hartree-Fock densities                     ... done
Calculating cut-offs                               ... done
Initializing the effective Hamiltonian             ... done
Setting up the integral package (SHARK)            ... done
Starting the Coulomb interaction                   ... done (   0.1 sec)
Reading the grid                                   ... done
Mapping shells                                     ... done
Starting the XC term evaluation                    ... done (   0.1 sec)
  promolecular density results
     # of electrons  =     93.990498815
     EX              =    -78.858444464
     EC              =     -3.154805662
     EX+EC           =    -82.013250126
Transforming the Hamiltonian                       ... done (   0.0 sec)
Diagonalizing the Hamiltonian                      ... done (   0.4 sec)
Back transforming the eigenvectors                 ... done (   0.0 sec)
Now organizing SCF variables                       ... done
                      ------------------
                      INITIAL GUESS DONE (   0.9 sec)
                      ------------------
-------------------
DFT GRID GENERATION
-------------------

General Integration Accuracy     IntAcc      ... 4.388
Radial Grid Type                 RadialGrid  ... OptM3 with GC (2021)
Angular Grid (max. ang.)         AngularGrid ... 4 (Lebedev-302)
Angular grid pruning method      GridPruning ... 4 (adaptive)
Weight generation scheme         WeightScheme... Becke
Basis function cutoff            BFCut       ... 1.0000e-10
Integration weight cutoff        WCut        ... 1.0000e-14
Angular grids for H and He will be reduced by one unit
Partially contracted basis set               ... off
Rotationally invariant grid construction     ... off

Total number of grid points                  ...   113873
Total number of batches                      ...     1794
Average number of points per batch           ...       63
Average number of grid points per atom       ...     4555
Time for grid setup =    0.632 sec

--------------------
COSX GRID GENERATION
--------------------

GRIDX 1
-------
General Integration Accuracy     IntAcc      ... 3.816
Radial Grid Type                 RadialGrid  ... OptM3 with GC (2021)
Angular Grid (max. ang.)         AngularGrid ... 1 (Lebedev-50)
Angular grid pruning method      GridPruning ... 4 (adaptive)
Weight generation scheme         WeightScheme... Becke
Basis function cutoff            BFCut       ... 1.0000e-10
Integration weight cutoff        WCut        ... 1.0000e-14
Angular grids for H and He will be reduced by one unit
Partially contracted basis set               ... on
Rotationally invariant grid construction     ... off

Total number of grid points                  ...    14532
Total number of batches                      ...      242
Average number of points per batch           ...       60
Average number of grid points per atom       ...      581
UseSFitting                                  ... on

GRIDX 2
-------
General Integration Accuracy     IntAcc      ... 4.020
Radial Grid Type                 RadialGrid  ... OptM3 with GC (2021)
Angular Grid (max. ang.)         AngularGrid ... 2 (Lebedev-110)
Angular grid pruning method      GridPruning ... 4 (adaptive)
Weight generation scheme         WeightScheme... Becke
Basis function cutoff            BFCut       ... 1.0000e-10
Integration weight cutoff        WCut        ... 1.0000e-14
Angular grids for H and He will be reduced by one unit
Partially contracted basis set               ... on
Rotationally invariant grid construction     ... off

Total number of grid points                  ...    31194
Total number of batches                      ...      499
Average number of points per batch           ...       62
Average number of grid points per atom       ...     1248
UseSFitting                                  ... on

GRIDX 3
-------
General Integration Accuracy     IntAcc      ... 4.338
Radial Grid Type                 RadialGrid  ... OptM3 with GC (2021)
Angular Grid (max. ang.)         AngularGrid ... 3 (Lebedev-194)
Angular grid pruning method      GridPruning ... 4 (adaptive)
Weight generation scheme         WeightScheme... Becke
Basis function cutoff            BFCut       ... 1.0000e-10
Integration weight cutoff        WCut        ... 1.0000e-14
Angular grids for H and He will be reduced by one unit
Partially contracted basis set               ... on
Rotationally invariant grid construction     ... off

Total number of grid points                  ...    68243
Total number of batches                      ...     1078
Average number of points per batch           ...       63
Average number of grid points per atom       ...     2730
UseSFitting                                  ... on

Time for X-Grid setup             =    2.632 sec


--------------------
CPCM SOLVATION MODEL
--------------------
CPCM parameters:
  Epsilon                                         ...       5.9867
  Refrac                                          ...       1.3723
  Rsolv                                           ...       1.3000
  Surface type                                    ... GAUSSIAN VDW
  Epsilon function type                           ...         CPCM
Solvent:                                     ... ETHYL ETHANOATE
SMD-CDS solvent descriptors:
  Soln                                       ...    1.3723
  Soln25                                     ...    1.3704
  Sola                                       ...    0.0000
  Solb                                       ...    0.4500
  Solg                                       ...   33.6700
  Solc                                       ...    0.0000
  Solh                                       ...    0.0000
Radii:
 Radius for C  used is    3.4960 Bohr (=   1.8500 Ang.)
 Radius for O  used is    4.3350 Bohr (=   2.2940 Ang.)
 Radius for N  used is    3.5716 Bohr (=   1.8900 Ang.)
 Radius for H  used is    2.2677 Bohr (=   1.2000 Ang.)
Calculating surface                               ...        done! (  0.0s)
GEPOL surface points                              ...         1251
GEPOL Volume                                      ...    1605.5094
GEPOL Surface-area                                ...     841.0617
Calculating surface distance matrix               ...        done! (  0.0s)
Performing Cholesky decomposition & store         ...        done! (  0.1s)
Overall time for CPCM initialization              ...                 0.2s
--------------
SCF ITERATIONS
--------------
ITER       Energy         Delta-E        Max-DP      RMS-DP      [F,P]     Damp
               ***  Starting incremental Fock matrix formation  ***
  0   -630.2347191356   0.000000000000 0.05340824  0.00062763  0.2910351 0.7000
  1   -630.4252993089  -0.190580173282 0.05481144  0.00048450  0.1455509 0.7000
                               ***Turning on DIIS***
  2   -630.5145300240  -0.089230715055 0.10667879  0.00095095  0.0585447 0.0000
  3   -630.6590192517  -0.144489227742 0.02951610  0.00029932  0.0662572 0.0000
  4   -630.6820825697  -0.023063317944 0.00593887  0.00007799  0.0078714 0.0000
  5   -630.6826810843  -0.000598514592 0.00294908  0.00003509  0.0056320 0.0000
                      *** Initiating the SOSCF procedure ***
                           *** Shutting down DIIS ***
                      *** Re-Reading the Fockian *** 
                      *** Removing any level shift *** 
ITER      Energy       Delta-E        Grad      Rot      Max-DP    RMS-DP
  6   -630.68277861  -0.0000975238  0.000779  0.000779  0.001916  0.000022
               *** Restarting incremental Fock matrix formation ***
  7   -630.68281150  -0.0000328910  0.000228  0.000258  0.001099  0.000015
  8   -630.68281220  -0.0000007000  0.000364  0.000357  0.000308  0.000004
  9   -630.68281535  -0.0000031487  0.000053  0.000127  0.000114  0.000002
                 **** Energy Check signals convergence ****
              ***Rediagonalizing the Fockian in SOSCF/NRSCF***

               *****************************************************
               *                     SUCCESS                       *
               *           SCF CONVERGED AFTER  10 CYCLES          *
               *****************************************************

Old exchange energy                            =    -24.678138375 Eh
New exchange energy                            =    -24.678131901 Eh
Exchange energy change after final integration =      0.000006473 Eh
Total energy after final integration           =   -630.682808994 Eh
Final COS-X integration done in                =    16.747 sec

------------------
NL GRID GENERATION
------------------

General Integration Accuracy     IntAcc      ... 4.004
Radial Grid Type                 RadialGrid  ... OptM3 with GC (2021)
Angular Grid (max. ang.)         AngularGrid ... 2 (Lebedev-110)
Angular grid pruning method      GridPruning ... 4 (adaptive)
Weight generation scheme         WeightScheme... Becke
Basis function cutoff            BFCut       ... 1.0000e-10
Integration weight cutoff        WCut        ... 1.0000e-14
Angular grids for H and He will be reduced by one unit
Partially contracted basis set               ... off
Rotationally invariant grid construction     ... off

Total number of grid points                  ...    35397
Total number of batches                      ...      564
Average number of points per batch           ...       62
Average number of grid points per atom       ...     1416
Final grid set up in    0.1 sec

-------------------------------------------------------------------------------
                    post-SCF DFT-NL dispersion correction                      
-------------------------------------------------------------------------------

SCF Energy:   -630.682808994 
NL    Energy:  0.358400098 
SC+NL Energy: -630.324408896 
NL done in:    0.5 sec
-------------------------------------------------------------------------------

SMD CDS free energy correction energy :                -3.27520     Kcal/mol
Total Energy after SMD CDS correction =              -630.329628263 Eh

----------------
TOTAL SCF ENERGY
----------------

Total Energy       :         -630.32962826 Eh          -17152.14118 eV

Components:
Nuclear Repulsion  :          765.68202473 Eh           20835.26714 eV
Electronic Energy  :        -1396.01165300 Eh          -37987.40832 eV
One Electron Energy:        -2379.49795945 Eh          -64749.43127 eV
Two Electron Energy:          983.48630646 Eh           26762.02295 eV
Max COSX asymmetry :            0.00000095 Eh               0.00003 eV
CPCM Dielectric    :           -0.01335150 Eh              -0.36331 eV
SMD CDS (Gcds)     :           -0.00521937 Eh              -0.14203 eV

Virial components:
Potential Energy   :        -1258.96955117 Eh          -34258.30315 eV
Kinetic Energy     :          628.63992291 Eh           17106.16196 eV
Virial Ratio       :            2.00268787


DFT components:
N(Alpha)           :       46.999912092202 electrons
N(Beta)            :       46.999912092202 electrons
N(Total)           :       93.999824184403 electrons
NL Energy, E(C,NL) :        0.358400098274 Eh       
E(XC)              :      -59.454207453366 Eh       
DFET-embed. en.    :        0.000000000000 Eh       
CPCM Solvation Model Properties:
Surface-charge          :           -0.03184041
Charge-correction       :            0.00019263 Eh               0.00524 eV
Free-energy (cav+disp)  :           -0.00521937 Eh              -0.14203 eV

---------------
SCF CONVERGENCE
---------------

  Last Energy change         ...   -1.1981e-07  Tolerance :   1.0000e-06
  Last MAX-Density change    ...    1.7764e-15  Tolerance :   1.0000e-05
  Last RMS-Density change    ...    1.2706e-17  Tolerance :   1.0000e-06
  Last Orbital Gradient      ...    2.2811e-05  Tolerance :   5.0000e-05
  Last Orbital Rotation      ...    5.7167e-05  Tolerance :   5.0000e-05

             **** THE GBW FILE WAS UPDATED (/tmp/265176/Ac2_rdkit_conf_3_spc.gbw) ****
             **** DENSITY /tmp/265176/Ac2_rdkit_conf_3_spc.scfp WAS UPDATED ****
             **** ENERGY FILE WAS UPDATED (/tmp/265176/Ac2_rdkit_conf_3_spc.en.tmp) ****
             **** THE GBW FILE WAS UPDATED (/tmp/265176/Ac2_rdkit_conf_3_spc.gbw) ****
             **** DENSITY /tmp/265176/Ac2_rdkit_conf_3_spc.scfp WAS UPDATED ****
----------------
ORBITAL ENERGIES
----------------

  NO   OCC          E(Eh)            E(eV) 
   0   2.0000     -19.384119      -527.4687 
   1   2.0000     -19.365141      -526.9523 
   2   2.0000     -19.329560      -525.9841 
   3   2.0000     -19.302796      -525.2558 
   4   2.0000     -14.524520      -395.2323 
   5   2.0000     -10.491563      -285.4899 
   6   2.0000     -10.483849      -285.2800 
   7   2.0000     -10.410727      -283.2903 
   8   2.0000     -10.390191      -282.7315 
   9   2.0000     -10.326160      -280.9891 
  10   2.0000     -10.322885      -280.9000 
  11   2.0000     -10.322554      -280.8910 
  12   2.0000      -1.249293       -33.9950 
  13   2.0000      -1.237507       -33.6743 
  14   2.0000      -1.160067       -31.5670 
  15   2.0000      -1.147580       -31.2272 
  16   2.0000      -1.058013       -28.7900 
  17   2.0000      -0.934792       -25.4370 
  18   2.0000      -0.866473       -23.5779 
  19   2.0000      -0.810305       -22.0495 
  20   2.0000      -0.809339       -22.0232 
  21   2.0000      -0.761524       -20.7221 
  22   2.0000      -0.712015       -19.3749 
  23   2.0000      -0.686807       -18.6890 
  24   2.0000      -0.628325       -17.0976 
  25   2.0000      -0.622666       -16.9436 
  26   2.0000      -0.614280       -16.7154 
  27   2.0000      -0.593053       -16.1378 
  28   2.0000      -0.587077       -15.9752 
  29   2.0000      -0.578996       -15.7553 
  30   2.0000      -0.553440       -15.0599 
  31   2.0000      -0.551965       -15.0197 
  32   2.0000      -0.542347       -14.7580 
  33   2.0000      -0.516039       -14.0421 
  34   2.0000      -0.514844       -14.0096 
  35   2.0000      -0.493074       -13.4172 
  36   2.0000      -0.483722       -13.1628 
  37   2.0000      -0.482096       -13.1185 
  38   2.0000      -0.462368       -12.5817 
  39   2.0000      -0.455678       -12.3996 
  40   2.0000      -0.446778       -12.1575 
  41   2.0000      -0.437902       -11.9159 
  42   2.0000      -0.433385       -11.7930 
  43   2.0000      -0.401206       -10.9174 
  44   2.0000      -0.397370       -10.8130 
  45   2.0000      -0.382246       -10.4015 
  46   2.0000      -0.363554        -9.8928 
  47   0.0000       0.094727         2.5776 
  48   0.0000       0.094881         2.5818 
  49   0.0000       0.106763         2.9052 
  50   0.0000       0.122447         3.3320 
  51   0.0000       0.136415         3.7120 
  52   0.0000       0.147743         4.0203 
  53   0.0000       0.148384         4.0377 
  54   0.0000       0.155808         4.2397 
  55   0.0000       0.159532         4.3411 
  56   0.0000       0.174469         4.7475 
  57   0.0000       0.179398         4.8817 
  58   0.0000       0.184229         5.0131 
  59   0.0000       0.205628         5.5954 
  60   0.0000       0.211096         5.7442 
  61   0.0000       0.214459         5.8357 
  62   0.0000       0.226012         6.1501 
  63   0.0000       0.229780         6.2526 
  64   0.0000       0.233373         6.3504 
  65   0.0000       0.243147         6.6164 
  66   0.0000       0.246287         6.7018 
  67   0.0000       0.251848         6.8531 
  68   0.0000       0.252570         6.8728 
  69   0.0000       0.266332         7.2473 
  70   0.0000       0.285274         7.7627 
  71   0.0000       0.286601         7.7988 
  72   0.0000       0.292141         7.9496 
  73   0.0000       0.313564         8.5325 
  74   0.0000       0.339044         9.2258 
  75   0.0000       0.343377         9.3438 
  76   0.0000       0.346710         9.4345 
  77   0.0000       0.353889         9.6298 
  78   0.0000       0.368897        10.0382 
  79   0.0000       0.380637        10.3577 
  80   0.0000       0.388852        10.5812 
  81   0.0000       0.400013        10.8849 
  82   0.0000       0.408172        11.1069 
  83   0.0000       0.414182        11.2705 
  84   0.0000       0.424092        11.5401 
  85   0.0000       0.429074        11.6757 
  86   0.0000       0.431200        11.7336 
  87   0.0000       0.434205        11.8153 
  88   0.0000       0.442253        12.0343 
  89   0.0000       0.453062        12.3284 
  90   0.0000       0.454837        12.3767 
  91   0.0000       0.474799        12.9199 
  92   0.0000       0.482610        13.1325 
  93   0.0000       0.491617        13.3776 
  94   0.0000       0.498314        13.5598 
  95   0.0000       0.501877        13.6568 
  96   0.0000       0.505802        13.7636 
  97   0.0000       0.511292        13.9130 
  98   0.0000       0.515570        14.0294 
  99   0.0000       0.520662        14.1679 
 100   0.0000       0.524124        14.2621 
 101   0.0000       0.532434        14.4883 
 102   0.0000       0.537583        14.6284 
 103   0.0000       0.546375        14.8676 
 104   0.0000       0.546435        14.8693 
 105   0.0000       0.552011        15.0210 
 106   0.0000       0.557079        15.1589 
 107   0.0000       0.569109        15.4863 
 108   0.0000       0.573261        15.5992 
 109   0.0000       0.582841        15.8599 
 110   0.0000       0.599720        16.3192 
 111   0.0000       0.601293        16.3620 
 112   0.0000       0.608828        16.5670 
 113   0.0000       0.616568        16.7777 
 114   0.0000       0.634782        17.2733 
 115   0.0000       0.648058        17.6345 
 116   0.0000       0.655234        17.8298 
 117   0.0000       0.672051        18.2874 
 118   0.0000       0.678290        18.4572 
 119   0.0000       0.696321        18.9479 
 120   0.0000       0.697570        18.9818 
 121   0.0000       0.724543        19.7158 
 122   0.0000       0.729559        19.8523 
 123   0.0000       0.740618        20.1532 
 124   0.0000       0.746545        20.3145 
 125   0.0000       0.766816        20.8661 
 126   0.0000       0.769699        20.9446 
 127   0.0000       0.777215        21.1491 
 128   0.0000       0.808378        21.9971 
 129   0.0000       0.825675        22.4678 
 130   0.0000       0.828731        22.5509 
 131   0.0000       0.842730        22.9319 
 132   0.0000       0.853635        23.2286 
 133   0.0000       0.863947        23.5092 
 134   0.0000       0.864565        23.5260 
 135   0.0000       0.881468        23.9860 
 136   0.0000       0.887212        24.1423 
 137   0.0000       0.897502        24.4223 
 138   0.0000       0.911106        24.7925 
 139   0.0000       0.920452        25.0468 
 140   0.0000       0.940785        25.6001 
 141   0.0000       0.954468        25.9724 
 142   0.0000       0.959395        26.1065 
 143   0.0000       0.981093        26.6969 
 144   0.0000       0.996120        27.1058 
 145   0.0000       1.005055        27.3489 
 146   0.0000       1.009821        27.4786 
 147   0.0000       1.018055        27.7027 
 148   0.0000       1.028202        27.9788 
 149   0.0000       1.032585        28.0981 
 150   0.0000       1.039167        28.2772 
 151   0.0000       1.044863        28.4322 
 152   0.0000       1.059489        28.8302 
 153   0.0000       1.082922        29.4678 
 154   0.0000       1.088956        29.6320 
 155   0.0000       1.091078        29.6898 
 156   0.0000       1.105047        30.0699 
 157   0.0000       1.113296        30.2943 
 158   0.0000       1.123662        30.5764 
 159   0.0000       1.130691        30.7677 
 160   0.0000       1.138258        30.9736 
 161   0.0000       1.149557        31.2810 
 162   0.0000       1.151679        31.3388 
 163   0.0000       1.166222        31.7345 
 164   0.0000       1.186379        32.2830 
 165   0.0000       1.206179        32.8218 
 166   0.0000       1.215062        33.0635 
 167   0.0000       1.233067        33.5535 
 168   0.0000       1.241644        33.7868 
 169   0.0000       1.247916        33.9575 
 170   0.0000       1.260768        34.3073 
 171   0.0000       1.267097        34.4795 
 172   0.0000       1.274224        34.6734 
 173   0.0000       1.287963        35.0472 
 174   0.0000       1.295272        35.2461 
 175   0.0000       1.310908        35.6716 
 176   0.0000       1.327645        36.1271 
 177   0.0000       1.348149        36.6850 
 178   0.0000       1.358321        36.9618 
 179   0.0000       1.361176        37.0395 
 180   0.0000       1.372911        37.3588 
 181   0.0000       1.382621        37.6230 
 182   0.0000       1.398007        38.0417 
 183   0.0000       1.415386        38.5146 
 184   0.0000       1.432969        38.9931 
 185   0.0000       1.439299        39.1653 
 186   0.0000       1.451553        39.4988 
 187   0.0000       1.461693        39.7747 
 188   0.0000       1.479931        40.2710 
 189   0.0000       1.489107        40.5207 
 190   0.0000       1.492344        40.6087 
 191   0.0000       1.500207        40.8227 
 192   0.0000       1.511128        41.1199 
 193   0.0000       1.534869        41.7659 
 194   0.0000       1.547410        42.1072 
 195   0.0000       1.551695        42.2238 
 196   0.0000       1.558267        42.4026 
 197   0.0000       1.569381        42.7050 
 198   0.0000       1.573658        42.8214 
 199   0.0000       1.579404        42.9778 
 200   0.0000       1.590252        43.2729 
 201   0.0000       1.595285        43.4099 
 202   0.0000       1.602588        43.6086 
 203   0.0000       1.604098        43.6497 
 204   0.0000       1.620466        44.0951 
 205   0.0000       1.634263        44.4706 
 206   0.0000       1.639755        44.6200 
 207   0.0000       1.653816        45.0026 
 208   0.0000       1.664374        45.2899 
 209   0.0000       1.670101        45.4458 
 210   0.0000       1.677148        45.6375 
 211   0.0000       1.686385        45.8889 
 212   0.0000       1.689926        45.9852 
 213   0.0000       1.705790        46.4169 
 214   0.0000       1.725881        46.9636 
 215   0.0000       1.727873        47.0178 
 216   0.0000       1.748383        47.5759 
 217   0.0000       1.766476        48.0683 
 218   0.0000       1.779954        48.4350 
 219   0.0000       1.806882        49.1678 
 220   0.0000       1.817953        49.4690 
 221   0.0000       1.855096        50.4797 
 222   0.0000       1.863045        50.6960 
 223   0.0000       1.869505        50.8718 
 224   0.0000       1.887094        51.3504 
 225   0.0000       1.923033        52.3284 
 226   0.0000       1.944032        52.8998 
 227   0.0000       1.970037        53.6074 
 228   0.0000       1.985616        54.0313 
 229   0.0000       2.005172        54.5635 
 230   0.0000       2.018561        54.9278 
 231   0.0000       2.057913        55.9987 
 232   0.0000       2.073978        56.4358 
 233   0.0000       2.086292        56.7709 
 234   0.0000       2.090914        56.8967 
 235   0.0000       2.096726        57.0548 
 236   0.0000       2.121850        57.7385 
 237   0.0000       2.136534        58.1380 
 238   0.0000       2.146003        58.3957 
 239   0.0000       2.160473        58.7895 
 240   0.0000       2.171064        59.0777 
 241   0.0000       2.189359        59.5755 
 242   0.0000       2.201902        59.9168 
 243   0.0000       2.213514        60.2328 
 244   0.0000       2.246855        61.1400 
 245   0.0000       2.289110        62.2898 
 246   0.0000       2.300731        62.6061 
 247   0.0000       2.319426        63.1148 
 248   0.0000       2.328696        63.3670 
 249   0.0000       2.342547        63.7439 
 250   0.0000       2.353153        64.0326 
 251   0.0000       2.380987        64.7900 
 252   0.0000       2.408459        65.5375 
 253   0.0000       2.425643        66.0051 
 254   0.0000       2.456763        66.8519 
 255   0.0000       2.474488        67.3342 
 256   0.0000       2.503575        68.1257 
 257   0.0000       2.504921        68.1624 
 258   0.0000       2.560675        69.6795 
 259   0.0000       2.562723        69.7352 
 260   0.0000       2.569321        69.9148 
 261   0.0000       2.581678        70.2510 
 262   0.0000       2.586910        70.3934 
 263   0.0000       2.622170        71.3529 
 264   0.0000       2.636823        71.7516 
 265   0.0000       2.652719        72.1841 
 266   0.0000       2.653761        72.2125 
 267   0.0000       2.668440        72.6120 
 268   0.0000       2.679707        72.9185 
 269   0.0000       2.716136        73.9098 
 270   0.0000       2.731419        74.3257 
 271   0.0000       2.741970        74.6128 
 272   0.0000       2.765760        75.2602 
 273   0.0000       2.787047        75.8394 
 274   0.0000       2.795960        76.0819 
 275   0.0000       2.810863        76.4875 
 276   0.0000       2.812223        76.5245 
 277   0.0000       2.835030        77.1451 
 278   0.0000       2.840726        77.3001 
 279   0.0000       2.872182        78.1561 
 280   0.0000       2.880347        78.3782 
 281   0.0000       2.892773        78.7164 
 282   0.0000       2.893702        78.7416 
 283   0.0000       2.904885        79.0459 
 284   0.0000       2.910670        79.2034 
 285   0.0000       2.922835        79.5344 
 286   0.0000       2.932850        79.8069 
 287   0.0000       2.953083        80.3575 
 288   0.0000       2.960478        80.5587 
 289   0.0000       2.968373        80.7735 
 290   0.0000       2.976513        80.9950 
 291   0.0000       2.983718        81.1911 
 292   0.0000       3.005666        81.7883 
 293   0.0000       3.014189        82.0203 
 294   0.0000       3.025175        82.3192 
 295   0.0000       3.031123        82.4811 
 296   0.0000       3.047615        82.9298 
 297   0.0000       3.058266        83.2197 
 298   0.0000       3.070554        83.5540 
 299   0.0000       3.081229        83.8445 
 300   0.0000       3.084979        83.9465 
 301   0.0000       3.101268        84.3898 
 302   0.0000       3.104469        84.4769 
 303   0.0000       3.113282        84.7167 
 304   0.0000       3.127072        85.0919 
 305   0.0000       3.132848        85.2491 
 306   0.0000       3.144446        85.5647 
 307   0.0000       3.159141        85.9646 
 308   0.0000       3.161431        86.0269 
 309   0.0000       3.170878        86.2840 
 310   0.0000       3.194824        86.9356 
 311   0.0000       3.209789        87.3428 
 312   0.0000       3.220024        87.6213 
 313   0.0000       3.233292        87.9823 
 314   0.0000       3.244059        88.2753 
 315   0.0000       3.253956        88.5446 
 316   0.0000       3.271499        89.0220 
 317   0.0000       3.281280        89.2882 
 318   0.0000       3.291540        89.5673 
 319   0.0000       3.294402        89.6452 
 320   0.0000       3.302222        89.8580 
 321   0.0000       3.334804        90.7446 
 322   0.0000       3.335494        90.7634 
 323   0.0000       3.349449        91.1431 
 324   0.0000       3.359634        91.4203 
 325   0.0000       3.368777        91.6691 
 326   0.0000       3.369947        91.7009 
 327   0.0000       3.375138        91.8422 
 328   0.0000       3.386992        92.1647 
 329   0.0000       3.390360        92.2564 
 330   0.0000       3.403967        92.6267 
 331   0.0000       3.407667        92.7273 
 332   0.0000       3.425566        93.2144 
 333   0.0000       3.440534        93.6217 
 334   0.0000       3.444073        93.7180 
 335   0.0000       3.447301        93.8058 
 336   0.0000       3.473966        94.5314 
 337   0.0000       3.475372        94.5697 
 338   0.0000       3.486181        94.8638 
 339   0.0000       3.499509        95.2265 
 340   0.0000       3.507026        95.4310 
 341   0.0000       3.514974        95.6473 
 342   0.0000       3.533591        96.1539 
 343   0.0000       3.550704        96.6196 
 344   0.0000       3.552428        96.6665 
 345   0.0000       3.564720        97.0010 
 346   0.0000       3.573803        97.2481 
 347   0.0000       3.576287        97.3157 
 348   0.0000       3.584610        97.5422 
 349   0.0000       3.596749        97.8725 
 350   0.0000       3.612644        98.3050 
 351   0.0000       3.627395        98.7064 
 352   0.0000       3.646908        99.2374 
 353   0.0000       3.650698        99.3405 
 354   0.0000       3.666467        99.7696 
 355   0.0000       3.667282        99.7918 
 356   0.0000       3.692343       100.4738 
 357   0.0000       3.705723       100.8379 
 358   0.0000       3.725732       101.3823 
 359   0.0000       3.730573       101.5141 
 360   0.0000       3.742087       101.8274 
 361   0.0000       3.755329       102.1877 
 362   0.0000       3.764848       102.4467 
 363   0.0000       3.772712       102.6607 
 364   0.0000       3.777341       102.7867 
 365   0.0000       3.798216       103.3547 
 366   0.0000       3.806631       103.5837 
 367   0.0000       3.823286       104.0369 
 368   0.0000       3.825605       104.1000 
 369   0.0000       3.834127       104.3319 
 370   0.0000       3.848757       104.7300 
 371   0.0000       3.867474       105.2393 
 372   0.0000       3.883818       105.6841 
 373   0.0000       3.898913       106.0948 
 374   0.0000       3.908995       106.3691 
 375   0.0000       3.925990       106.8316 
 376   0.0000       3.941914       107.2649 
 377   0.0000       3.954743       107.6140 
 378   0.0000       3.968276       107.9823 
 379   0.0000       3.979393       108.2848 
 380   0.0000       3.999237       108.8248 
 381   0.0000       4.013133       109.2029 
 382   0.0000       4.030719       109.6814 
 383   0.0000       4.040331       109.9430 
 384   0.0000       4.051954       110.2593 
 385   0.0000       4.059262       110.4581 
 386   0.0000       4.066774       110.6625 
 387   0.0000       4.077256       110.9478 
 388   0.0000       4.092983       111.3757 
 389   0.0000       4.101312       111.6024 
 390   0.0000       4.128259       112.3356 
 391   0.0000       4.131943       112.4359 
 392   0.0000       4.145705       112.8104 
 393   0.0000       4.154656       113.0539 
 394   0.0000       4.162880       113.2777 
 395   0.0000       4.178761       113.7099 
 396   0.0000       4.195139       114.1555 
 397   0.0000       4.198101       114.2361 
 398   0.0000       4.214542       114.6835 
 399   0.0000       4.220073       114.8340 
 400   0.0000       4.223158       114.9180 
 401   0.0000       4.229892       115.1012 
 402   0.0000       4.233010       115.1860 
 403   0.0000       4.254635       115.7745 
 404   0.0000       4.270012       116.1929 
 405   0.0000       4.280828       116.4872 
 406   0.0000       4.283949       116.5722 
 407   0.0000       4.308511       117.2406 
 408   0.0000       4.310552       117.2961 
 409   0.0000       4.318550       117.5137 
 410   0.0000       4.344413       118.2175 
 411   0.0000       4.360724       118.6613 
 412   0.0000       4.371746       118.9613 
 413   0.0000       4.416398       120.1763 
 414   0.0000       4.423639       120.3734 
 415   0.0000       4.452177       121.1499 
 416   0.0000       4.457874       121.3049 
 417   0.0000       4.466547       121.5409 
 418   0.0000       4.478017       121.8530 
 419   0.0000       4.492407       122.2446 
 420   0.0000       4.510581       122.7391 
 421   0.0000       4.517932       122.9392 
 422   0.0000       4.541579       123.5827 
 423   0.0000       4.601342       125.2089 
 424   0.0000       4.607753       125.3833 
 425   0.0000       4.616910       125.6325 
 426   0.0000       4.658296       126.7587 
 427   0.0000       4.672610       127.1482 
 428   0.0000       4.678601       127.3112 
 429   0.0000       4.684707       127.4774 
 430   0.0000       4.693947       127.7288 
 431   0.0000       4.706521       128.0709 
 432   0.0000       4.718447       128.3955 
 433   0.0000       4.749834       129.2496 
 434   0.0000       4.765259       129.6693 
 435   0.0000       4.772327       129.8616 
 436   0.0000       4.784255       130.1862 
 437   0.0000       4.798075       130.5623 
 438   0.0000       4.815433       131.0346 
 439   0.0000       4.823350       131.2500 
 440   0.0000       4.832896       131.5098 
 441   0.0000       4.838070       131.6506 
 442   0.0000       4.850283       131.9829 
 443   0.0000       4.860250       132.2541 
 444   0.0000       4.869198       132.4976 
 445   0.0000       4.875909       132.6802 
 446   0.0000       4.893414       133.1566 
 447   0.0000       4.917232       133.8047 
 448   0.0000       4.967743       135.1792 
 449   0.0000       5.023910       136.7075 
 450   0.0000       5.040107       137.1483 
 451   0.0000       5.096653       138.6870 
 452   0.0000       5.128716       139.5595 
 453   0.0000       5.150923       140.1637 
 454   0.0000       5.179979       140.9544 
 455   0.0000       5.206598       141.6787 
 456   0.0000       5.209159       141.7484 
 457   0.0000       5.214961       141.9063 
 458   0.0000       5.227982       142.2606 
 459   0.0000       5.265719       143.2875 
 460   0.0000       5.268816       143.3718 
 461   0.0000       5.274493       143.5263 
 462   0.0000       5.288943       143.9194 
 463   0.0000       5.299246       144.1998 
 464   0.0000       5.304914       144.3541 
 465   0.0000       5.312511       144.5608 
 466   0.0000       5.325818       144.9229 
 467   0.0000       5.343563       145.4057 
 468   0.0000       5.351680       145.6266 
 469   0.0000       5.362885       145.9315 
 470   0.0000       5.374945       146.2597 
 471   0.0000       5.387800       146.6095 
 472   0.0000       5.395390       146.8160 
 473   0.0000       5.408178       147.1640 
 474   0.0000       5.414532       147.3369 
 475   0.0000       5.432578       147.8280 
 476   0.0000       5.447748       148.2408 
 477   0.0000       5.451912       148.3541 
 478   0.0000       5.463670       148.6740 
 479   0.0000       5.477078       149.0389 
 480   0.0000       5.516806       150.1199 
 481   0.0000       5.531107       150.5091 
 482   0.0000       5.535857       150.6383 
 483   0.0000       5.544911       150.8847 
 484   0.0000       5.558390       151.2515 
 485   0.0000       5.579404       151.8233 
 486   0.0000       5.592203       152.1716 
 487   0.0000       5.597340       152.3114 
 488   0.0000       5.627620       153.1353 
 489   0.0000       5.646687       153.6542 
 490   0.0000       5.665760       154.1732 
 491   0.0000       5.683493       154.6557 
 492   0.0000       5.691993       154.8870 
 493   0.0000       5.708614       155.3393 
 494   0.0000       5.726881       155.8363 
 495   0.0000       5.733402       156.0138 
 496   0.0000       5.745209       156.3351 
 497   0.0000       5.753828       156.5696 
 498   0.0000       5.758054       156.6846 
 499   0.0000       5.766202       156.9063 
 500   0.0000       5.785685       157.4365 
 501   0.0000       5.800128       157.8295 
 502   0.0000       5.884559       160.1270 
 503   0.0000       5.942073       161.6920 
 504   0.0000       6.035262       164.2278 
 505   0.0000       6.082120       165.5029 
 506   0.0000       6.091234       165.7509 
 507   0.0000       6.102738       166.0639 
 508   0.0000       6.177208       168.0904 
 509   0.0000       6.229221       169.5057 
 510   0.0000       6.320050       171.9773 
 511   0.0000       6.376035       173.5007 
 512   0.0000       6.397196       174.0766 
 513   0.0000       6.459137       175.7621 
 514   0.0000       6.468860       176.0266 
 515   0.0000       6.499543       176.8616 
 516   0.0000       6.553999       178.3434 
 517   0.0000       6.570789       178.8003 
 518   0.0000       6.594943       179.4575 
 519   0.0000       6.613491       179.9622 
 520   0.0000       6.620539       180.1540 
 521   0.0000       6.660963       181.2540 
 522   0.0000       6.687413       181.9737 
 523   0.0000       6.712851       182.6660 
 524   0.0000       6.793868       184.8706 
 525   0.0000       6.832756       185.9287 
 526   0.0000       6.867082       186.8628 
 527   0.0000       6.872779       187.0178 
 528   0.0000       6.948911       189.0895 
 529   0.0000       6.964175       189.5048 
 530   0.0000       6.976964       189.8528 
 531   0.0000       7.066347       192.2851 
 532   0.0000       7.128963       193.9889 
 533   0.0000       7.143152       194.3750 
 534   0.0000       7.221006       196.4936 
 535   0.0000       7.253446       197.3763 
 536   0.0000       7.347620       199.9389 
 537   0.0000       7.380007       200.8202 
 538   0.0000       7.519543       204.6172 
 539   0.0000       7.593006       206.6162 
 540   0.0000       7.618568       207.3118 
 541   0.0000       7.652987       208.2484 
 542   0.0000      23.067609       627.7016 
 543   0.0000      23.594269       642.0327 
 544   0.0000      23.755440       646.4184 
 545   0.0000      23.903967       650.4600 
 546   0.0000      23.973693       652.3573 
 547   0.0000      23.976508       652.4340 
 548   0.0000      24.168692       657.6635 
 549   0.0000      33.322889       906.7619 
 550   0.0000      44.344467      1206.6743 
 551   0.0000      44.369021      1207.3424 
 552   0.0000      44.439618      1209.2635 
 553   0.0000      44.988149      1224.1898 

                    ********************************
                    * MULLIKEN POPULATION ANALYSIS *
                    ********************************

-----------------------
MULLIKEN ATOMIC CHARGES
-----------------------
   0 C :   -0.324121
   1 C :    0.170897
   2 C :   -0.350839
   3 C :   -0.353684
   4 O :   -0.309818
   5 C :    0.468849
   6 O :   -0.439406
   7 N :   -0.225375
   8 C :   -0.101818
   9 C :    0.317485
  10 O :   -0.346379
  11 O :   -0.273244
  12 H :    0.119601
  13 H :    0.120007
  14 H :    0.115471
  15 H :    0.120271
  16 H :    0.128407
  17 H :    0.121794
  18 H :    0.121569
  19 H :    0.121076
  20 H :    0.128896
  21 H :    0.147966
  22 H :    0.159347
  23 H :    0.143305
  24 H :    0.219744
Sum of atomic charges:   -0.0000000

--------------------------------
MULLIKEN REDUCED ORBITAL CHARGES
--------------------------------
  0 C s       :     3.256005  s :     3.256005
      pz      :     0.960670  p :     3.008736
      px      :     0.984426
      py      :     1.063640
      dz2     :     0.006634  d :     0.056639
      dxz     :     0.008145
      dyz     :     0.021398
      dx2y2   :     0.011492
      dxy     :     0.008970
      f0      :     0.000195  f :     0.002742
      f+1     :     0.000584
      f-1     :     0.000261
      f+2     :     0.000763
      f-2     :     0.000692
      f+3     :     0.000090
      f-3     :     0.000158
  1 C s       :     3.125697  s :     3.125697
      pz      :     0.875342  p :     2.488191
      px      :     0.721108
      py      :     0.891741
      dz2     :     0.036880  d :     0.201541
      dxz     :     0.042738
      dyz     :     0.042270
      dx2y2   :     0.039701
      dxy     :     0.039952
      f0      :     0.001159  f :     0.013674
      f+1     :     0.002195
      f-1     :     0.001652
      f+2     :     0.002466
      f-2     :     0.002403
      f+3     :     0.002106
      f-3     :     0.001694
  2 C s       :     3.260529  s :     3.260529
      pz      :     1.012733  p :     3.030408
      px      :     1.042227
      py      :     0.975448
      dz2     :     0.009654  d :     0.057257
      dxz     :     0.015091
      dyz     :     0.012073
      dx2y2   :     0.014336
      dxy     :     0.006103
      f0      :     0.000127  f :     0.002646
      f+1     :     0.000213
      f-1     :     0.000602
      f+2     :     0.000735
      f-2     :     0.000576
      f+3     :     0.000196
      f-3     :     0.000196
  3 C s       :     3.262222  s :     3.262222
      pz      :     1.038957  p :     3.031517
      px      :     1.068331
      py      :     0.924229
      dz2     :     0.008279  d :     0.057307
      dxz     :     0.015250
      dyz     :     0.013358
      dx2y2   :     0.008357
      dxy     :     0.012063
      f0      :     0.000076  f :     0.002639
      f+1     :     0.000122
      f-1     :     0.000623
      f+2     :     0.000638
      f-2     :     0.000576
      f+3     :     0.000309
      f-3     :     0.000296
  4 O s       :     3.765683  s :     3.765683
      pz      :     1.587232  p :     4.504807
      px      :     1.234883
      py      :     1.682692
      dz2     :     0.004860  d :     0.037198
      dxz     :     0.015056
      dyz     :     0.004770
      dx2y2   :     0.006565
      dxy     :     0.005946
      f0      :     0.000146  f :     0.002130
      f+1     :     0.000320
      f-1     :     0.000044
      f+2     :     0.000432
      f-2     :     0.000323
      f+3     :     0.000404
      f-3     :     0.000460
  5 C s       :     2.986961  s :     2.986961
      pz      :     0.741464  p :     2.213193
      px      :     0.711331
      py      :     0.760397
      dz2     :     0.051790  d :     0.302091
      dxz     :     0.103019
      dyz     :     0.081927
      dx2y2   :     0.026637
      dxy     :     0.038717
      f0      :     0.004130  f :     0.028907
      f+1     :     0.010083
      f-1     :     0.004548
      f+2     :     0.002741
      f-2     :     0.003359
      f+3     :     0.002174
      f-3     :     0.001871
  6 O s       :     3.815702  s :     3.815702
      pz      :     1.331211  p :     4.591230
      px      :     1.746743
      py      :     1.513276
      dz2     :     0.011902  d :     0.030503
      dxz     :     0.007775
      dyz     :     0.010197
      dx2y2   :     0.000310
      dxy     :     0.000320
      f0      :     0.000699  f :     0.001970
      f+1     :     0.000571
      f-1     :     0.000627
      f+2     :     0.000031
      f-2     :     0.000033
      f+3     :     0.000005
      f-3     :     0.000004
  7 N s       :     3.438261  s :     3.438261
      pz      :     1.064118  p :     3.735021
      px      :     1.064122
      py      :     1.606782
      dz2     :     0.008116  d :     0.048516
      dxz     :     0.014837
      dyz     :     0.005368
      dx2y2   :     0.009790
      dxy     :     0.010406
      f0      :     0.000309  f :     0.003576
      f+1     :     0.000671
      f-1     :     0.000160
      f+2     :     0.000642
      f-2     :     0.000394
      f+3     :     0.000759
      f-3     :     0.000640
  8 C s       :     3.185370  s :     3.185370
      pz      :     1.059440  p :     2.807019
      px      :     0.806523
      py      :     0.941056
      dz2     :     0.016178  d :     0.101993
      dxz     :     0.017957
      dyz     :     0.018544
      dx2y2   :     0.013045
      dxy     :     0.036268
      f0      :     0.000585  f :     0.007437
      f+1     :     0.000952
      f-1     :     0.000358
      f+2     :     0.001127
      f-2     :     0.000814
      f+3     :     0.001429
      f-3     :     0.002172
  9 C s       :     3.075430  s :     3.075430
      pz      :     0.721827  p :     2.327831
      px      :     0.717732
      py      :     0.888272
      dz2     :     0.034518  d :     0.254854
      dxz     :     0.036202
      dyz     :     0.046745
      dx2y2   :     0.075448
      dxy     :     0.061941
      f0      :     0.001658  f :     0.024400
      f+1     :     0.003185
      f-1     :     0.002198
      f+2     :     0.003044
      f-2     :     0.003343
      f+3     :     0.003471
      f-3     :     0.007501
 10 O s       :     3.785780  s :     3.785780
      pz      :     1.451620  p :     4.527122
      px      :     1.619861
      py      :     1.455641
      dz2     :     0.003943  d :     0.031456
      dxz     :     0.002546
      dyz     :     0.008776
      dx2y2   :     0.007767
      dxy     :     0.008424
      f0      :     0.000154  f :     0.002021
      f+1     :     0.000075
      f-1     :     0.000313
      f+2     :     0.000236
      f-2     :     0.000312
      f+3     :     0.000435
      f-3     :     0.000497
 11 O s       :     3.736169  s :     3.736169
      pz      :     1.676152  p :     4.510211
      px      :     1.402714
      py      :     1.431345
      dz2     :     0.003874  d :     0.025601
      dxz     :     0.006288
      dyz     :     0.001910
      dx2y2   :     0.008813
      dxy     :     0.004716
      f0      :     0.000188  f :     0.001264
      f+1     :     0.000309
      f-1     :     0.000062
      f+2     :     0.000276
      f-2     :     0.000161
      f+3     :     0.000175
      f-3     :     0.000093
 12 H s       :     0.848355  s :     0.848355
      pz      :     0.009667  p :     0.029847
      px      :     0.007914
      py      :     0.012267
      dz2     :     0.000443  d :     0.002196
      dxz     :     0.000284
      dyz     :     0.000535
      dx2y2   :     0.000428
      dxy     :     0.000506
 13 H s       :     0.847893  s :     0.847893
      pz      :     0.010481  p :     0.029904
      px      :     0.009355
      py      :     0.010067
      dz2     :     0.000562  d :     0.002197
      dxz     :     0.000391
      dyz     :     0.000451
      dx2y2   :     0.000407
      dxy     :     0.000385
 14 H s       :     0.853142  s :     0.853142
      pz      :     0.009592  p :     0.029211
      px      :     0.011500
      py      :     0.008119
      dz2     :     0.000287  d :     0.002176
      dxz     :     0.000651
      dyz     :     0.000208
      dx2y2   :     0.000516
      dxy     :     0.000515
 15 H s       :     0.848493  s :     0.848493
      pz      :     0.009931  p :     0.029080
      px      :     0.007068
      py      :     0.012080
      dz2     :     0.000455  d :     0.002157
      dxz     :     0.000213
      dyz     :     0.000563
      dx2y2   :     0.000422
      dxy     :     0.000504
 16 H s       :     0.838252  s :     0.838252
      pz      :     0.010620  p :     0.031117
      px      :     0.012521
      py      :     0.007976
      dz2     :     0.000612  d :     0.002223
      dxz     :     0.000475
      dyz     :     0.000531
      dx2y2   :     0.000315
      dxy     :     0.000290
 17 H s       :     0.846023  s :     0.846023
      pz      :     0.008703  p :     0.029977
      px      :     0.011958
      py      :     0.009316
      dz2     :     0.000274  d :     0.002206
      dxz     :     0.000629
      dyz     :     0.000189
      dx2y2   :     0.000496
      dxy     :     0.000618
 18 H s       :     0.847342  s :     0.847342
      pz      :     0.010646  p :     0.028934
      px      :     0.008427
      py      :     0.009862
      dz2     :     0.000576  d :     0.002155
      dxz     :     0.000369
      dyz     :     0.000399
      dx2y2   :     0.000448
      dxy     :     0.000363
 19 H s       :     0.846718  s :     0.846718
      pz      :     0.008516  p :     0.030001
      px      :     0.012513
      py      :     0.008972
      dz2     :     0.000243  d :     0.002204
      dxz     :     0.000566
      dyz     :     0.000240
      dx2y2   :     0.000632
      dxy     :     0.000522
 20 H s       :     0.837595  s :     0.837595
      pz      :     0.010694  p :     0.031283
      px      :     0.010867
      py      :     0.009722
      dz2     :     0.000599  d :     0.002227
      dxz     :     0.000457
      dyz     :     0.000568
      dx2y2   :     0.000269
      dxy     :     0.000334
 21 H s       :     0.781361  s :     0.781361
      pz      :     0.028839  p :     0.064407
      px      :     0.011870
      py      :     0.023698
      dz2     :     0.002189  d :     0.006266
      dxz     :     0.001420
      dyz     :     0.002275
      dx2y2   :     0.000231
      dxy     :     0.000151
 22 H s       :     0.807532  s :     0.807532
      pz      :     0.011805  p :     0.030629
      px      :     0.008382
      py      :     0.010442
      dz2     :     0.000637  d :     0.002492
      dxz     :     0.000424
      dyz     :     0.000405
      dx2y2   :     0.000673
      dxy     :     0.000353
 23 H s       :     0.821317  s :     0.821317
      pz      :     0.014670  p :     0.032726
      px      :     0.007770
      py      :     0.010285
      dz2     :     0.000766  d :     0.002653
      dxz     :     0.000801
      dyz     :     0.000657
      dx2y2   :     0.000235
      dxy     :     0.000194
 24 H s       :     0.694551  s :     0.694551
      pz      :     0.025355  p :     0.076285
      px      :     0.018696
      py      :     0.032234
      dz2     :     0.001061  d :     0.009420
      dxz     :     0.000344
      dyz     :     0.002601
      dx2y2   :     0.002954
      dxy     :     0.002461


                     *******************************
                     * LOEWDIN POPULATION ANALYSIS *
                     *******************************

----------------------
LOEWDIN ATOMIC CHARGES
----------------------
   0 C :    0.016645
   1 C :   -0.249328
   2 C :    0.019042
   3 C :    0.019070
   4 O :    0.295276
   5 C :   -0.559475
   6 O :    0.066433
   7 N :    0.299807
   8 C :   -0.060127
   9 C :   -0.443410
  10 O :    0.100303
  11 O :    0.354676
  12 H :    0.016827
  13 H :    0.017087
  14 H :    0.022034
  15 H :    0.017775
  16 H :    0.011212
  17 H :    0.022675
  18 H :    0.018334
  19 H :    0.022524
  20 H :    0.011503
  21 H :   -0.014985
  22 H :    0.040806
  23 H :    0.039227
  24 H :   -0.083928

-------------------------------
LOEWDIN REDUCED ORBITAL CHARGES
-------------------------------
  0 C s       :     2.702351  s :     2.702351
      pz      :     0.967263  p :     2.966113
      px      :     0.985960
      py      :     1.012889
      dz2     :     0.034532  d :     0.285401
      dxz     :     0.066408
      dyz     :     0.091679
      dx2y2   :     0.053614
      dxy     :     0.039167
      f0      :     0.004860  f :     0.029491
      f+1     :     0.005230
      f-1     :     0.003009
      f+2     :     0.004716
      f-2     :     0.004801
      f+3     :     0.003016
      f-3     :     0.003859
  1 C s       :     2.702724  s :     2.702724
      pz      :     0.964418  p :     2.751232
      px      :     0.811900
      py      :     0.974914
      dz2     :     0.108626  d :     0.700850
      dxz     :     0.171350
      dyz     :     0.150008
      dx2y2   :     0.138692
      dxy     :     0.132174
      f0      :     0.011323  f :     0.094522
      f+1     :     0.014459
      f-1     :     0.012070
      f+2     :     0.013879
      f-2     :     0.015076
      f+3     :     0.014386
      f-3     :     0.013329
  2 C s       :     2.700328  s :     2.700328
      pz      :     0.991802  p :     2.970775
      px      :     1.006632
      py      :     0.972341
      dz2     :     0.041348  d :     0.280619
      dxz     :     0.066606
      dyz     :     0.072215
      dx2y2   :     0.064276
      dxy     :     0.036174
      f0      :     0.004451  f :     0.029236
      f+1     :     0.003716
      f-1     :     0.005024
      f+2     :     0.004732
      f-2     :     0.003645
      f+3     :     0.003600
      f-3     :     0.004068
  3 C s       :     2.700144  s :     2.700144
      pz      :     1.002777  p :     2.971120
      px      :     1.013697
      py      :     0.954646
      dz2     :     0.035974  d :     0.280420
      dxz     :     0.068577
      dyz     :     0.070984
      dx2y2   :     0.051431
      dxy     :     0.053454
      f0      :     0.003804  f :     0.029246
      f+1     :     0.003363
      f-1     :     0.005384
      f+2     :     0.003959
      f-2     :     0.004188
      f+3     :     0.003912
      f-3     :     0.004636
  4 O s       :     3.232686  s :     3.232686
      pz      :     1.543069  p :     4.365000
      px      :     1.270211
      py      :     1.551720
      dz2     :     0.014166  d :     0.100882
      dxz     :     0.035986
      dyz     :     0.009104
      dx2y2   :     0.022644
      dxy     :     0.018983
      f0      :     0.000486  f :     0.006156
      f+1     :     0.001708
      f-1     :     0.000201
      f+2     :     0.001084
      f-2     :     0.000908
      f+3     :     0.000873
      f-3     :     0.000897
  5 C s       :     2.719292  s :     2.719292
      pz      :     0.984008  p :     2.601483
      px      :     0.853613
      py      :     0.763862
      dz2     :     0.232961  d :     1.059918
      dxz     :     0.369939
      dyz     :     0.233155
      dx2y2   :     0.104503
      dxy     :     0.119360
      f0      :     0.026475  f :     0.178782
      f+1     :     0.062906
      f-1     :     0.025525
      f+2     :     0.019306
      f-2     :     0.021306
      f+3     :     0.011786
      f-3     :     0.011477
  6 O s       :     3.387169  s :     3.387169
      pz      :     1.482457  p :     4.474336
      px      :     1.581889
      py      :     1.409991
      dz2     :     0.033287  d :     0.065780
      dxz     :     0.016911
      dyz     :     0.014530
      dx2y2   :     0.000549
      dxy     :     0.000503
      f0      :     0.002840  f :     0.006281
      f+1     :     0.001898
      f-1     :     0.001342
      f+2     :     0.000097
      f-2     :     0.000089
      f+3     :     0.000008
      f-3     :     0.000007
  7 N s       :     2.872702  s :     2.872702
      pz      :     1.122185  p :     3.599498
      px      :     1.097691
      py      :     1.379622
      dz2     :     0.052908  d :     0.212308
      dxz     :     0.068280
      dyz     :     0.020461
      dx2y2   :     0.035055
      dxy     :     0.035604
      f0      :     0.001731  f :     0.015685
      f+1     :     0.003737
      f-1     :     0.001233
      f+2     :     0.002104
      f-2     :     0.002715
      f+3     :     0.001914
      f-3     :     0.002250
  8 C s       :     2.696342  s :     2.696342
      pz      :     1.012478  p :     2.860016
      px      :     0.872084
      py      :     0.975454
      dz2     :     0.066229  d :     0.446174
      dxz     :     0.082822
      dyz     :     0.069355
      dx2y2   :     0.093179
      dxy     :     0.134588
      f0      :     0.005409  f :     0.057595
      f+1     :     0.007981
      f-1     :     0.004991
      f+2     :     0.007688
      f-2     :     0.007402
      f+3     :     0.010200
      f-3     :     0.013925
  9 C s       :     2.757801  s :     2.757801
      pz      :     0.736713  p :     2.600443
      px      :     0.836362
      py      :     1.027368
      dz2     :     0.114211  d :     0.932270
      dxz     :     0.144322
      dyz     :     0.152895
      dx2y2   :     0.283352
      dxy     :     0.237490
      f0      :     0.010446  f :     0.152896
      f+1     :     0.013740
      f-1     :     0.013808
      f+2     :     0.019857
      f-2     :     0.024016
      f+3     :     0.022308
      f-3     :     0.048719
 10 O s       :     3.391496  s :     3.391496
      pz      :     1.374011  p :     4.434298
      px      :     1.534515
      py      :     1.525772
      dz2     :     0.008002  d :     0.067495
      dxz     :     0.005552
      dyz     :     0.013754
      dx2y2   :     0.020346
      dxy     :     0.019841
      f0      :     0.000545  f :     0.006408
      f+1     :     0.000233
      f-1     :     0.000792
      f+2     :     0.000590
      f-2     :     0.001048
      f+3     :     0.001576
      f-3     :     0.001624
 11 O s       :     3.221134  s :     3.221134
      pz      :     1.533066  p :     4.347703
      px      :     1.381027
      py      :     1.433610
      dz2     :     0.008794  d :     0.071128
      dxz     :     0.016276
      dyz     :     0.003982
      dx2y2   :     0.024327
      dxy     :     0.017750
      f0      :     0.000389  f :     0.005359
      f+1     :     0.000600
      f-1     :     0.000286
      f+2     :     0.001045
      f-2     :     0.000592
      f+3     :     0.001197
      f-3     :     0.001249
 12 H s       :     0.806912  s :     0.806912
      pz      :     0.046188  p :     0.146120
      px      :     0.039832
      py      :     0.060100
      dz2     :     0.005385  d :     0.030142
      dxz     :     0.003131
      dyz     :     0.008416
      dx2y2   :     0.005891
      dxy     :     0.007318
 13 H s       :     0.806647  s :     0.806647
      pz      :     0.049970  p :     0.146119
      px      :     0.042374
      py      :     0.053775
      dz2     :     0.006806  d :     0.030147
      dxz     :     0.005011
      dyz     :     0.007234
      dx2y2   :     0.006179
      dxy     :     0.004917
 14 H s       :     0.801976  s :     0.801976
      pz      :     0.041536  p :     0.145901
      px      :     0.060971
      py      :     0.043394
      dz2     :     0.003966  d :     0.030088
      dxz     :     0.007898
      dyz     :     0.002527
      dx2y2   :     0.007866
      dxy     :     0.007831
 15 H s       :     0.805416  s :     0.805416
      pz      :     0.045820  p :     0.146717
      px      :     0.040953
      py      :     0.059944
      dz2     :     0.005518  d :     0.030092
      dxz     :     0.003097
      dyz     :     0.007858
      dx2y2   :     0.006345
      dxy     :     0.007274
 16 H s       :     0.803072  s :     0.803072
      pz      :     0.057871  p :     0.155046
      px      :     0.057794
      py      :     0.039381
      dz2     :     0.008821  d :     0.030671
      dxz     :     0.007627
      dyz     :     0.006441
      dx2y2   :     0.003811
      dxy     :     0.003970
 17 H s       :     0.800295  s :     0.800295
      pz      :     0.043505  p :     0.146994
      px      :     0.062480
      py      :     0.041010
      dz2     :     0.003742  d :     0.030036
      dxz     :     0.008710
      dyz     :     0.002363
      dx2y2   :     0.007797
      dxy     :     0.007423
 18 H s       :     0.804833  s :     0.804833
      pz      :     0.049966  p :     0.146713
      px      :     0.045590
      py      :     0.051157
      dz2     :     0.006769  d :     0.030120
      dxz     :     0.005219
      dyz     :     0.006673
      dx2y2   :     0.006131
      dxy     :     0.005328
 19 H s       :     0.800477  s :     0.800477
      pz      :     0.043330  p :     0.146964
      px      :     0.060689
      py      :     0.042944
      dz2     :     0.003564  d :     0.030035
      dxz     :     0.008279
      dyz     :     0.002671
      dx2y2   :     0.007603
      dxy     :     0.007919
 20 H s       :     0.802890  s :     0.802890
      pz      :     0.058710  p :     0.154924
      px      :     0.054044
      py      :     0.042169
      dz2     :     0.009001  d :     0.030684
      dxz     :     0.007866
      dyz     :     0.006331
      dx2y2   :     0.003808
      dxy     :     0.003678
 21 H s       :     0.710409  s :     0.710409
      pz      :     0.103348  p :     0.243018
      px      :     0.045522
      py      :     0.094148
      dz2     :     0.020396  d :     0.061558
      dxz     :     0.015285
      dyz     :     0.022167
      dx2y2   :     0.002316
      dxy     :     0.001395
 22 H s       :     0.783956  s :     0.783956
      pz      :     0.051239  p :     0.144870
      px      :     0.044047
      py      :     0.049584
      dz2     :     0.007067  d :     0.030369
      dxz     :     0.006225
      dyz     :     0.005377
      dx2y2   :     0.006100
      dxy     :     0.005601
 23 H s       :     0.782053  s :     0.782053
      pz      :     0.068156  p :     0.147788
      px      :     0.031887
      py      :     0.047746
      dz2     :     0.010082  d :     0.030932
      dxz     :     0.007178
      dyz     :     0.009259
      dx2y2   :     0.002607
      dxy     :     0.001806
 24 H s       :     0.667673  s :     0.667673
      pz      :     0.086283  p :     0.320281
      px      :     0.074229
      py      :     0.159769
      dz2     :     0.008798  d :     0.095973
      dxz     :     0.004317
      dyz     :     0.027982
      dx2y2   :     0.028745
      dxy     :     0.026131


                      *****************************
                      * MAYER POPULATION ANALYSIS *
                      *****************************

  NA   - Mulliken gross atomic population
  ZA   - Total nuclear charge
  QA   - Mulliken gross atomic charge
  VA   - Mayer's total valence
  BVA  - Mayer's bonded valence
  FA   - Mayer's free valence

  ATOM       NA         ZA         QA         VA         BVA        FA
  0 C      6.3241     6.0000    -0.3241     3.8320     3.8320     0.0000
  1 C      5.8291     6.0000     0.1709     3.9098     3.9098     0.0000
  2 C      6.3508     6.0000    -0.3508     3.7991     3.7991     0.0000
  3 C      6.3537     6.0000    -0.3537     3.8000     3.8000    -0.0000
  4 O      8.3098     8.0000    -0.3098     2.0641     2.0641    -0.0000
  5 C      5.5312     6.0000     0.4688     4.3566     4.3566    -0.0000
  6 O      8.4394     8.0000    -0.4394     2.0668     2.0668    -0.0000
  7 N      7.2254     7.0000    -0.2254     3.1316     3.1316    -0.0000
  8 C      6.1018     6.0000    -0.1018     3.7689     3.7689    -0.0000
  9 C      5.6825     6.0000     0.3175     4.2721     4.2721     0.0000
 10 O      8.3464     8.0000    -0.3464     2.1504     2.1504     0.0000
 11 O      8.2732     8.0000    -0.2732     2.1636     2.1636     0.0000
 12 H      0.8804     1.0000     0.1196     0.9958     0.9958     0.0000
 13 H      0.8800     1.0000     0.1200     0.9957     0.9957    -0.0000
 14 H      0.8845     1.0000     0.1155     0.9928     0.9928     0.0000
 15 H      0.8797     1.0000     0.1203     0.9952     0.9952     0.0000
 16 H      0.8716     1.0000     0.1284     1.0113     1.0113    -0.0000
 17 H      0.8782     1.0000     0.1218     0.9917     0.9917     0.0000
 18 H      0.8784     1.0000     0.1216     0.9959     0.9959    -0.0000
 19 H      0.8789     1.0000     0.1211     0.9916     0.9916    -0.0000
 20 H      0.8711     1.0000     0.1289     1.0112     1.0112    -0.0000
 21 H      0.8520     1.0000     0.1480     1.0301     1.0301    -0.0000
 22 H      0.8407     1.0000     0.1593     0.9932     0.9932    -0.0000
 23 H      0.8567     1.0000     0.1433     1.0152     1.0152    -0.0000
 24 H      0.7803     1.0000     0.2197     1.0284     1.0284     0.0000

  Mayer bond orders larger than 0.100000
B(  0-C ,  1-C ) :   0.9671 B(  0-C , 12-H ) :   0.9797 B(  0-C , 13-H ) :   0.9797 
B(  0-C , 14-H ) :   0.9773 B(  1-C ,  2-C ) :   0.9773 B(  1-C ,  3-C ) :   0.9735 
B(  1-C ,  4-O ) :   0.8590 B(  2-C , 15-H ) :   0.9793 B(  2-C , 16-H ) :   0.9707 
B(  2-C , 17-H ) :   0.9761 B(  3-C , 18-H ) :   0.9788 B(  3-C , 19-H ) :   0.9755 
B(  3-C , 20-H ) :   0.9716 B(  4-O ,  5-C ) :   1.1976 B(  5-C ,  6-O ) :   1.9102 
B(  5-C ,  7-N ) :   1.2089 B(  7-N ,  8-C ) :   0.9540 B(  7-N , 21-H ) :   0.9736 
B(  8-C ,  9-C ) :   0.9155 B(  8-C , 22-H ) :   0.9637 B(  8-C , 23-H ) :   0.9727 
B(  9-C , 10-O ) :   2.0886 B(  9-C , 11-O ) :   1.2195 B( 11-O , 24-H ) :   0.9583 


-------
TIMINGS
-------

Total SCF time: 0 days 0 hours 1 min 30 sec 

Total time                  ....      90.291 sec
Sum of individual times     ....      88.933 sec  ( 98.5%)

Fock matrix formation       ....      82.491 sec  ( 91.4%)
  Split-RI-J                ....       4.065 sec  (  4.9% of F)
  Chain of spheres X        ....      65.346 sec  ( 79.2% of F)
  XC integration            ....       8.403 sec  ( 10.2% of F)
    Basis function eval.    ....       0.942 sec  ( 11.2% of XC)
    Density eval.           ....       2.862 sec  ( 34.1% of XC)
    XC-Functional eval.     ....       0.408 sec  (  4.9% of XC)
    XC-Potential eval.      ....       3.081 sec  ( 36.7% of XC)
Diagonalization             ....       0.572 sec  (  0.6%)
Density matrix formation    ....       0.029 sec  (  0.0%)
Population analysis         ....       0.055 sec  (  0.1%)
Initial guess               ....       0.793 sec  (  0.9%)
Orbital Transformation      ....       0.000 sec  (  0.0%)
Orbital Orthonormalization  ....       0.000 sec  (  0.0%)
DIIS solution               ....       1.279 sec  (  1.4%)
SOSCF solution              ....       0.209 sec  (  0.2%)
Grid generation             ....       3.506 sec  (  3.9%)

Maximum memory used throughout the entire SCF-calculation: 110.5 MB

-------------------------   --------------------
FINAL SINGLE POINT ENERGY      -630.329628262509
-------------------------   --------------------


                            ***************************************
                            *     ORCA property calculations      *
                            ***************************************

                                    ---------------------
                                    Active property flags
                                    ---------------------
   (+) Dipole Moment


------------------------------------------------------------------------------
                       ORCA ELECTRIC PROPERTIES CALCULATION
------------------------------------------------------------------------------

Dipole Moment Calculation                       ... on
Quadrupole Moment Calculation                   ... off
Polarizability Calculation                      ... off
GBWName                                         ... /tmp/265176/Ac2_rdkit_conf_3_spc.gbw
Electron density                                ... /tmp/265176/Ac2_rdkit_conf_3_spc.scfp
The origin for moment calculation is the CENTER OF MASS  = ( 0.164830, -0.008061 -0.003772)

-------------
DIPOLE MOMENT
-------------
                                X             Y             Z
Electronic contribution:     15.69002      -0.95536      -1.13298
Nuclear contribution   :    -15.49399       0.75774       0.35462
                        -----------------------------------------
Total Dipole Moment    :      0.19603      -0.19762      -0.77837
                        -----------------------------------------
Magnitude (a.u.)       :      0.82664
Magnitude (Debye)      :      2.10116



--------------------
Rotational spectrum 
--------------------
 
Rotational constants in cm-1:     0.071705     0.015090     0.014690 
Rotational constants in MHz :  2149.673113   452.379125   440.388961 

 Dipole components along the rotational axes: 
x,y,z [a.u.] :     0.192798    -0.159542    -0.787853 
x,y,z [Debye]:     0.490054    -0.405523    -2.002563 

 

Timings for individual modules:

Sum of individual times         ...       91.371 sec (=   1.523 min)
GTO integral calculation        ...        0.843 sec (=   0.014 min)   0.9 %
SCF iterations                  ...       90.529 sec (=   1.509 min)  99.1 %
                             ****ORCA TERMINATED NORMALLY****
TOTAL RUN TIME: 0 days 0 hours 1 minutes 31 seconds 899 msec
