Job Start Time: Thu May  9 18:49:12 MDT 2024
SLURM Job ID: 265178
SLURM Job Name: Ac3_rdkit_conf_1_spc
SLURM Job Nodes: node08
SLURM Memory / CPU: 8000

                                 *****************
                                 * O   R   C   A *
                                 *****************

                                            #,                                       
                                            ###                                      
                                            ####                                     
                                            #####                                    
                                            ######                                   
                                           ########,                                 
                                     ,,################,,,,,                         
                               ,,#################################,,                 
                          ,,##########################################,,             
                       ,#########################################, ''#####,          
                    ,#############################################,,   '####,        
                  ,##################################################,,,,####,       
                ,###########''''           ''''###############################       
              ,#####''   ,,,,##########,,,,          '''####'''          '####       
            ,##' ,,,,###########################,,,                        '##       
           ' ,,###''''                  '''############,,,                           
         ,,##''                                '''############,,,,        ,,,,,,###''
      ,#''                                            '''#######################'''  
     '                                                          ''''####''''         
             ,#######,   #######,   ,#######,      ##                                
            ,#'     '#,  ##    ##  ,#'     '#,    #''#        ######   ,####,        
            ##       ##  ##   ,#'  ##            #'  '#       #        #'  '#        
            ##       ##  #######   ##           ,######,      #####,   #    #        
            '#,     ,#'  ##    ##  '#,     ,#' ,#      #,         ##   #,  ,#        
             '#######'   ##     ##  '#######'  #'      '#     #####' # '####'        



                  #######################################################
                  #                        -***-                        #
                  #          Department of theory and spectroscopy      #
                  #    Directorship and core code : Frank Neese         #
                  #        Max Planck Institute fuer Kohlenforschung    #
                  #                Kaiser Wilhelm Platz 1               #
                  #                 D-45470 Muelheim/Ruhr               #
                  #                      Germany                        #
                  #                                                     #
                  #                  All rights reserved                #
                  #                        -***-                        #
                  #######################################################


                         Program Version 5.0.3 -  RELEASE  -


 With contributions from (in alphabetic order):
   Daniel Aravena         : Magnetic Suceptibility
   Michael Atanasov       : Ab Initio Ligand Field Theory (pilot matlab implementation)
   Alexander A. Auer      : GIAO ZORA, VPT2 properties, NMR spectrum
   Ute Becker             : Parallelization
   Giovanni Bistoni       : ED, misc. LED, open-shell LED, HFLD
   Martin Brehm           : Molecular dynamics
   Dmytro Bykov           : SCF Hessian
   Vijay G. Chilkuri      : MRCI spin determinant printing, contributions to CSF-ICE
   Dipayan Datta          : RHF DLPNO-CCSD density
   Achintya Kumar Dutta   : EOM-CC, STEOM-CC
   Dmitry Ganyushin       : Spin-Orbit,Spin-Spin,Magnetic field MRCI
   Miquel Garcia          : C-PCM and meta-GGA Hessian, CC/C-PCM, Gaussian charge scheme
   Yang Guo               : DLPNO-NEVPT2, F12-NEVPT2, CIM, IAO-localization
   Andreas Hansen         : Spin unrestricted coupled pair/coupled cluster methods
   Benjamin Helmich-Paris : MC-RPA, TRAH-SCF, COSX integrals
   Lee Huntington         : MR-EOM, pCC
   Robert Izsak           : Overlap fitted RIJCOSX, COSX-SCS-MP3, EOM
   Marcus Kettner         : VPT2
   Christian Kollmar      : KDIIS, OOCD, Brueckner-CCSD(T), CCSD density, CASPT2, CASPT2-K
   Simone Kossmann        : Meta GGA functionals, TD-DFT gradient, OOMP2, MP2 Hessian
   Martin Krupicka        : Initial AUTO-CI
   Lucas Lang             : DCDCAS
   Marvin Lechner         : AUTO-CI (C++ implementation), FIC-MRCC
   Dagmar Lenk            : GEPOL surface, SMD
   Dimitrios Liakos       : Extrapolation schemes; Compound Job, initial MDCI parallelization
   Dimitrios Manganas     : Further ROCIS development; embedding schemes
   Dimitrios Pantazis     : SARC Basis sets
   Anastasios Papadopoulos: AUTO-CI, single reference methods and gradients
   Taras Petrenko         : DFT Hessian,TD-DFT gradient, ASA, ECA, R-Raman, ABS, FL, XAS/XES, NRVS
   Peter Pinski           : DLPNO-MP2, DLPNO-MP2 Gradient
   Christoph Reimann      : Effective Core Potentials
   Marius Retegan         : Local ZFS, SOC
   Christoph Riplinger    : Optimizer, TS searches, QM/MM, DLPNO-CCSD(T), (RO)-DLPNO pert. Triples
   Tobias Risthaus        : Range-separated hybrids, TD-DFT gradient, RPA, STAB
   Michael Roemelt        : Original ROCIS implementation
   Masaaki Saitow         : Open-shell DLPNO-CCSD energy and density
   Barbara Sandhoefer     : DKH picture change effects
   Avijit Sen             : IP-ROCIS
   Kantharuban Sivalingam : CASSCF convergence, NEVPT2, FIC-MRCI
   Bernardo de Souza      : ESD, SOC TD-DFT
   Georgi Stoychev        : AutoAux, RI-MP2 NMR, DLPNO-MP2 response
   Willem Van den Heuvel  : Paramagnetic NMR
   Boris Wezisla          : Elementary symmetry handling
   Frank Wennmohs         : Technical directorship


 We gratefully acknowledge several colleagues who have allowed us to
 interface, adapt or use parts of their codes:
   Stefan Grimme, W. Hujo, H. Kruse, P. Pracht,  : VdW corrections, initial TS optimization,
                  C. Bannwarth, S. Ehlert          DFT functionals, gCP, sTDA/sTD-DF
   Ed Valeev, F. Pavosevic, A. Kumar             : LibInt (2-el integral package), F12 methods
   Garnet Chan, S. Sharma, J. Yang, R. Olivares  : DMRG
   Ulf Ekstrom                                   : XCFun DFT Library
   Mihaly Kallay                                 : mrcc  (arbitrary order and MRCC methods)
   Jiri Pittner, Ondrej Demel                    : Mk-CCSD
   Frank Weinhold                                : gennbo (NPA and NBO analysis)
   Christopher J. Cramer and Donald G. Truhlar   : smd solvation model
   Lars Goerigk                                  : TD-DFT with DH, B97 family of functionals
   V. Asgeirsson, H. Jonsson                     : NEB implementation
   FAccTs GmbH                                   : IRC, NEB, NEB-TS, DLPNO-Multilevel, CI-OPT
                                                   MM, QMMM, 2- and 3-layer-ONIOM, Crystal-QMMM,
                                                   LR-CPCM, SF, NACMEs, symmetry and pop. for TD-DFT,
                                                   nearIR, NL-DFT gradient (VV10), updates on ESD,
                                                   ML-optimized integration grids
   S Lehtola, MJT Oliveira, MAL Marques          : LibXC Library
   Liviu Ungur et al                             : ANISO software


 Your calculation uses the libint2 library for the computation of 2-el integrals
 For citations please refer to: http://libint.valeyev.net

 Your ORCA version has been built with support for libXC version: 5.1.0
 For citations please refer to: https://tddft.org/programs/libxc/

 This ORCA versions uses:
   CBLAS   interface :  Fast vector & matrix operations
   LAPACKE interface :  Fast linear algebra routines
   SCALAPACK package :  Parallel linear algebra routines
   Shared memory     :  Shared parallel matrices
   BLAS/LAPACK       :  OpenBLAS 0.3.15  USE64BITINT DYNAMIC_ARCH NO_AFFINITY Zen SINGLE_THREADED
        Core in use  :  Zen
   Copyright (c) 2011-2014, The OpenBLAS Project


Your calculation utilizes the DFT-NL dispersion correction.
Cite in your paper:
Vydrov, O. A.; Van Voorhis, T. J. Chem. Phys. 2010, 133, 244103
Hujo, W.; Grimme, S. J. Chem. Theory Comput. 2011, 7, 3866 
   

Your calculation utilizes the SMD solvation module
Please cite in your paper:
A.V. Marenich, C.J. Cramer, D.G. Truhlar J. Phys. Chem. B, 113, (2009), 6378 

================================================================================

----- Orbital basis set information -----
Your calculation utilizes the basis: def2-TZVPP
   F. Weigend and R. Ahlrichs, Phys. Chem. Chem. Phys. 7, 3297 (2005).

----- AuxJ basis set information -----
Your calculation utilizes the auxiliary basis: def2/J
   F. Weigend, Phys. Chem. Chem. Phys. 8, 1057 (2006).

================================================================================
                                        WARNINGS
                       Please study these warnings very carefully!
================================================================================

Using LibXC functional ID 531 : wB97M-V exchange-correlation functional
[ 1]  N. Mardirossian and M. Head-Gordon, J. Chem. Phys. 144, 214110 (2016)
Using LibXC functional ID 531 : wB97M-V exchange-correlation functional
[ 1]  N. Mardirossian and M. Head-Gordon, J. Chem. Phys. 144, 214110 (2016)

WARNING: B97M-V or wB97M-V functional requested.
  ===> : libXC variant has now been activated.
         Any manually given DFX/HFX/RangeSep scaling parameters are IGNORED!

Your calculation utilizes LibXC
 by S Lehtola, C Steigemann, MJT Oliveira & MAL Marques
Please cite in your paper:
 S Lehtola, C Steigemann, MJT Oliveira & MAL Marques, SoftwareX, 7, (2018), 1.
   


INFO   : the flag for use of the SHARK integral package has been found!

================================================================================
                                       INPUT FILE
================================================================================
NAME = /tmp/265178/Ac3_rdkit_conf_1_spc.inp
|  1> # Ac3_rdkit_conf_1_spc
|  2> %maxcore 16000
|  3> %pal nprocs 8 end
|  4> ! wB97M-V def2-TZVPP def2/J RIJCOSX
|  5> %cpcm
|  6> smd true
|  7> SMDsolvent "ETHYL ETHANOATE"
|  8> end
|  9> * xyz 0 1
| 10>  O  -0.67005400   3.85444000  -0.00029800
| 11>  C   0.26847600   3.10948400  -0.00007000
| 12>  O   1.54143200   3.53321700  -0.00002500
| 13>  C   0.15679700   1.62291000   0.00021400
| 14>  C  -1.12162600   1.06904200  -0.00004900
| 15>  C  -1.26495800  -0.30330000   0.00046900
| 16>  C  -2.62735500  -0.94335200  -0.00004200
| 17>  F  -3.60800600  -0.04188600   0.00244100
| 18>  F  -2.79498100  -1.72592400   1.07260500
| 19>  F  -2.79629300  -1.72136400  -1.07580100
| 20>  C  -0.14962200  -1.13602800   0.00124600
| 21>  C   1.11227600  -0.57430700   0.00158700
| 22>  C   2.34455300  -1.43859700   0.00009600
| 23>  F   2.04785100  -2.73843600   0.02113300
| 24>  F   3.11698200  -1.18412100   1.06228600
| 25>  F   3.09329300  -1.21392400  -1.08565700
| 26>  C   1.27524500   0.80631800   0.00099200
| 27>  H   1.52250200   4.50102600  -0.00015100
| 28>  H  -1.98077400   1.72608700  -0.00045700
| 29>  H  -0.27124800  -2.21142200   0.00196700
| 30>  H   2.26616500   1.24092800   0.00151100
| 31> **                         ****END OF INPUT****
================================================================================

                       ****************************
                       * Single Point Calculation *
                       ****************************

---------------------------------
CARTESIAN COORDINATES (ANGSTROEM)
---------------------------------
  O     -0.670054    3.854440   -0.000298
  C      0.268476    3.109484   -0.000070
  O      1.541432    3.533217   -0.000025
  C      0.156797    1.622910    0.000214
  C     -1.121626    1.069042   -0.000049
  C     -1.264958   -0.303300    0.000469
  C     -2.627355   -0.943352   -0.000042
  F     -3.608006   -0.041886    0.002441
  F     -2.794981   -1.725924    1.072605
  F     -2.796293   -1.721364   -1.075801
  C     -0.149622   -1.136028    0.001246
  C      1.112276   -0.574307    0.001587
  C      2.344553   -1.438597    0.000096
  F      2.047851   -2.738436    0.021133
  F      3.116982   -1.184121    1.062286
  F      3.093293   -1.213924   -1.085657
  C      1.275245    0.806318    0.000992
  H      1.522502    4.501026   -0.000151
  H     -1.980774    1.726087   -0.000457
  H     -0.271248   -2.211422    0.001967
  H      2.266165    1.240928    0.001511

----------------------------
CARTESIAN COORDINATES (A.U.)
----------------------------
  NO LB      ZA    FRAG     MASS         X           Y           Z
   0 O     8.0000    0    15.999   -1.266219    7.283836   -0.000563
   1 C     6.0000    0    12.011    0.507346    5.876073   -0.000132
   2 O     8.0000    0    15.999    2.912884    6.676813   -0.000047
   3 C     6.0000    0    12.011    0.296303    3.066855    0.000404
   4 C     6.0000    0    12.011   -2.119566    2.020197   -0.000093
   5 C     6.0000    0    12.011   -2.390424   -0.573154    0.000886
   6 C     6.0000    0    12.011   -4.964981   -1.782677   -0.000079
   7 F     9.0000    0    18.998   -6.818143   -0.079153    0.004613
   8 F     9.0000    0    18.998   -5.281749   -3.261524    2.026930
   9 F     9.0000    0    18.998   -5.284228   -3.252907   -2.032969
  10 C     6.0000    0    12.011   -0.282745   -2.146782    0.002355
  11 C     6.0000    0    12.011    2.101897   -1.085283    0.002999
  12 C     6.0000    0    12.011    4.430563   -2.718554    0.000181
  13 F     9.0000    0    18.998    3.869878   -5.174894    0.039936
  14 F     9.0000    0    18.998    5.890242   -2.237664    2.007430
  15 F     9.0000    0    18.998    5.845477   -2.293984   -2.051594
  16 C     6.0000    0    12.011    2.409864    1.523720    0.001875
  17 H     1.0000    0     1.008    2.877112    8.505706   -0.000285
  18 H     1.0000    0     1.008   -3.743120    3.261832   -0.000864
  19 H     1.0000    0     1.008   -0.512584   -4.178982    0.003717
  20 H     1.0000    0     1.008    4.282431    2.345014    0.002855

--------------------------------
INTERNAL COORDINATES (ANGSTROEM)
--------------------------------
 O      0   0   0     0.000000000000     0.00000000     0.00000000
 C      1   0   0     1.198247910418     0.00000000     0.00000000
 O      2   1   0     1.341628352134   123.14807214     0.00000000
 C      2   1   3     1.490763072112   124.14442784   179.99902975
 C      4   2   1     1.393246280283   117.72061881     0.00000000
 C      5   4   2     1.379806832681   119.38688003   180.01276346
 C      6   5   4     1.505254931709   121.12659770   180.01118467
 F      7   6   5     1.332037348668   112.24499821   359.83978037
 F      7   6   5     1.338315731683   111.20661437   239.26171275
 F      7   6   5     1.338319896762   111.20552816   120.41429332
 C      6   5   4     1.391909091359   120.78307770     0.00000000
 C     11   6   5     1.381273745688   119.25863749     0.00000000
 C     12  11   6     1.505159802782   120.95930376   180.10340840
 F     13  12  11     1.333437684368   112.18295244   358.95008183
 F     13  12  11     1.337778827279   111.26609086   238.42291818
 F     13  12  11     1.337889801717   111.25720723   119.44396199
 C      4   2   1     1.384828158456   121.83734082   180.02534158
 H      3   2   1     0.967994122532   107.29067815     0.00000000
 H      5   4   2     1.081593077083   119.16822134     0.00000000
 H     11   6   5     1.082250275562   120.29295243   179.98046150
 H     17   4   2     1.082039078713   120.18449676     0.00000000

---------------------------
INTERNAL COORDINATES (A.U.)
---------------------------
 O      0   0   0     0.000000000000     0.00000000     0.00000000
 C      1   0   0     2.264360391233     0.00000000     0.00000000
 O      2   1   0     2.535310159037   123.14807214     0.00000000
 C      2   1   3     2.817133936855   124.14442784   179.99902975
 C      4   2   1     2.632853906839   117.72061881     0.00000000
 C      5   4   2     2.607457031480   119.38688003   180.01276346
 C      6   5   4     2.844519582664   121.12659770   180.01118467
 F      7   6   5     2.517185789137   112.24499821   359.83978037
 F      7   6   5     2.529050213598   111.20661437   239.26171275
 F      7   6   5     2.529058084458   111.20552816   120.41429332
 C      6   5   4     2.630326985984   120.78307770     0.00000000
 C     11   6   5     2.610229095325   119.25863749     0.00000000
 C     12  11   6     2.844339815044   120.95930376   180.10340840
 F     13  12  11     2.519832040107   112.18295244   358.95008183
 F     13  12  11     2.528035611316   111.26609086   238.42291818
 F     13  12  11     2.528245322611   111.25720723   119.44396199
 C      4   2   1     2.616945962024   121.83734082   180.02534158
 H      3   2   1     1.829243790831   107.29067815     0.00000000
 H      5   4   2     2.043914704031   119.16822134     0.00000000
 H     11   6   5     2.045156629172   120.29295243   179.98046150
 H     17   4   2     2.044757524967   120.18449676     0.00000000

---------------------
BASIS SET INFORMATION
---------------------
There are 4 groups of distinct atoms

 Group   1 Type O   : 11s6p2d1f contracted to 5s3p2d1f pattern {62111/411/11/1}
 Group   2 Type C   : 11s6p2d1f contracted to 5s3p2d1f pattern {62111/411/11/1}
 Group   3 Type F   : 11s6p2d1f contracted to 5s3p2d1f pattern {62111/411/11/1}
 Group   4 Type H   : 5s2p1d contracted to 3s2p1d pattern {311/11/1}

Atom   0O    basis set group =>   1
Atom   1C    basis set group =>   2
Atom   2O    basis set group =>   1
Atom   3C    basis set group =>   2
Atom   4C    basis set group =>   2
Atom   5C    basis set group =>   2
Atom   6C    basis set group =>   2
Atom   7F    basis set group =>   3
Atom   8F    basis set group =>   3
Atom   9F    basis set group =>   3
Atom  10C    basis set group =>   2
Atom  11C    basis set group =>   2
Atom  12C    basis set group =>   2
Atom  13F    basis set group =>   3
Atom  14F    basis set group =>   3
Atom  15F    basis set group =>   3
Atom  16C    basis set group =>   2
Atom  17H    basis set group =>   4
Atom  18H    basis set group =>   4
Atom  19H    basis set group =>   4
Atom  20H    basis set group =>   4
---------------------------------
AUXILIARY/J BASIS SET INFORMATION
---------------------------------
There are 4 groups of distinct atoms

 Group   1 Type O   : 12s5p4d2f1g contracted to 6s4p3d1f1g pattern {711111/2111/211/2/1}
 Group   2 Type C   : 12s5p4d2f1g contracted to 6s4p3d1f1g pattern {711111/2111/211/2/1}
 Group   3 Type F   : 12s5p4d2f1g contracted to 6s4p3d1f1g pattern {711111/2111/211/2/1}
 Group   4 Type H   : 5s2p1d contracted to 3s1p1d pattern {311/2/1}

Atom   0O    basis set group =>   1
Atom   1C    basis set group =>   2
Atom   2O    basis set group =>   1
Atom   3C    basis set group =>   2
Atom   4C    basis set group =>   2
Atom   5C    basis set group =>   2
Atom   6C    basis set group =>   2
Atom   7F    basis set group =>   3
Atom   8F    basis set group =>   3
Atom   9F    basis set group =>   3
Atom  10C    basis set group =>   2
Atom  11C    basis set group =>   2
Atom  12C    basis set group =>   2
Atom  13F    basis set group =>   3
Atom  14F    basis set group =>   3
Atom  15F    basis set group =>   3
Atom  16C    basis set group =>   2
Atom  17H    basis set group =>   4
Atom  18H    basis set group =>   4
Atom  19H    basis set group =>   4
Atom  20H    basis set group =>   4


           ************************************************************
           *        Program running with 8 parallel MPI-processes     *
           *              working on a common directory               *
           ************************************************************
------------------------------------------------------------------------------
                           ORCA GTO INTEGRAL CALCULATION
                           -- RI-GTO INTEGRALS CHOSEN --
------------------------------------------------------------------------------
------------------------------------------------------------------------------
                   ___                                                        
                  /   \      - P O W E R E D   B Y -                         
                 /     \                                                     
                 |  |  |   _    _      __       _____    __    __             
                 |  |  |  | |  | |    /  \     |  _  \  |  |  /  |          
                  \  \/   | |  | |   /    \    | | | |  |  | /  /          
                 / \  \   | |__| |  /  /\  \   | |_| |  |  |/  /          
                |  |  |   |  __  | /  /__\  \  |    /   |      \           
                |  |  |   | |  | | |   __   |  |    \   |  |\   \          
                \     /   | |  | | |  |  |  |  | |\  \  |  | \   \       
                 \___/    |_|  |_| |__|  |__|  |_| \__\ |__|  \__/        
                                                                              
                      - O R C A' S   B I G   F R I E N D -                    
                                      &                                       
                       - I N T E G R A L  F E E D E R -                       
                                                                              
 v1 FN, 2020, v2 2021                                                         
------------------------------------------------------------------------------


Reading SHARK input file /tmp/265178/Ac3_rdkit_conf_1_spc.SHARKINP.tmp ... ok
----------------------
SHARK INTEGRAL PACKAGE
----------------------

Number of atoms                             ...     21
Number of basis functions                   ...    583
Number of shells                            ...    211
Maximum angular momentum                    ...      3
Integral batch strategy                     ... SHARK/LIBINT Hybrid
RI-J (if used) integral strategy            ... SPLIT-RIJ (Revised 2003 algorithm where possible)
Printlevel                                  ...      1
Contraction scheme used                     ... SEGMENTED contraction
Coulomb Range Separation                    ... NOT USED
Exchange Range Separation                   ... Long Range
   Mu parameter                             ...  0.300000
   Scaling (regular/separated)              ...  0.150000  0.850000
Finite Nucleus Model                        ... NOT USED
Auxiliary Coulomb fitting basis             ... AVAILABLE
   # of basis functions in Aux-J            ...    877
   # of shells in Aux-J                     ...    275
   Maximum angular momentum in Aux-J        ...      4
Auxiliary J/K fitting basis                 ... NOT available
Auxiliary Correlation fitting basis         ... NOT available
Auxiliary 'external' fitting basis          ... NOT available
Integral threshold                          ...     1.000000e-10
Primitive cut-off                           ...     1.000000e-11
Primitive pair pre-selection threshold      ...     1.000000e-11

Calculating pre-screening integrals         ... done (  0.0 sec) Dimension = 211
Organizing shell pair data                  ... done (  0.2 sec)
Shell pair information
Total number of shell pairs                 ...     22366
Shell pairs after pre-screening             ...     16241
Total number of primitive shell pairs       ...     69764
Primitive shell pairs kept                  ...     34449
          la=0 lb=0:   3230 shell pairs
          la=1 lb=0:   4421 shell pairs
          la=1 lb=1:   1507 shell pairs
          la=2 lb=0:   2494 shell pairs
          la=2 lb=1:   1742 shell pairs
          la=2 lb=2:    513 shell pairs
          la=3 lb=0:   1065 shell pairs
          la=3 lb=1:    756 shell pairs
          la=3 lb=2:    417 shell pairs
          la=3 lb=3:     96 shell pairs

Calculating one electron integrals          ... done (  0.0 sec)
Calculating RI/J V-Matrix + Cholesky decomp.... done (  0.0 sec)
Calculating Nuclear repulsion               ... done (  0.0 sec) ENN=   1277.655080042172 Eh

SHARK setup successfully completed in   0.5 seconds

Maximum memory used throughout the entire GTOINT-calculation: 29.0 MB


           ************************************************************
           *        Program running with 8 parallel MPI-processes     *
           *              working on a common directory               *
           ************************************************************
-------------------------------------------------------------------------------
                                 ORCA SCF
-------------------------------------------------------------------------------

------------
SCF SETTINGS
------------
Hamiltonian:
 Density Functional     Method          .... DFT(GTOs)
  Functional kind                       .... Exchange-Correlation
  Functional name                       .... wB97M-V exchange-correlation functional
  Functional family                     .... Hybrid MGGA
  Functional refs                              
    [ 0] N. Mardirossian and M. Head-Gordon, J. Chem. Phys. 144, 214110 (2016)
  Fraction of HF Exchange (short range) .... 0.1500
  Fraction of HF Exchange (long range)  .... 1.0000
  Range separation parameter mu         .... 0.3000
  Functional external parameters         .... 0
   Density functional embedding theory  .... OFF
 Long-range corrected/Screened/Range-Separated Hybrid DFT is turned on
   Amount of maximum screened exact exchange              ....  0.850000
   Range separation parameter mu (erf(mu*r12)/r12)        ....  0.300000
   NL short-range parameter             ....  6.000000
   NL long-range parameter              ....  0.010000
 RI-approximation to the Coulomb term is turned on
   Number of AuxJ basis functions       .... 877
   RIJ-COSX (HFX calculated with COS-X)).... on


General Settings:
 Integral files         IntName         .... /tmp/265178/Ac3_rdkit_conf_1_spc
 Hartree-Fock type      HFTyp           .... RHF
 Total Charge           Charge          ....    0
 Multiplicity           Mult            ....    1
 Number of Electrons    NEL             ....  128
 Basis Dimension        Dim             ....  583
 Nuclear Repulsion      ENuc            ....   1277.6550800422 Eh

Convergence Acceleration:
 DIIS                   CNVDIIS         .... on
   Start iteration      DIISMaxIt       ....    12
   Startup error        DIISStart       ....  0.200000
   # of expansion vecs  DIISMaxEq       ....     5
   Bias factor          DIISBfac        ....   1.050
   Max. coefficient     DIISMaxC        ....  10.000
 Trust-Rad. Augm. Hess. CNVTRAH         .... auto
   Auto Start mean grad. ratio tolernc. ....  1.125000
   Auto Start start iteration           ....    20
   Auto Start num. interpolation iter.  ....    10
   Max. Number of Micro iterations      ....    16
   Max. Number of Macro iterations      .... Maxiter - #DIIS iter
   Number of Davidson start vectors     ....     2
   Converg. threshold I  (grad. norm)   ....   5.000e-05
   Converg. threshold II (energy diff.) ....   1.000e-06
   Grad. Scal. Fac. for Micro threshold ....   0.100
   Minimum threshold for Micro iter.    ....   0.010
   NR start threshold (gradient norm)   ....   0.001
   Initial trust radius                 ....   0.400
   Minimum AH scaling param. (alpha)    ....   1.000
   Maximum AH scaling param. (alpha)    .... 1000.000
   Orbital update algorithm             .... Taylor
   White noise on init. David. guess    .... on
   Maximum white noise                  ....   0.010
   Quad. conv. algorithm                .... NR
 SOSCF                  CNVSOSCF        .... on
   Start iteration      SOSCFMaxIt      ....   150
   Startup grad/error   SOSCFStart      ....  0.003300
 Level Shifting         CNVShift        .... on
   Level shift para.    LevelShift      ....    0.2500
   Turn off err/grad.   ShiftErr        ....    0.0010
 Zerner damping         CNVZerner       .... off
 Static damping         CNVDamp         .... on
   Fraction old density DampFac         ....    0.7000
   Max. Damping (<1)    DampMax         ....    0.9800
   Min. Damping (>=0)   DampMin         ....    0.0000
   Turn off err/grad.   DampErr         ....    0.1000
 Fernandez-Rico         CNVRico         .... off

SCF Procedure:
 Maximum # iterations   MaxIter         ....   125
 SCF integral mode      SCFMode         .... Direct
   Integral package                     .... SHARK and LIBINT hybrid scheme
 Reset frequency        DirectResetFreq ....    20
 Integral Threshold     Thresh          ....  1.000e-10 Eh
 Primitive CutOff       TCut            ....  1.000e-11 Eh

Convergence Tolerance:
 Convergence Check Mode ConvCheckMode   .... Total+1el-Energy
 Convergence forced     ConvForced      .... 0
 Energy Change          TolE            ....  1.000e-06 Eh
 1-El. energy change                    ....  1.000e-03 Eh
 Orbital Gradient       TolG            ....  5.000e-05
 Orbital Rotation angle TolX            ....  5.000e-05
 DIIS Error             TolErr          ....  1.000e-06


Diagonalization of the overlap matrix:
Smallest eigenvalue                        ... 6.683e-06
Time for diagonalization                   ...    0.047 sec
Threshold for overlap eigenvalues          ... 1.000e-08
Number of eigenvalues below threshold      ... 0
Time for construction of square roots      ...    0.028 sec
Total time needed                          ...    0.076 sec

Time for model grid setup =    0.129 sec

------------------------------
INITIAL GUESS: MODEL POTENTIAL
------------------------------
Loading Hartree-Fock densities                     ... done
Calculating cut-offs                               ... done
Initializing the effective Hamiltonian             ... done
Setting up the integral package (SHARK)            ... done
Starting the Coulomb interaction                   ... done (   0.2 sec)
Reading the grid                                   ... done
Mapping shells                                     ... done
Starting the XC term evaluation                    ... done (   0.1 sec)
  promolecular density results
     # of electrons  =    127.995788145
     EX              =   -123.617299028
     EC              =     -4.434194476
     EX+EC           =   -128.051493504
Transforming the Hamiltonian                       ... done (   0.0 sec)
Diagonalizing the Hamiltonian                      ... done (   0.0 sec)
Back transforming the eigenvectors                 ... done (   0.0 sec)
Now organizing SCF variables                       ... done
                      ------------------
                      INITIAL GUESS DONE (   0.5 sec)
                      ------------------
-------------------
DFT GRID GENERATION
-------------------

General Integration Accuracy     IntAcc      ... 4.388
Radial Grid Type                 RadialGrid  ... OptM3 with GC (2021)
Angular Grid (max. ang.)         AngularGrid ... 4 (Lebedev-302)
Angular grid pruning method      GridPruning ... 4 (adaptive)
Weight generation scheme         WeightScheme... Becke
Basis function cutoff            BFCut       ... 1.0000e-10
Integration weight cutoff        WCut        ... 1.0000e-14
Angular grids for H and He will be reduced by one unit
Partially contracted basis set               ... off
Rotationally invariant grid construction     ... off

Total number of grid points                  ...   115414
Total number of batches                      ...     1814
Average number of points per batch           ...       63
Average number of grid points per atom       ...     5496
Time for grid setup =    0.675 sec

--------------------
COSX GRID GENERATION
--------------------

GRIDX 1
-------
General Integration Accuracy     IntAcc      ... 3.816
Radial Grid Type                 RadialGrid  ... OptM3 with GC (2021)
Angular Grid (max. ang.)         AngularGrid ... 1 (Lebedev-50)
Angular grid pruning method      GridPruning ... 4 (adaptive)
Weight generation scheme         WeightScheme... Becke
Basis function cutoff            BFCut       ... 1.0000e-10
Integration weight cutoff        WCut        ... 1.0000e-14
Angular grids for H and He will be reduced by one unit
Partially contracted basis set               ... on
Rotationally invariant grid construction     ... off

Total number of grid points                  ...    14590
Total number of batches                      ...      237
Average number of points per batch           ...       61
Average number of grid points per atom       ...      695
UseSFitting                                  ... on

GRIDX 2
-------
General Integration Accuracy     IntAcc      ... 4.020
Radial Grid Type                 RadialGrid  ... OptM3 with GC (2021)
Angular Grid (max. ang.)         AngularGrid ... 2 (Lebedev-110)
Angular grid pruning method      GridPruning ... 4 (adaptive)
Weight generation scheme         WeightScheme... Becke
Basis function cutoff            BFCut       ... 1.0000e-10
Integration weight cutoff        WCut        ... 1.0000e-14
Angular grids for H and He will be reduced by one unit
Partially contracted basis set               ... on
Rotationally invariant grid construction     ... off

Total number of grid points                  ...    33601
Total number of batches                      ...      538
Average number of points per batch           ...       62
Average number of grid points per atom       ...     1600
UseSFitting                                  ... on

GRIDX 3
-------
General Integration Accuracy     IntAcc      ... 4.338
Radial Grid Type                 RadialGrid  ... OptM3 with GC (2021)
Angular Grid (max. ang.)         AngularGrid ... 3 (Lebedev-194)
Angular grid pruning method      GridPruning ... 4 (adaptive)
Weight generation scheme         WeightScheme... Becke
Basis function cutoff            BFCut       ... 1.0000e-10
Integration weight cutoff        WCut        ... 1.0000e-14
Angular grids for H and He will be reduced by one unit
Partially contracted basis set               ... on
Rotationally invariant grid construction     ... off

Total number of grid points                  ...    74238
Total number of batches                      ...     1172
Average number of points per batch           ...       63
Average number of grid points per atom       ...     3535
UseSFitting                                  ... on

Time for X-Grid setup             =    0.715 sec


--------------------
CPCM SOLVATION MODEL
--------------------
CPCM parameters:
  Epsilon                                         ...       5.9867
  Refrac                                          ...       1.3723
  Rsolv                                           ...       1.3000
  Surface type                                    ... GAUSSIAN VDW
  Epsilon function type                           ...         CPCM
Solvent:                                     ... ETHYL ETHANOATE
SMD-CDS solvent descriptors:
  Soln                                       ...    1.3723
  Soln25                                     ...    1.3704
  Sola                                       ...    0.0000
  Solb                                       ...    0.4500
  Solg                                       ...   33.6700
  Solc                                       ...    0.0000
  Solh                                       ...    0.0000
Radii:
 Radius for O  used is    4.3350 Bohr (=   2.2940 Ang.)
 Radius for C  used is    3.4960 Bohr (=   1.8500 Ang.)
 Radius for F  used is    3.2692 Bohr (=   1.7300 Ang.)
 Radius for H  used is    2.2677 Bohr (=   1.2000 Ang.)
Calculating surface                               ...        done! (  0.0s)
GEPOL surface points                              ...         1130
GEPOL Volume                                      ...    1662.9104
GEPOL Surface-area                                ...     918.8579
Calculating surface distance matrix               ...        done! (  0.0s)
Performing Cholesky decomposition & store         ...        done! (  0.1s)
Overall time for CPCM initialization              ...                 0.1s
--------------
SCF ITERATIONS
--------------
ITER       Energy         Delta-E        Max-DP      RMS-DP      [F,P]     Damp
               ***  Starting incremental Fock matrix formation  ***
  0  -1095.2677550766   0.000000000000 0.12960686  0.00078452  0.2821977 0.7000
  1  -1095.4192990294  -0.151543952827 0.13917279  0.00068606  0.1406903 0.7000
                               ***Turning on DIIS***
  2  -1095.4887496920  -0.069450662548 0.27023659  0.00136808  0.0566060 0.0000
  3  -1095.6060722941  -0.117322602104 0.08233646  0.00040003  0.0621325 0.0000
  4  -1095.6230768264  -0.017004532357 0.01817297  0.00011047  0.0090831 0.0000
  5  -1095.6235221754  -0.000445348986 0.00870544  0.00005295  0.0046615 0.0000
                      *** Initiating the SOSCF procedure ***
                           *** Shutting down DIIS ***
                      *** Re-Reading the Fockian *** 
                      *** Removing any level shift *** 
ITER      Energy       Delta-E        Grad      Rot      Max-DP    RMS-DP
  6  -1095.62360594  -0.0000837613  0.000907  0.000907  0.003514  0.000022
               *** Restarting incremental Fock matrix formation ***
  7  -1095.62361453  -0.0000085889  0.000606  0.001484  0.004507  0.000040
  8  -1095.62362133  -0.0000068075  0.000381  0.001397  0.002759  0.000025
  9  -1095.62362434  -0.0000030075  0.000116  0.000211  0.002418  0.000020
 10  -1095.62362469  -0.0000003534  0.000032  0.000069  0.000500  0.000005
                 **** Energy Check signals convergence ****
              ***Rediagonalizing the Fockian in SOSCF/NRSCF***

               *****************************************************
               *                     SUCCESS                       *
               *           SCF CONVERGED AFTER  11 CYCLES          *
               *****************************************************

Old exchange energy                            =    -36.115066678 Eh
New exchange energy                            =    -36.115101339 Eh
Exchange energy change after final integration =     -0.000034662 Eh
Total energy after final integration           =  -1095.623659368 Eh
Final COS-X integration done in                =    17.427 sec

------------------
NL GRID GENERATION
------------------

General Integration Accuracy     IntAcc      ... 4.004
Radial Grid Type                 RadialGrid  ... OptM3 with GC (2021)
Angular Grid (max. ang.)         AngularGrid ... 2 (Lebedev-110)
Angular grid pruning method      GridPruning ... 4 (adaptive)
Weight generation scheme         WeightScheme... Becke
Basis function cutoff            BFCut       ... 1.0000e-10
Integration weight cutoff        WCut        ... 1.0000e-14
Angular grids for H and He will be reduced by one unit
Partially contracted basis set               ... off
Rotationally invariant grid construction     ... off

Total number of grid points                  ...    39367
Total number of batches                      ...      626
Average number of points per batch           ...       62
Average number of grid points per atom       ...     1875
Final grid set up in    0.1 sec

-------------------------------------------------------------------------------
                    post-SCF DFT-NL dispersion correction                      
-------------------------------------------------------------------------------

SCF Energy:   -1095.623659368 
NL    Energy:  0.498949130 
SC+NL Energy: -1095.124710238 
NL done in:    0.6 sec
-------------------------------------------------------------------------------

SMD CDS free energy correction energy :                -1.31152     Kcal/mol
Total Energy after SMD CDS correction =             -1095.126800283 Eh

----------------
TOTAL SCF ENERGY
----------------

Total Energy       :        -1095.12680028 Eh          -29799.91523 eV

Components:
Nuclear Repulsion  :         1277.65508004 Eh           34766.76224 eV
Electronic Energy  :        -2372.78188033 Eh          -64566.67747 eV
One Electron Energy:        -4049.47388899 Eh         -110191.78656 eV
Two Electron Energy:         1676.69200867 Eh           45625.10909 eV
Max COSX asymmetry :            0.00000192 Eh               0.00005 eV
CPCM Dielectric    :           -0.01050279 Eh              -0.28580 eV
SMD CDS (Gcds)     :           -0.00209005 Eh              -0.05687 eV

Virial components:
Potential Energy   :        -2187.74116936 Eh          -59531.46374 eV
Kinetic Energy     :         1092.61436908 Eh           29731.54851 eV
Virial Ratio       :            2.00229947


DFT components:
N(Alpha)           :       63.999955977918 electrons
N(Beta)            :       63.999955977918 electrons
N(Total)           :      127.999911955836 electrons
NL Energy, E(C,NL) :        0.498949130215 Eh       
E(XC)              :      -94.189499111950 Eh       
DFET-embed. en.    :        0.000000000000 Eh       
CPCM Solvation Model Properties:
Surface-charge          :           -0.01297276
Charge-correction       :            0.00017886 Eh               0.00487 eV
Free-energy (cav+disp)  :           -0.00209005 Eh              -0.05687 eV

---------------
SCF CONVERGENCE
---------------

  Last Energy change         ...   -1.2255e-08  Tolerance :   1.0000e-06
  Last MAX-Density change    ...    2.4425e-15  Tolerance :   1.0000e-05
  Last RMS-Density change    ...    1.5290e-17  Tolerance :   1.0000e-06
  Last Orbital Gradient      ...    1.3971e-05  Tolerance :   5.0000e-05
  Last Orbital Rotation      ...    3.9452e-05  Tolerance :   5.0000e-05

             **** THE GBW FILE WAS UPDATED (/tmp/265178/Ac3_rdkit_conf_1_spc.gbw) ****
             **** DENSITY /tmp/265178/Ac3_rdkit_conf_1_spc.scfp WAS UPDATED ****
             **** ENERGY FILE WAS UPDATED (/tmp/265178/Ac3_rdkit_conf_1_spc.en.tmp) ****
             **** THE GBW FILE WAS UPDATED (/tmp/265178/Ac3_rdkit_conf_1_spc.gbw) ****
             **** DENSITY /tmp/265178/Ac3_rdkit_conf_1_spc.scfp WAS UPDATED ****
----------------
ORBITAL ENERGIES
----------------

  NO   OCC          E(Eh)            E(eV) 
   0   2.0000     -24.948948      -678.8954 
   1   2.0000     -24.948579      -678.8853 
   2   2.0000     -24.945331      -678.7970 
   3   2.0000     -24.945228      -678.7942 
   4   2.0000     -24.944708      -678.7800 
   5   2.0000     -24.944697      -678.7797 
   6   2.0000     -19.392316      -527.6917 
   7   2.0000     -19.336900      -526.1838 
   8   2.0000     -10.609401      -288.6965 
   9   2.0000     -10.608774      -288.6794 
  10   2.0000     -10.498297      -285.6732 
  11   2.0000     -10.393859      -282.8313 
  12   2.0000     -10.393258      -282.8149 
  13   2.0000     -10.390249      -282.7330 
  14   2.0000     -10.389372      -282.7092 
  15   2.0000     -10.387832      -282.6673 
  16   2.0000     -10.385868      -282.6138 
  17   2.0000      -1.466347       -39.9013 
  18   2.0000      -1.465922       -39.8898 
  19   2.0000      -1.377710       -37.4894 
  20   2.0000      -1.377458       -37.4825 
  21   2.0000      -1.373813       -37.3833 
  22   2.0000      -1.373147       -37.3652 
  23   2.0000      -1.258181       -34.2368 
  24   2.0000      -1.167541       -31.7704 
  25   2.0000      -1.035931       -28.1891 
  26   2.0000      -0.947013       -25.7695 
  27   2.0000      -0.936747       -25.4902 
  28   2.0000      -0.850957       -23.1557 
  29   2.0000      -0.842148       -22.9160 
  30   2.0000      -0.808732       -22.0067 
  31   2.0000      -0.774303       -21.0698 
  32   2.0000      -0.758151       -20.6303 
  33   2.0000      -0.727470       -19.7955 
  34   2.0000      -0.723340       -19.6831 
  35   2.0000      -0.722592       -19.6627 
  36   2.0000      -0.722563       -19.6619 
  37   2.0000      -0.702236       -19.1088 
  38   2.0000      -0.661080       -17.9889 
  39   2.0000      -0.640215       -17.4211 
  40   2.0000      -0.627812       -17.0836 
  41   2.0000      -0.612101       -16.6561 
  42   2.0000      -0.600109       -16.3298 
  43   2.0000      -0.599434       -16.3114 
  44   2.0000      -0.598941       -16.2980 
  45   2.0000      -0.597878       -16.2691 
  46   2.0000      -0.588565       -16.0157 
  47   2.0000      -0.586368       -15.9559 
  48   2.0000      -0.562058       -15.2944 
  49   2.0000      -0.558736       -15.2040 
  50   2.0000      -0.557271       -15.1641 
  51   2.0000      -0.550500       -14.9799 
  52   2.0000      -0.538746       -14.6600 
  53   2.0000      -0.536514       -14.5993 
  54   2.0000      -0.536031       -14.5861 
  55   2.0000      -0.527160       -14.3447 
  56   2.0000      -0.520413       -14.1612 
  57   2.0000      -0.509949       -13.8764 
  58   2.0000      -0.488545       -13.2940 
  59   2.0000      -0.473808       -12.8930 
  60   2.0000      -0.447339       -12.1727 
  61   2.0000      -0.405935       -11.0460 
  62   2.0000      -0.383735       -10.4420 
  63   2.0000      -0.381101       -10.3703 
  64   0.0000       0.003631         0.0988 
  65   0.0000       0.024771         0.6740 
  66   0.0000       0.101828         2.7709 
  67   0.0000       0.114249         3.1089 
  68   0.0000       0.135837         3.6963 
  69   0.0000       0.154605         4.2070 
  70   0.0000       0.157724         4.2919 
  71   0.0000       0.172315         4.6889 
  72   0.0000       0.190896         5.1946 
  73   0.0000       0.194858         5.3024 
  74   0.0000       0.200909         5.4670 
  75   0.0000       0.214142         5.8271 
  76   0.0000       0.218919         5.9571 
  77   0.0000       0.226235         6.1562 
  78   0.0000       0.237274         6.4566 
  79   0.0000       0.239510         6.5174 
  80   0.0000       0.249710         6.7949 
  81   0.0000       0.265015         7.2114 
  82   0.0000       0.270578         7.3628 
  83   0.0000       0.281368         7.6564 
  84   0.0000       0.288443         7.8489 
  85   0.0000       0.296848         8.0776 
  86   0.0000       0.299935         8.1616 
  87   0.0000       0.308715         8.4006 
  88   0.0000       0.313056         8.5187 
  89   0.0000       0.325155         8.8479 
  90   0.0000       0.329757         8.9731 
  91   0.0000       0.334383         9.0990 
  92   0.0000       0.339436         9.2365 
  93   0.0000       0.351485         9.5644 
  94   0.0000       0.353552         9.6206 
  95   0.0000       0.358532         9.7561 
  96   0.0000       0.362216         9.8564 
  97   0.0000       0.368764        10.0346 
  98   0.0000       0.370600        10.0845 
  99   0.0000       0.376429        10.2432 
 100   0.0000       0.399398        10.8682 
 101   0.0000       0.403196        10.9715 
 102   0.0000       0.419049        11.4029 
 103   0.0000       0.433216        11.7884 
 104   0.0000       0.443048        12.0559 
 105   0.0000       0.449128        12.2214 
 106   0.0000       0.451085        12.2746 
 107   0.0000       0.453496        12.3403 
 108   0.0000       0.460698        12.5362 
 109   0.0000       0.467060        12.7093 
 110   0.0000       0.496389        13.5074 
 111   0.0000       0.503491        13.7007 
 112   0.0000       0.511475        13.9179 
 113   0.0000       0.517727        14.0881 
 114   0.0000       0.536807        14.6073 
 115   0.0000       0.538928        14.6650 
 116   0.0000       0.555330        15.1113 
 117   0.0000       0.560434        15.2502 
 118   0.0000       0.567256        15.4358 
 119   0.0000       0.567779        15.4501 
 120   0.0000       0.588397        16.0111 
 121   0.0000       0.600186        16.3319 
 122   0.0000       0.606720        16.5097 
 123   0.0000       0.611728        16.6460 
 124   0.0000       0.615442        16.7470 
 125   0.0000       0.623027        16.9534 
 126   0.0000       0.645376        17.5616 
 127   0.0000       0.667994        18.1770 
 128   0.0000       0.669088        18.2068 
 129   0.0000       0.671707        18.2781 
 130   0.0000       0.680142        18.5076 
 131   0.0000       0.690037        18.7769 
 132   0.0000       0.701589        19.0912 
 133   0.0000       0.707861        19.2619 
 134   0.0000       0.717436        19.5224 
 135   0.0000       0.724142        19.7049 
 136   0.0000       0.731176        19.8963 
 137   0.0000       0.736387        20.0381 
 138   0.0000       0.752227        20.4691 
 139   0.0000       0.760177        20.6855 
 140   0.0000       0.775592        21.1049 
 141   0.0000       0.782380        21.2896 
 142   0.0000       0.792884        21.5755 
 143   0.0000       0.798240        21.7212 
 144   0.0000       0.804185        21.8830 
 145   0.0000       0.813571        22.1384 
 146   0.0000       0.819136        22.2898 
 147   0.0000       0.826561        22.4919 
 148   0.0000       0.829852        22.5814 
 149   0.0000       0.830866        22.6090 
 150   0.0000       0.838930        22.8284 
 151   0.0000       0.847312        23.0565 
 152   0.0000       0.849872        23.1262 
 153   0.0000       0.875271        23.8173 
 154   0.0000       0.877246        23.8711 
 155   0.0000       0.882792        24.0220 
 156   0.0000       0.890883        24.2422 
 157   0.0000       0.893037        24.3008 
 158   0.0000       0.898340        24.4451 
 159   0.0000       0.916120        24.9289 
 160   0.0000       0.943485        25.6735 
 161   0.0000       0.943908        25.6850 
 162   0.0000       0.952970        25.9316 
 163   0.0000       0.969922        26.3929 
 164   0.0000       0.974000        26.5039 
 165   0.0000       0.982302        26.7298 
 166   0.0000       0.990797        26.9610 
 167   0.0000       1.005759        27.3681 
 168   0.0000       1.010713        27.5029 
 169   0.0000       1.021689        27.8016 
 170   0.0000       1.027475        27.9590 
 171   0.0000       1.045701        28.4550 
 172   0.0000       1.046598        28.4794 
 173   0.0000       1.054796        28.7024 
 174   0.0000       1.065322        28.9889 
 175   0.0000       1.071251        29.1502 
 176   0.0000       1.076268        29.2868 
 177   0.0000       1.087044        29.5800 
 178   0.0000       1.095112        29.7995 
 179   0.0000       1.111278        30.2394 
 180   0.0000       1.122229        30.5374 
 181   0.0000       1.139766        31.0146 
 182   0.0000       1.168246        31.7896 
 183   0.0000       1.179301        32.0904 
 184   0.0000       1.182117        32.1670 
 185   0.0000       1.202109        32.7110 
 186   0.0000       1.228313        33.4241 
 187   0.0000       1.238508        33.7015 
 188   0.0000       1.248105        33.9627 
 189   0.0000       1.257199        34.2101 
 190   0.0000       1.276881        34.7457 
 191   0.0000       1.295015        35.2392 
 192   0.0000       1.300143        35.3787 
 193   0.0000       1.306387        35.5486 
 194   0.0000       1.329538        36.1786 
 195   0.0000       1.391826        37.8735 
 196   0.0000       1.396869        38.0107 
 197   0.0000       1.406688        38.2779 
 198   0.0000       1.409296        38.3489 
 199   0.0000       1.416459        38.5438 
 200   0.0000       1.422973        38.7211 
 201   0.0000       1.431916        38.9644 
 202   0.0000       1.447630        39.3920 
 203   0.0000       1.461495        39.7693 
 204   0.0000       1.473473        40.0952 
 205   0.0000       1.479407        40.2567 
 206   0.0000       1.487264        40.4705 
 207   0.0000       1.499744        40.8101 
 208   0.0000       1.513236        41.1773 
 209   0.0000       1.527089        41.5542 
 210   0.0000       1.564853        42.5818 
 211   0.0000       1.576320        42.8938 
 212   0.0000       1.611086        43.8399 
 213   0.0000       1.620132        44.0860 
 214   0.0000       1.650127        44.9022 
 215   0.0000       1.654949        45.0334 
 216   0.0000       1.655565        45.0502 
 217   0.0000       1.683782        45.8180 
 218   0.0000       1.686289        45.8863 
 219   0.0000       1.709445        46.5164 
 220   0.0000       1.739429        47.3323 
 221   0.0000       1.744224        47.4627 
 222   0.0000       1.747598        47.5546 
 223   0.0000       1.777769        48.3756 
 224   0.0000       1.794087        48.8196 
 225   0.0000       1.801125        49.0111 
 226   0.0000       1.803593        49.0783 
 227   0.0000       1.808469        49.2109 
 228   0.0000       1.825651        49.6785 
 229   0.0000       1.850195        50.3464 
 230   0.0000       1.884856        51.2895 
 231   0.0000       1.885761        51.3142 
 232   0.0000       1.890872        51.4532 
 233   0.0000       1.942109        52.8475 
 234   0.0000       1.943459        52.8842 
 235   0.0000       1.957438        53.2646 
 236   0.0000       1.975751        53.7629 
 237   0.0000       1.981357        53.9155 
 238   0.0000       1.987154        54.0732 
 239   0.0000       1.989222        54.1295 
 240   0.0000       2.039007        55.4842 
 241   0.0000       2.045804        55.6692 
 242   0.0000       2.051596        55.8268 
 243   0.0000       2.052740        55.8579 
 244   0.0000       2.061720        56.1022 
 245   0.0000       2.076031        56.4917 
 246   0.0000       2.098195        57.0948 
 247   0.0000       2.118767        57.6546 
 248   0.0000       2.127646        57.8962 
 249   0.0000       2.130243        57.9668 
 250   0.0000       2.150067        58.5063 
 251   0.0000       2.153916        58.6110 
 252   0.0000       2.182661        59.3932 
 253   0.0000       2.195114        59.7321 
 254   0.0000       2.212318        60.2002 
 255   0.0000       2.221570        60.4520 
 256   0.0000       2.222312        60.4722 
 257   0.0000       2.278023        61.9882 
 258   0.0000       2.283280        62.1312 
 259   0.0000       2.283617        62.1404 
 260   0.0000       2.291850        62.3644 
 261   0.0000       2.313490        62.9533 
 262   0.0000       2.324127        63.2427 
 263   0.0000       2.324673        63.2576 
 264   0.0000       2.361442        64.2581 
 265   0.0000       2.362228        64.2795 
 266   0.0000       2.403382        65.3994 
 267   0.0000       2.406006        65.4708 
 268   0.0000       2.426796        66.0365 
 269   0.0000       2.429867        66.1200 
 270   0.0000       2.443629        66.4945 
 271   0.0000       2.455596        66.8202 
 272   0.0000       2.467440        67.1425 
 273   0.0000       2.473505        67.3075 
 274   0.0000       2.479717        67.4765 
 275   0.0000       2.487744        67.6950 
 276   0.0000       2.499992        68.0282 
 277   0.0000       2.540024        69.1176 
 278   0.0000       2.582934        70.2852 
 279   0.0000       2.585374        70.3516 
 280   0.0000       2.597256        70.6749 
 281   0.0000       2.606314        70.9214 
 282   0.0000       2.643181        71.9246 
 283   0.0000       2.655331        72.2552 
 284   0.0000       2.667966        72.5990 
 285   0.0000       2.681868        72.9773 
 286   0.0000       2.687666        73.1351 
 287   0.0000       2.691217        73.2317 
 288   0.0000       2.714324        73.8605 
 289   0.0000       2.718401        73.9715 
 290   0.0000       2.751780        74.8797 
 291   0.0000       2.764517        75.2263 
 292   0.0000       2.780861        75.6711 
 293   0.0000       2.783638        75.7466 
 294   0.0000       2.809516        76.4508 
 295   0.0000       2.838580        77.2417 
 296   0.0000       2.877078        78.2893 
 297   0.0000       2.883218        78.4563 
 298   0.0000       2.891517        78.6822 
 299   0.0000       2.896903        78.8287 
 300   0.0000       2.900691        78.9318 
 301   0.0000       2.914818        79.3162 
 302   0.0000       2.917815        79.3978 
 303   0.0000       2.929285        79.7099 
 304   0.0000       2.947601        80.2083 
 305   0.0000       2.960648        80.5633 
 306   0.0000       2.969453        80.8029 
 307   0.0000       2.978267        81.0428 
 308   0.0000       2.990105        81.3649 
 309   0.0000       2.995828        81.5206 
 310   0.0000       3.003380        81.7261 
 311   0.0000       3.009107        81.8820 
 312   0.0000       3.017554        82.1118 
 313   0.0000       3.024225        82.2934 
 314   0.0000       3.034794        82.5809 
 315   0.0000       3.045998        82.8858 
 316   0.0000       3.049990        82.9945 
 317   0.0000       3.061237        83.3005 
 318   0.0000       3.070457        83.5514 
 319   0.0000       3.104111        84.4672 
 320   0.0000       3.107166        84.5503 
 321   0.0000       3.109146        84.6042 
 322   0.0000       3.112202        84.6873 
 323   0.0000       3.117932        84.8433 
 324   0.0000       3.153216        85.8034 
 325   0.0000       3.169966        86.2591 
 326   0.0000       3.174052        86.3704 
 327   0.0000       3.193727        86.9057 
 328   0.0000       3.198925        87.0472 
 329   0.0000       3.221334        87.6570 
 330   0.0000       3.222289        87.6829 
 331   0.0000       3.230444        87.9048 
 332   0.0000       3.237228        88.0895 
 333   0.0000       3.244496        88.2872 
 334   0.0000       3.252425        88.5030 
 335   0.0000       3.256864        88.6238 
 336   0.0000       3.260894        88.7334 
 337   0.0000       3.276966        89.1708 
 338   0.0000       3.295048        89.6628 
 339   0.0000       3.298667        89.7613 
 340   0.0000       3.307602        90.0044 
 341   0.0000       3.320586        90.3577 
 342   0.0000       3.321454        90.3813 
 343   0.0000       3.344933        91.0203 
 344   0.0000       3.348805        91.1256 
 345   0.0000       3.352748        91.2329 
 346   0.0000       3.355740        91.3143 
 347   0.0000       3.358415        91.3871 
 348   0.0000       3.381711        92.0210 
 349   0.0000       3.393651        92.3459 
 350   0.0000       3.400277        92.5262 
 351   0.0000       3.402495        92.5866 
 352   0.0000       3.435688        93.4898 
 353   0.0000       3.440377        93.6174 
 354   0.0000       3.451697        93.9255 
 355   0.0000       3.462821        94.2282 
 356   0.0000       3.476256        94.5937 
 357   0.0000       3.477780        94.6352 
 358   0.0000       3.484701        94.8235 
 359   0.0000       3.489161        94.9449 
 360   0.0000       3.512565        95.5818 
 361   0.0000       3.531751        96.1038 
 362   0.0000       3.541494        96.3690 
 363   0.0000       3.541838        96.3783 
 364   0.0000       3.567020        97.0635 
 365   0.0000       3.574513        97.2674 
 366   0.0000       3.584721        97.5452 
 367   0.0000       3.591363        97.7260 
 368   0.0000       3.592454        97.7556 
 369   0.0000       3.632218        98.8377 
 370   0.0000       3.634658        98.9041 
 371   0.0000       3.672509        99.9341 
 372   0.0000       3.689051       100.3842 
 373   0.0000       3.705763       100.8389 
 374   0.0000       3.712306       101.0170 
 375   0.0000       3.733869       101.6037 
 376   0.0000       3.751634       102.0872 
 377   0.0000       3.765471       102.4637 
 378   0.0000       3.767174       102.5100 
 379   0.0000       3.781339       102.8955 
 380   0.0000       3.795306       103.2755 
 381   0.0000       3.816749       103.8590 
 382   0.0000       3.832371       104.2841 
 383   0.0000       3.839164       104.4690 
 384   0.0000       3.845223       104.6338 
 385   0.0000       3.858042       104.9827 
 386   0.0000       3.868940       105.2792 
 387   0.0000       3.875138       105.4479 
 388   0.0000       3.913372       106.4883 
 389   0.0000       3.915912       106.5574 
 390   0.0000       3.945873       107.3726 
 391   0.0000       3.957447       107.6876 
 392   0.0000       3.970441       108.0412 
 393   0.0000       3.978015       108.2473 
 394   0.0000       3.995792       108.7310 
 395   0.0000       4.015431       109.2654 
 396   0.0000       4.020114       109.3929 
 397   0.0000       4.028083       109.6097 
 398   0.0000       4.036485       109.8383 
 399   0.0000       4.039505       109.9205 
 400   0.0000       4.054813       110.3371 
 401   0.0000       4.062907       110.5573 
 402   0.0000       4.076986       110.9404 
 403   0.0000       4.083026       111.1048 
 404   0.0000       4.092571       111.3645 
 405   0.0000       4.100261       111.5738 
 406   0.0000       4.106313       111.7384 
 407   0.0000       4.107944       111.7828 
 408   0.0000       4.117452       112.0416 
 409   0.0000       4.132241       112.4440 
 410   0.0000       4.165725       113.3551 
 411   0.0000       4.173107       113.5560 
 412   0.0000       4.178404       113.7002 
 413   0.0000       4.203703       114.3886 
 414   0.0000       4.235239       115.2467 
 415   0.0000       4.249737       115.6412 
 416   0.0000       4.260485       115.9337 
 417   0.0000       4.306019       117.1727 
 418   0.0000       4.308321       117.2354 
 419   0.0000       4.315995       117.4442 
 420   0.0000       4.318026       117.4995 
 421   0.0000       4.318936       117.5242 
 422   0.0000       4.331373       117.8626 
 423   0.0000       4.370651       118.9315 
 424   0.0000       4.394112       119.5699 
 425   0.0000       4.395596       119.6103 
 426   0.0000       4.443618       120.9170 
 427   0.0000       4.447439       121.0210 
 428   0.0000       4.453012       121.1726 
 429   0.0000       4.470010       121.6351 
 430   0.0000       4.505780       122.6085 
 431   0.0000       4.562282       124.1460 
 432   0.0000       4.598983       125.1447 
 433   0.0000       4.602396       125.2376 
 434   0.0000       4.622676       125.7894 
 435   0.0000       4.652546       126.6022 
 436   0.0000       4.682023       127.4043 
 437   0.0000       4.716284       128.3366 
 438   0.0000       4.773732       129.8998 
 439   0.0000       4.847332       131.9026 
 440   0.0000       4.851571       132.0180 
 441   0.0000       4.888476       133.0222 
 442   0.0000       4.901196       133.3683 
 443   0.0000       4.911887       133.6592 
 444   0.0000       4.932131       134.2101 
 445   0.0000       4.941448       134.4636 
 446   0.0000       4.989738       135.7777 
 447   0.0000       5.022414       136.6668 
 448   0.0000       5.034407       136.9932 
 449   0.0000       5.105950       138.9400 
 450   0.0000       5.118515       139.2819 
 451   0.0000       5.141175       139.8985 
 452   0.0000       5.157937       140.3546 
 453   0.0000       5.261848       143.1822 
 454   0.0000       5.271477       143.4442 
 455   0.0000       5.288845       143.9168 
 456   0.0000       5.335532       145.1872 
 457   0.0000       5.347383       145.5097 
 458   0.0000       5.364170       145.9665 
 459   0.0000       5.405136       147.0812 
 460   0.0000       5.406098       147.1074 
 461   0.0000       5.436867       147.9447 
 462   0.0000       5.491647       149.4353 
 463   0.0000       5.514545       150.0584 
 464   0.0000       5.569618       151.5570 
 465   0.0000       5.588988       152.0841 
 466   0.0000       5.603736       152.4854 
 467   0.0000       5.634727       153.3287 
 468   0.0000       5.655907       153.9051 
 469   0.0000       5.665395       154.1632 
 470   0.0000       5.737918       156.1367 
 471   0.0000       5.769047       156.9837 
 472   0.0000       5.908111       160.7679 
 473   0.0000       5.949430       161.8922 
 474   0.0000       5.966975       162.3696 
 475   0.0000       6.047555       164.5623 
 476   0.0000       6.119888       166.5306 
 477   0.0000       6.239559       169.7870 
 478   0.0000       6.242982       169.8802 
 479   0.0000       6.433895       175.0752 
 480   0.0000       6.547498       178.1665 
 481   0.0000       6.549374       178.2175 
 482   0.0000       6.643610       180.7818 
 483   0.0000       6.674470       181.6216 
 484   0.0000       6.741347       183.4414 
 485   0.0000       6.822588       185.6521 
 486   0.0000       6.823611       185.6799 
 487   0.0000       6.909996       188.0305 
 488   0.0000       6.910456       188.0431 
 489   0.0000       6.948821       189.0870 
 490   0.0000       6.950801       189.1409 
 491   0.0000       6.951368       189.1563 
 492   0.0000       6.954869       189.2516 
 493   0.0000       6.955184       189.2602 
 494   0.0000       6.963179       189.4777 
 495   0.0000       6.963657       189.4907 
 496   0.0000       6.967661       189.5997 
 497   0.0000       6.968368       189.6189 
 498   0.0000       6.968785       189.6303 
 499   0.0000       6.969899       189.6606 
 500   0.0000       6.976258       189.8336 
 501   0.0000       6.979726       189.9280 
 502   0.0000       6.981784       189.9840 
 503   0.0000       6.988547       190.1680 
 504   0.0000       6.990646       190.2252 
 505   0.0000       6.994014       190.3168 
 506   0.0000       7.003905       190.5859 
 507   0.0000       7.084992       192.7924 
 508   0.0000       7.091865       192.9795 
 509   0.0000       7.093194       193.0156 
 510   0.0000       7.093859       193.0337 
 511   0.0000       7.117853       193.6866 
 512   0.0000       7.125742       193.9013 
 513   0.0000       7.129954       194.0159 
 514   0.0000       7.166524       195.0110 
 515   0.0000       7.169016       195.0788 
 516   0.0000       7.194880       195.7826 
 517   0.0000       7.210109       196.1970 
 518   0.0000       7.225508       196.6161 
 519   0.0000       7.250782       197.3038 
 520   0.0000       7.253846       197.3872 
 521   0.0000       7.396582       201.2712 
 522   0.0000       7.473261       203.3578 
 523   0.0000       7.477748       203.4799 
 524   0.0000       7.481470       203.5811 
 525   0.0000       7.488391       203.7695 
 526   0.0000       7.537595       205.1084 
 527   0.0000       7.558975       205.6902 
 528   0.0000       7.590882       206.5584 
 529   0.0000       7.616656       207.2598 
 530   0.0000       7.619508       207.3374 
 531   0.0000       7.687564       209.1893 
 532   0.0000       7.704422       209.6480 
 533   0.0000       7.707265       209.7253 
 534   0.0000       7.741642       210.6608 
 535   0.0000       7.743997       210.7249 
 536   0.0000       8.400792       228.5972 
 537   0.0000       8.402424       228.6416 
 538   0.0000       8.432425       229.4579 
 539   0.0000       8.433393       229.4843 
 540   0.0000       8.443815       229.7679 
 541   0.0000       8.450469       229.9490 
 542   0.0000       8.579605       233.4629 
 543   0.0000       8.584174       233.5873 
 544   0.0000       8.605628       234.1710 
 545   0.0000       8.612458       234.3569 
 546   0.0000       8.684930       236.3290 
 547   0.0000       8.710371       237.0212 
 548   0.0000       8.807270       239.6580 
 549   0.0000       8.809925       239.7302 
 550   0.0000       8.884523       241.7602 
 551   0.0000       8.889531       241.8964 
 552   0.0000       8.917800       242.6657 
 553   0.0000       8.921138       242.7565 
 554   0.0000       9.017853       245.3882 
 555   0.0000       9.025844       245.6057 
 556   0.0000       9.073648       246.9065 
 557   0.0000       9.081863       247.1301 
 558   0.0000       9.110939       247.9212 
 559   0.0000       9.113340       247.9866 
 560   0.0000       9.128557       248.4007 
 561   0.0000       9.131554       248.4822 
 562   0.0000       9.204490       250.4669 
 563   0.0000       9.225672       251.0433 
 564   0.0000       9.276926       252.4380 
 565   0.0000       9.295320       252.9385 
 566   0.0000      22.918559       623.6457 
 567   0.0000      23.197943       631.2481 
 568   0.0000      23.208074       631.5238 
 569   0.0000      23.473794       638.7544 
 570   0.0000      23.491793       639.2442 
 571   0.0000      23.543830       640.6602 
 572   0.0000      23.629193       642.9830 
 573   0.0000      23.814409       648.0230 
 574   0.0000      24.309086       661.4839 
 575   0.0000      44.332560      1206.3503 
 576   0.0000      44.450115      1209.5491 
 577   0.0000      57.599456      1567.3609 
 578   0.0000      57.672067      1569.3367 
 579   0.0000      57.750865      1571.4809 
 580   0.0000      57.765640      1571.8830 
 581   0.0000      57.883500      1575.0901 
 582   0.0000      57.944653      1576.7542 

                    ********************************
                    * MULLIKEN POPULATION ANALYSIS *
                    ********************************

-----------------------
MULLIKEN ATOMIC CHARGES
-----------------------
   0 O :   -0.338960
   1 C :    0.350074
   2 O :   -0.257037
   3 C :   -0.019000
   4 C :   -0.095985
   5 C :   -0.023520
   6 C :    0.505963
   7 F :   -0.171304
   8 F :   -0.175229
   9 F :   -0.175176
  10 C :   -0.107227
  11 C :   -0.033690
  12 C :    0.505740
  13 F :   -0.172633
  14 F :   -0.174759
  15 F :   -0.174509
  16 C :   -0.120012
  17 H :    0.211781
  18 H :    0.153853
  19 H :    0.156637
  20 H :    0.154994
Sum of atomic charges:    0.0000000

--------------------------------
MULLIKEN REDUCED ORBITAL CHARGES
--------------------------------
  0 O s       :     3.794854  s :     3.794854
      pz      :     1.409018  p :     4.510620
      px      :     1.501793
      py      :     1.599809
      dz2     :     0.002777  d :     0.031481
      dxz     :     0.007077
      dyz     :     0.004578
      dx2y2   :     0.007775
      dxy     :     0.009273
      f0      :     0.000210  f :     0.002004
      f+1     :     0.000144
      f-1     :     0.000092
      f+2     :     0.000036
      f-2     :     0.000457
      f+3     :     0.000561
      f-3     :     0.000505
  1 C s       :     3.036204  s :     3.036204
      pz      :     0.739577  p :     2.326674
      px      :     0.695388
      py      :     0.891709
      dz2     :     0.008515  d :     0.262426
      dxz     :     0.067311
      dyz     :     0.033063
      dx2y2   :     0.103127
      dxy     :     0.050409
      f0      :     0.003118  f :     0.024622
      f+1     :     0.001477
      f-1     :     0.001142
      f+2     :     0.001786
      f-2     :     0.003304
      f+3     :     0.008924
      f-3     :     0.004871
  2 O s       :     3.738846  s :     3.738846
      pz      :     1.750158  p :     4.491317
      px      :     1.450026
      py      :     1.291133
      dz2     :     0.003381  d :     0.025619
      dxz     :     0.005492
      dyz     :     0.000389
      dx2y2   :     0.010819
      dxy     :     0.005538
      f0      :     0.000226  f :     0.001257
      f+1     :     0.000275
      f-1     :     0.000159
      f+2     :     0.000081
      f-2     :     0.000067
      f+3     :     0.000174
      f-3     :     0.000275
  3 C s       :     3.262487  s :     3.262487
      pz      :     0.996831  p :     2.646841
      px      :     0.852076
      py      :     0.797934
      dz2     :     0.006644  d :     0.099761
      dxz     :     0.022083
      dyz     :     0.012100
      dx2y2   :     0.030911
      dxy     :     0.028022
      f0      :     0.001878  f :     0.009912
      f+1     :     0.000697
      f-1     :     0.000874
      f+2     :     0.000464
      f-2     :     0.000954
      f+3     :     0.003228
      f-3     :     0.001815
  4 C s       :     3.177857  s :     3.177857
      pz      :     0.877100  p :     2.823235
      px      :     0.993091
      py      :     0.953044
      dz2     :     0.002632  d :     0.087087
      dxz     :     0.013075
      dyz     :     0.019496
      dx2y2   :     0.018814
      dxy     :     0.033071
      f0      :     0.001481  f :     0.007805
      f+1     :     0.000517
      f-1     :     0.000570
      f+2     :     0.001062
      f-2     :     0.000388
      f+3     :     0.002522
      f-3     :     0.001265
  5 C s       :     3.275900  s :     3.275900
      pz      :     1.000263  p :     2.637530
      px      :     0.803284
      py      :     0.833982
      dz2     :     0.005933  d :     0.100261
      dxz     :     0.009972
      dyz     :     0.021439
      dx2y2   :     0.025073
      dxy     :     0.037845
      f0      :     0.001867  f :     0.009830
      f+1     :     0.000966
      f-1     :     0.000782
      f+2     :     0.000677
      f-2     :     0.000874
      f+3     :     0.002887
      f-3     :     0.001777
  6 C s       :     2.983759  s :     2.983759
      pz      :     0.627180  p :     2.139988
      px      :     0.835447
      py      :     0.677361
      dz2     :     0.068894  d :     0.330645
      dxz     :     0.078292
      dyz     :     0.066253
      dx2y2   :     0.066089
      dxy     :     0.051118
      f0      :     0.008872  f :     0.039645
      f+1     :     0.003994
      f-1     :     0.004640
      f+2     :     0.004145
      f-2     :     0.008927
      f+3     :     0.004954
      f-3     :     0.004113
  7 F s       :     3.908250  s :     3.908250
      pz      :     1.893343  p :     5.245897
      px      :     1.657401
      py      :     1.695153
      dz2     :     0.002429  d :     0.016392
      dxz     :     0.001725
      dyz     :     0.001555
      dx2y2   :     0.003473
      dxy     :     0.007210
      f0      :     0.000060  f :     0.000765
      f+1     :     0.000090
      f-1     :     0.000082
      f+2     :     0.000007
      f-2     :     0.000099
      f+3     :     0.000210
      f-3     :     0.000216
  8 F s       :     3.905066  s :     3.905066
      pz      :     1.620000  p :     5.253384
      px      :     1.893344
      py      :     1.740040
      dz2     :     0.004281  d :     0.016031
      dxz     :     0.002231
      dyz     :     0.006541
      dx2y2   :     0.001541
      dxy     :     0.001436
      f0      :     0.000118  f :     0.000749
      f+1     :     0.000056
      f-1     :     0.000279
      f+2     :     0.000144
      f-2     :     0.000104
      f+3     :     0.000025
      f-3     :     0.000024
  9 F s       :     3.905004  s :     3.905004
      pz      :     1.618376  p :     5.253393
      px      :     1.893225
      py      :     1.741792
      dz2     :     0.004321  d :     0.016030
      dxz     :     0.002246
      dyz     :     0.006520
      dx2y2   :     0.001519
      dxy     :     0.001424
      f0      :     0.000119  f :     0.000749
      f+1     :     0.000057
      f-1     :     0.000279
      f+2     :     0.000143
      f-2     :     0.000104
      f+3     :     0.000025
      f-3     :     0.000023
 10 C s       :     3.174396  s :     3.174396
      pz      :     0.891772  p :     2.837913
      px      :     0.929214
      py      :     1.016928
      dz2     :     0.003158  d :     0.087099
      dxz     :     0.025313
      dyz     :     0.007320
      dx2y2   :     0.033786
      dxy     :     0.017522
      f0      :     0.001509  f :     0.007820
      f+1     :     0.000618
      f-1     :     0.000507
      f+2     :     0.000354
      f-2     :     0.001093
      f+3     :     0.002438
      f-3     :     0.001301
 11 C s       :     3.281130  s :     3.281130
      pz      :     0.998468  p :     2.641749
      px      :     0.821434
      py      :     0.821846
      dz2     :     0.005770  d :     0.100985
      dxz     :     0.015383
      dyz     :     0.016320
      dx2y2   :     0.030163
      dxy     :     0.033349
      f0      :     0.001871  f :     0.009827
      f+1     :     0.000977
      f-1     :     0.000770
      f+2     :     0.001034
      f-2     :     0.000528
      f+3     :     0.002897
      f-3     :     0.001750
 12 C s       :     2.984892  s :     2.984892
      pz      :     0.626890  p :     2.139394
      px      :     0.814808
      py      :     0.697696
      dz2     :     0.068826  d :     0.330340
      dxz     :     0.061193
      dyz     :     0.083217
      dx2y2   :     0.058685
      dxy     :     0.058419
      f0      :     0.008866  f :     0.039635
      f+1     :     0.004572
      f-1     :     0.004081
      f+2     :     0.007144
      f-2     :     0.005914
      f+3     :     0.004900
      f-3     :     0.004159
 13 F s       :     3.908474  s :     3.908474
      pz      :     1.893882  p :     5.247080
      px      :     1.875380
      py      :     1.477818
      dz2     :     0.002420  d :     0.016319
      dxz     :     0.000317
      dyz     :     0.002948
      dx2y2   :     0.006449
      dxy     :     0.004185
      f0      :     0.000060  f :     0.000760
      f+1     :     0.000019
      f-1     :     0.000152
      f+2     :     0.000075
      f-2     :     0.000031
      f+3     :     0.000210
      f-3     :     0.000213
 14 F s       :     3.905060  s :     3.905060
      pz      :     1.624960  p :     5.252890
      px      :     1.745579
      py      :     1.882352
      dz2     :     0.004165  d :     0.016059
      dxz     :     0.006332
      dyz     :     0.002469
      dx2y2   :     0.001627
      dxy     :     0.001466
      f0      :     0.000114  f :     0.000750
      f+1     :     0.000260
      f-1     :     0.000069
      f+2     :     0.000133
      f-2     :     0.000121
      f+3     :     0.000027
      f-3     :     0.000026
 15 F s       :     3.904721  s :     3.904721
      pz      :     1.612754  p :     5.252986
      px      :     1.754529
      py      :     1.885703
      dz2     :     0.004463  d :     0.016052
      dxz     :     0.006293
      dyz     :     0.002461
      dx2y2   :     0.001506
      dxy     :     0.001329
      f0      :     0.000123  f :     0.000750
      f+1     :     0.000270
      f-1     :     0.000071
      f+2     :     0.000128
      f-2     :     0.000112
      f+3     :     0.000023
      f-3     :     0.000022
 16 C s       :     3.194553  s :     3.194553
      pz      :     0.884231  p :     2.830220
      px      :     1.008153
      py      :     0.937836
      dz2     :     0.003116  d :     0.087454
      dxz     :     0.009791
      dyz     :     0.021888
      dx2y2   :     0.029946
      dxy     :     0.022712
      f0      :     0.001471  f :     0.007784
      f+1     :     0.000527
      f-1     :     0.000598
      f+2     :     0.000726
      f-2     :     0.000689
      f+3     :     0.002456
      f-3     :     0.001317
 17 H s       :     0.700346  s :     0.700346
      pz      :     0.027549  p :     0.078240
      px      :     0.016054
      py      :     0.034638
      dz2     :     0.001030  d :     0.009633
      dxz     :     0.000019
      dyz     :     0.003140
      dx2y2   :     0.003202
      dxy     :     0.002242
 18 H s       :     0.807411  s :     0.807411
      pz      :     0.008223  p :     0.036224
      px      :     0.015022
      py      :     0.012979
      dz2     :     0.000137  d :     0.002511
      dxz     :     0.000406
      dyz     :     0.000264
      dx2y2   :     0.001054
      dxy     :     0.000651
 19 H s       :     0.804486  s :     0.804486
      pz      :     0.008390  p :     0.036384
      px      :     0.009185
      py      :     0.018808
      dz2     :     0.000150  d :     0.002494
      dxz     :     0.000028
      dyz     :     0.000651
      dx2y2   :     0.000589
      dxy     :     0.001075
 20 H s       :     0.806778  s :     0.806778
      pz      :     0.008292  p :     0.035739
      px      :     0.017578
      py      :     0.009869
      dz2     :     0.000141  d :     0.002489
      dxz     :     0.000564
      dyz     :     0.000119
      dx2y2   :     0.000881
      dxy     :     0.000785


                     *******************************
                     * LOEWDIN POPULATION ANALYSIS *
                     *******************************

----------------------
LOEWDIN ATOMIC CHARGES
----------------------
   0 O :    0.108278
   1 C :   -0.423496
   2 O :    0.364650
   3 C :   -0.073918
   4 C :    0.070968
   5 C :   -0.081666
   6 C :   -0.645006
   7 F :    0.214474
   8 F :    0.199520
   9 F :    0.199479
  10 C :    0.064639
  11 C :   -0.081306
  12 C :   -0.643831
  13 F :    0.212332
  14 F :    0.200572
  15 F :    0.200179
  16 C :    0.065297
  17 H :   -0.078949
  18 H :    0.040419
  19 H :    0.044245
  20 H :    0.043121

-------------------------------
LOEWDIN REDUCED ORBITAL CHARGES
-------------------------------
  0 O s       :     3.390157  s :     3.390157
      pz      :     1.322667  p :     4.428065
      px      :     1.543300
      py      :     1.562098
      dz2     :     0.008240  d :     0.067160
      dxz     :     0.009003
      dyz     :     0.005376
      dx2y2   :     0.019090
      dxy     :     0.025451
      f0      :     0.000455  f :     0.006341
      f+1     :     0.000712
      f-1     :     0.000433
      f+2     :     0.000103
      f-2     :     0.000768
      f+3     :     0.001895
      f-3     :     0.001975
  1 C s       :     2.738260  s :     2.738260
      pz      :     0.715956  p :     2.593742
      px      :     0.897406
      py      :     0.980380
      dz2     :     0.060952  d :     0.937303
      dxz     :     0.181936
      dyz     :     0.092617
      dx2y2   :     0.365982
      dxy     :     0.235816
      f0      :     0.009600  f :     0.154190
      f+1     :     0.012018
      f-1     :     0.006776
      f+2     :     0.011579
      f-2     :     0.024524
      f+3     :     0.057650
      f-3     :     0.032043
  2 O s       :     3.217337  s :     3.217337
      pz      :     1.569178  p :     4.341685
      px      :     1.447597
      py      :     1.324910
      dz2     :     0.009061  d :     0.070925
      dxz     :     0.009266
      dyz     :     0.001298
      dx2y2   :     0.033153
      dxy     :     0.018146
      f0      :     0.000341  f :     0.005403
      f+1     :     0.000505
      f-1     :     0.000464
      f+2     :     0.000550
      f-2     :     0.000120
      f+3     :     0.001780
      f-3     :     0.001644
  3 C s       :     2.699040  s :     2.699040
      pz      :     0.867278  p :     2.847423
      px      :     1.027197
      py      :     0.952948
      dz2     :     0.034002  d :     0.472672
      dxz     :     0.071802
      dyz     :     0.041362
      dx2y2   :     0.186364
      dxy     :     0.139143
      f0      :     0.003857  f :     0.054783
      f+1     :     0.004243
      f-1     :     0.004442
      f+2     :     0.003771
      f-2     :     0.006861
      f+3     :     0.020705
      f-3     :     0.010903
  4 C s       :     2.706409  s :     2.706409
      pz      :     0.781725  p :     2.786973
      px      :     1.001661
      py      :     1.003586
      dz2     :     0.025733  d :     0.390511
      dxz     :     0.039539
      dyz     :     0.059556
      dx2y2   :     0.113254
      dxy     :     0.152430
      f0      :     0.002638  f :     0.045140
      f+1     :     0.003339
      f-1     :     0.003770
      f+2     :     0.007863
      f-2     :     0.002722
      f+3     :     0.015549
      f-3     :     0.009258
  5 C s       :     2.703521  s :     2.703521
      pz      :     0.871947  p :     2.852806
      px      :     0.953568
      py      :     1.027290
      dz2     :     0.033912  d :     0.470404
      dxz     :     0.042820
      dyz     :     0.070424
      dx2y2   :     0.154395
      dxy     :     0.168853
      f0      :     0.003796  f :     0.054936
      f+1     :     0.004771
      f-1     :     0.004599
      f+2     :     0.005060
      f-2     :     0.005872
      f+3     :     0.019611
      f-3     :     0.011227
  6 C s       :     2.737401  s :     2.737401
      pz      :     0.768835  p :     2.491653
      px      :     0.926065
      py      :     0.796753
      dz2     :     0.250243  d :     1.151339
      dxz     :     0.179949
      dyz     :     0.283064
      dx2y2   :     0.195546
      dxy     :     0.242537
      f0      :     0.046842  f :     0.264613
      f+1     :     0.029700
      f-1     :     0.043492
      f+2     :     0.034609
      f-2     :     0.049692
      f+3     :     0.032058
      f-3     :     0.028219
  7 F s       :     3.589341  s :     3.589341
      pz      :     1.815528  p :     5.164199
      px      :     1.656424
      py      :     1.692246
      dz2     :     0.004476  d :     0.030361
      dxz     :     0.002558
      dyz     :     0.002815
      dx2y2   :     0.007189
      dxy     :     0.013323
      f0      :     0.000135  f :     0.001625
      f+1     :     0.000182
      f-1     :     0.000150
      f+2     :     0.000009
      f-2     :     0.000228
      f+3     :     0.000484
      f-3     :     0.000437
  8 F s       :     3.596354  s :     3.596354
      pz      :     1.638997  p :     5.172701
      px      :     1.814602
      py      :     1.719103
      dz2     :     0.007729  d :     0.029846
      dxz     :     0.004310
      dyz     :     0.012179
      dx2y2   :     0.002557
      dxy     :     0.003071
      f0      :     0.000289  f :     0.001580
      f+1     :     0.000117
      f-1     :     0.000516
      f+2     :     0.000279
      f-2     :     0.000268
      f+3     :     0.000064
      f-3     :     0.000048
  9 F s       :     3.596383  s :     3.596383
      pz      :     1.637943  p :     5.172713
      px      :     1.814545
      py      :     1.720225
      dz2     :     0.007802  d :     0.029845
      dxz     :     0.004342
      dyz     :     0.012140
      dx2y2   :     0.002516
      dxy     :     0.003046
      f0      :     0.000292  f :     0.001580
      f+1     :     0.000119
      f-1     :     0.000516
      f+2     :     0.000276
      f-2     :     0.000267
      f+3     :     0.000062
      f-3     :     0.000047
 10 C s       :     2.705960  s :     2.705960
      pz      :     0.790719  p :     2.792778
      px      :     1.003007
      py      :     0.999052
      dz2     :     0.026043  d :     0.391249
      dxz     :     0.080891
      dyz     :     0.019158
      dx2y2   :     0.153854
      dxy     :     0.111303
      f0      :     0.002648  f :     0.045373
      f+1     :     0.004119
      f-1     :     0.003105
      f+2     :     0.002574
      f-2     :     0.008227
      f+3     :     0.015492
      f-3     :     0.009208
 11 C s       :     2.703530  s :     2.703530
      pz      :     0.871507  p :     2.852112
      px      :     0.978641
      py      :     1.001964
      dz2     :     0.033968  d :     0.470629
      dxz     :     0.055127
      dyz     :     0.058647
      dx2y2   :     0.138282
      dxy     :     0.184605
      f0      :     0.003807  f :     0.055035
      f+1     :     0.004949
      f-1     :     0.004426
      f+2     :     0.007179
      f-2     :     0.003814
      f+3     :     0.019611
      f-3     :     0.011249
 12 C s       :     2.737371  s :     2.737371
      pz      :     0.769084  p :     2.491113
      px      :     0.896562
      py      :     0.825467
      dz2     :     0.250554  d :     1.150857
      dxz     :     0.259327
      dyz     :     0.203480
      dx2y2   :     0.213616
      dxy     :     0.223880
      f0      :     0.046854  f :     0.264490
      f+1     :     0.039511
      f-1     :     0.033772
      f+2     :     0.047376
      f-2     :     0.036855
      f+3     :     0.031818
      f-3     :     0.028305
 13 F s       :     3.590243  s :     3.590243
      pz      :     1.816348  p :     5.165570
      px      :     1.804358
      py      :     1.544864
      dz2     :     0.004464  d :     0.030239
      dxz     :     0.000576
      dyz     :     0.004777
      dx2y2   :     0.012350
      dxy     :     0.008073
      f0      :     0.000134  f :     0.001615
      f+1     :     0.000040
      f-1     :     0.000290
      f+2     :     0.000159
      f-2     :     0.000077
      f+3     :     0.000482
      f-3     :     0.000433
 14 F s       :     3.595953  s :     3.595953
      pz      :     1.642201  p :     5.172002
      px      :     1.721194
      py      :     1.808606
      dz2     :     0.007512  d :     0.029890
      dxz     :     0.012104
      dyz     :     0.004423
      dx2y2   :     0.003341
      dxy     :     0.002509
      f0      :     0.000281  f :     0.001584
      f+1     :     0.000480
      f-1     :     0.000144
      f+2     :     0.000300
      f-2     :     0.000260
      f+3     :     0.000068
      f-3     :     0.000052
 15 F s       :     3.596196  s :     3.596196
      pz      :     1.634321  p :     5.172164
      px      :     1.727103
      py      :     1.810740
      dz2     :     0.008067  d :     0.029879
      dxz     :     0.012064
      dyz     :     0.004404
      dx2y2   :     0.003076
      dxy     :     0.002268
      f0      :     0.000301  f :     0.001583
      f+1     :     0.000497
      f-1     :     0.000150
      f+2     :     0.000288
      f-2     :     0.000244
      f+3     :     0.000058
      f-3     :     0.000045
 16 C s       :     2.706736  s :     2.706736
      pz      :     0.787149  p :     2.793162
      px      :     1.002463
      py      :     1.003550
      dz2     :     0.025839  d :     0.389743
      dxz     :     0.028033
      dyz     :     0.070237
      dx2y2   :     0.132504
      dxy     :     0.133131
      f0      :     0.002605  f :     0.045062
      f+1     :     0.003262
      f-1     :     0.003913
      f+2     :     0.005515
      f-2     :     0.005073
      f+3     :     0.015502
      f-3     :     0.009192
 17 H s       :     0.663961  s :     0.663961
      pz      :     0.090452  p :     0.318915
      px      :     0.068923
      py      :     0.159540
      dz2     :     0.007923  d :     0.096073
      dxz     :     0.000060
      dyz     :     0.033072
      dx2y2   :     0.025055
      dxy     :     0.029963
 18 H s       :     0.780061  s :     0.780061
      pz      :     0.034601  p :     0.149722
      px      :     0.062228
      py      :     0.052893
      dz2     :     0.002822  d :     0.029798
      dxz     :     0.004956
      dyz     :     0.003031
      dx2y2   :     0.009616
      dxy     :     0.009373
 19 H s       :     0.778751  s :     0.778751
      pz      :     0.035459  p :     0.147424
      px      :     0.034143
      py      :     0.077822
      dz2     :     0.002851  d :     0.029580
      dxz     :     0.000177
      dyz     :     0.007931
      dx2y2   :     0.009081
      dxy     :     0.009540
 20 H s       :     0.779852  s :     0.779852
      pz      :     0.035101  p :     0.147391
      px      :     0.070154
      py      :     0.042136
      dz2     :     0.002832  d :     0.029636
      dxz     :     0.006735
      dyz     :     0.001334
      dx2y2   :     0.009489
      dxy     :     0.009247


                      *****************************
                      * MAYER POPULATION ANALYSIS *
                      *****************************

  NA   - Mulliken gross atomic population
  ZA   - Total nuclear charge
  QA   - Mulliken gross atomic charge
  VA   - Mayer's total valence
  BVA  - Mayer's bonded valence
  FA   - Mayer's free valence

  ATOM       NA         ZA         QA         VA         BVA        FA
  0 O      8.3390     8.0000    -0.3390     2.1706     2.1706    -0.0000
  1 C      5.6499     6.0000     0.3501     4.3389     4.3389    -0.0000
  2 O      8.2570     8.0000    -0.2570     2.1866     2.1866    -0.0000
  3 C      6.0190     6.0000    -0.0190     3.6394     3.6394     0.0000
  4 C      6.0960     6.0000    -0.0960     3.9894     3.9894     0.0000
  5 C      6.0235     6.0000    -0.0235     3.7268     3.7268     0.0000
  6 C      5.4940     6.0000     0.5060     4.5158     4.5158     0.0000
  7 F      9.1713     9.0000    -0.1713     1.1314     1.1314     0.0000
  8 F      9.1752     9.0000    -0.1752     1.1169     1.1169    -0.0000
  9 F      9.1752     9.0000    -0.1752     1.1168     1.1168    -0.0000
 10 C      6.1072     6.0000    -0.1072     4.0300     4.0300     0.0000
 11 C      6.0337     6.0000    -0.0337     3.7295     3.7295    -0.0000
 12 C      5.4943     6.0000     0.5057     4.5101     4.5101    -0.0000
 13 F      9.1726     9.0000    -0.1726     1.1293     1.1293     0.0000
 14 F      9.1748     9.0000    -0.1748     1.1177     1.1177     0.0000
 15 F      9.1745     9.0000    -0.1745     1.1173     1.1173     0.0000
 16 C      6.1200     6.0000    -0.1200     4.0447     4.0447     0.0000
 17 H      0.7882     1.0000     0.2118     1.0339     1.0339    -0.0000
 18 H      0.8461     1.0000     0.1539     1.0314     1.0314    -0.0000
 19 H      0.8434     1.0000     0.1566     1.0181     1.0181     0.0000
 20 H      0.8450     1.0000     0.1550     1.0268     1.0268     0.0000

  Mayer bond orders larger than 0.100000
B(  0-O ,  1-C ) :   2.0987 B(  1-C ,  2-O ) :   1.2446 B(  1-C ,  3-C ) :   0.9543 
B(  2-O ,  3-C ) :  -0.1235 B(  2-O , 17-H ) :   0.9622 B(  3-C ,  4-C ) :   1.3728 
B(  3-C , 16-C ) :   1.4260 B(  4-C ,  5-C ) :   1.4347 B(  4-C , 18-H ) :   0.9156 
B(  5-C ,  6-C ) :   0.9859 B(  5-C , 10-C ) :   1.3871 B(  6-C ,  7-F ) :   1.1606 
B(  6-C ,  8-F ) :   1.1575 B(  6-C ,  9-F ) :   1.1576 B( 10-C , 11-C ) :   1.4274 
B( 10-C , 19-H ) :   0.9184 B( 11-C , 12-C ) :   0.9847 B( 11-C , 16-C ) :   1.3937 
B( 12-C , 13-F ) :   1.1572 B( 12-C , 14-F ) :   1.1576 B( 12-C , 15-F ) :   1.1585 
B( 16-C , 20-H ) :   0.9227 

-------
TIMINGS
-------

Total SCF time: 0 days 0 hours 1 min 42 sec 

Total time                  ....     102.164 sec
Sum of individual times     ....     100.800 sec  ( 98.7%)

Fock matrix formation       ....      97.541 sec  ( 95.5%)
  Split-RI-J                ....       4.495 sec  (  4.6% of F)
  Chain of spheres X        ....      79.458 sec  ( 81.5% of F)
  XC integration            ....       8.815 sec  (  9.0% of F)
    Basis function eval.    ....       1.025 sec  ( 11.6% of XC)
    Density eval.           ....       3.198 sec  ( 36.3% of XC)
    XC-Functional eval.     ....       0.453 sec  (  5.1% of XC)
    XC-Potential eval.      ....       3.467 sec  ( 39.3% of XC)
Diagonalization             ....       0.565 sec  (  0.6%)
Density matrix formation    ....       0.037 sec  (  0.0%)
Population analysis         ....       0.086 sec  (  0.1%)
Initial guess               ....       0.370 sec  (  0.4%)
Orbital Transformation      ....       0.000 sec  (  0.0%)
Orbital Orthonormalization  ....       0.000 sec  (  0.0%)
DIIS solution               ....       0.254 sec  (  0.2%)
SOSCF solution              ....       0.300 sec  (  0.3%)
Grid generation             ....       1.646 sec  (  1.6%)

Maximum memory used throughout the entire SCF-calculation: 113.5 MB

-------------------------   --------------------
FINAL SINGLE POINT ENERGY     -1095.126800283479
-------------------------   --------------------


                            ***************************************
                            *     ORCA property calculations      *
                            ***************************************

                                    ---------------------
                                    Active property flags
                                    ---------------------
   (+) Dipole Moment


------------------------------------------------------------------------------
                       ORCA ELECTRIC PROPERTIES CALCULATION
------------------------------------------------------------------------------

Dipole Moment Calculation                       ... on
Quadrupole Moment Calculation                   ... off
Polarizability Calculation                      ... off
GBWName                                         ... /tmp/265178/Ac3_rdkit_conf_1_spc.gbw
Electron density                                ... /tmp/265178/Ac3_rdkit_conf_1_spc.scfp
The origin for moment calculation is the CENTER OF MASS  = (-0.018044, -0.101077 -0.000042)

-------------
DIPOLE MOMENT
-------------
                                X             Y             Z
Electronic contribution:     -1.60223     -12.36899      -0.00358
Nuclear contribution   :      2.30958      12.93781       0.00542
                        -----------------------------------------
Total Dipole Moment    :      0.70735       0.56882       0.00184
                        -----------------------------------------
Magnitude (a.u.)       :      0.90769
Magnitude (Debye)      :      2.30716



--------------------
Rotational spectrum 
--------------------
 
Rotational constants in cm-1:     0.015475     0.012449     0.007432 
Rotational constants in MHz :   463.943767   373.199761   222.818161 

 Dipole components along the rotational axes: 
x,y,z [a.u.] :    -0.684932     0.595619     0.001837 
x,y,z [Debye]:    -1.740960     1.513944     0.004668 

 

Timings for individual modules:

Sum of individual times         ...      103.119 sec (=   1.719 min)
GTO integral calculation        ...        0.704 sec (=   0.012 min)   0.7 %
SCF iterations                  ...      102.415 sec (=   1.707 min)  99.3 %
                             ****ORCA TERMINATED NORMALLY****
TOTAL RUN TIME: 0 days 0 hours 1 minutes 43 seconds 654 msec
