Job Start Time: Thu May  9 18:50:35 MDT 2024
SLURM Job ID: 265179
SLURM Job Name: Ac4_rdkit_conf_1_spc
SLURM Job Nodes: node08
SLURM Memory / CPU: 8000

                                 *****************
                                 * O   R   C   A *
                                 *****************

                                            #,                                       
                                            ###                                      
                                            ####                                     
                                            #####                                    
                                            ######                                   
                                           ########,                                 
                                     ,,################,,,,,                         
                               ,,#################################,,                 
                          ,,##########################################,,             
                       ,#########################################, ''#####,          
                    ,#############################################,,   '####,        
                  ,##################################################,,,,####,       
                ,###########''''           ''''###############################       
              ,#####''   ,,,,##########,,,,          '''####'''          '####       
            ,##' ,,,,###########################,,,                        '##       
           ' ,,###''''                  '''############,,,                           
         ,,##''                                '''############,,,,        ,,,,,,###''
      ,#''                                            '''#######################'''  
     '                                                          ''''####''''         
             ,#######,   #######,   ,#######,      ##                                
            ,#'     '#,  ##    ##  ,#'     '#,    #''#        ######   ,####,        
            ##       ##  ##   ,#'  ##            #'  '#       #        #'  '#        
            ##       ##  #######   ##           ,######,      #####,   #    #        
            '#,     ,#'  ##    ##  '#,     ,#' ,#      #,         ##   #,  ,#        
             '#######'   ##     ##  '#######'  #'      '#     #####' # '####'        



                  #######################################################
                  #                        -***-                        #
                  #          Department of theory and spectroscopy      #
                  #    Directorship and core code : Frank Neese         #
                  #        Max Planck Institute fuer Kohlenforschung    #
                  #                Kaiser Wilhelm Platz 1               #
                  #                 D-45470 Muelheim/Ruhr               #
                  #                      Germany                        #
                  #                                                     #
                  #                  All rights reserved                #
                  #                        -***-                        #
                  #######################################################


                         Program Version 5.0.3 -  RELEASE  -


 With contributions from (in alphabetic order):
   Daniel Aravena         : Magnetic Suceptibility
   Michael Atanasov       : Ab Initio Ligand Field Theory (pilot matlab implementation)
   Alexander A. Auer      : GIAO ZORA, VPT2 properties, NMR spectrum
   Ute Becker             : Parallelization
   Giovanni Bistoni       : ED, misc. LED, open-shell LED, HFLD
   Martin Brehm           : Molecular dynamics
   Dmytro Bykov           : SCF Hessian
   Vijay G. Chilkuri      : MRCI spin determinant printing, contributions to CSF-ICE
   Dipayan Datta          : RHF DLPNO-CCSD density
   Achintya Kumar Dutta   : EOM-CC, STEOM-CC
   Dmitry Ganyushin       : Spin-Orbit,Spin-Spin,Magnetic field MRCI
   Miquel Garcia          : C-PCM and meta-GGA Hessian, CC/C-PCM, Gaussian charge scheme
   Yang Guo               : DLPNO-NEVPT2, F12-NEVPT2, CIM, IAO-localization
   Andreas Hansen         : Spin unrestricted coupled pair/coupled cluster methods
   Benjamin Helmich-Paris : MC-RPA, TRAH-SCF, COSX integrals
   Lee Huntington         : MR-EOM, pCC
   Robert Izsak           : Overlap fitted RIJCOSX, COSX-SCS-MP3, EOM
   Marcus Kettner         : VPT2
   Christian Kollmar      : KDIIS, OOCD, Brueckner-CCSD(T), CCSD density, CASPT2, CASPT2-K
   Simone Kossmann        : Meta GGA functionals, TD-DFT gradient, OOMP2, MP2 Hessian
   Martin Krupicka        : Initial AUTO-CI
   Lucas Lang             : DCDCAS
   Marvin Lechner         : AUTO-CI (C++ implementation), FIC-MRCC
   Dagmar Lenk            : GEPOL surface, SMD
   Dimitrios Liakos       : Extrapolation schemes; Compound Job, initial MDCI parallelization
   Dimitrios Manganas     : Further ROCIS development; embedding schemes
   Dimitrios Pantazis     : SARC Basis sets
   Anastasios Papadopoulos: AUTO-CI, single reference methods and gradients
   Taras Petrenko         : DFT Hessian,TD-DFT gradient, ASA, ECA, R-Raman, ABS, FL, XAS/XES, NRVS
   Peter Pinski           : DLPNO-MP2, DLPNO-MP2 Gradient
   Christoph Reimann      : Effective Core Potentials
   Marius Retegan         : Local ZFS, SOC
   Christoph Riplinger    : Optimizer, TS searches, QM/MM, DLPNO-CCSD(T), (RO)-DLPNO pert. Triples
   Tobias Risthaus        : Range-separated hybrids, TD-DFT gradient, RPA, STAB
   Michael Roemelt        : Original ROCIS implementation
   Masaaki Saitow         : Open-shell DLPNO-CCSD energy and density
   Barbara Sandhoefer     : DKH picture change effects
   Avijit Sen             : IP-ROCIS
   Kantharuban Sivalingam : CASSCF convergence, NEVPT2, FIC-MRCI
   Bernardo de Souza      : ESD, SOC TD-DFT
   Georgi Stoychev        : AutoAux, RI-MP2 NMR, DLPNO-MP2 response
   Willem Van den Heuvel  : Paramagnetic NMR
   Boris Wezisla          : Elementary symmetry handling
   Frank Wennmohs         : Technical directorship


 We gratefully acknowledge several colleagues who have allowed us to
 interface, adapt or use parts of their codes:
   Stefan Grimme, W. Hujo, H. Kruse, P. Pracht,  : VdW corrections, initial TS optimization,
                  C. Bannwarth, S. Ehlert          DFT functionals, gCP, sTDA/sTD-DF
   Ed Valeev, F. Pavosevic, A. Kumar             : LibInt (2-el integral package), F12 methods
   Garnet Chan, S. Sharma, J. Yang, R. Olivares  : DMRG
   Ulf Ekstrom                                   : XCFun DFT Library
   Mihaly Kallay                                 : mrcc  (arbitrary order and MRCC methods)
   Jiri Pittner, Ondrej Demel                    : Mk-CCSD
   Frank Weinhold                                : gennbo (NPA and NBO analysis)
   Christopher J. Cramer and Donald G. Truhlar   : smd solvation model
   Lars Goerigk                                  : TD-DFT with DH, B97 family of functionals
   V. Asgeirsson, H. Jonsson                     : NEB implementation
   FAccTs GmbH                                   : IRC, NEB, NEB-TS, DLPNO-Multilevel, CI-OPT
                                                   MM, QMMM, 2- and 3-layer-ONIOM, Crystal-QMMM,
                                                   LR-CPCM, SF, NACMEs, symmetry and pop. for TD-DFT,
                                                   nearIR, NL-DFT gradient (VV10), updates on ESD,
                                                   ML-optimized integration grids
   S Lehtola, MJT Oliveira, MAL Marques          : LibXC Library
   Liviu Ungur et al                             : ANISO software


 Your calculation uses the libint2 library for the computation of 2-el integrals
 For citations please refer to: http://libint.valeyev.net

 Your ORCA version has been built with support for libXC version: 5.1.0
 For citations please refer to: https://tddft.org/programs/libxc/

 This ORCA versions uses:
   CBLAS   interface :  Fast vector & matrix operations
   LAPACKE interface :  Fast linear algebra routines
   SCALAPACK package :  Parallel linear algebra routines
   Shared memory     :  Shared parallel matrices
   BLAS/LAPACK       :  OpenBLAS 0.3.15  USE64BITINT DYNAMIC_ARCH NO_AFFINITY Zen SINGLE_THREADED
        Core in use  :  Zen
   Copyright (c) 2011-2014, The OpenBLAS Project


Your calculation utilizes the DFT-NL dispersion correction.
Cite in your paper:
Vydrov, O. A.; Van Voorhis, T. J. Chem. Phys. 2010, 133, 244103
Hujo, W.; Grimme, S. J. Chem. Theory Comput. 2011, 7, 3866 
   

Your calculation utilizes the SMD solvation module
Please cite in your paper:
A.V. Marenich, C.J. Cramer, D.G. Truhlar J. Phys. Chem. B, 113, (2009), 6378 

================================================================================

----- Orbital basis set information -----
Your calculation utilizes the basis: def2-TZVPP
   F. Weigend and R. Ahlrichs, Phys. Chem. Chem. Phys. 7, 3297 (2005).

----- AuxJ basis set information -----
Your calculation utilizes the auxiliary basis: def2/J
   F. Weigend, Phys. Chem. Chem. Phys. 8, 1057 (2006).

================================================================================
                                        WARNINGS
                       Please study these warnings very carefully!
================================================================================

Using LibXC functional ID 531 : wB97M-V exchange-correlation functional
[ 1]  N. Mardirossian and M. Head-Gordon, J. Chem. Phys. 144, 214110 (2016)
Using LibXC functional ID 531 : wB97M-V exchange-correlation functional
[ 1]  N. Mardirossian and M. Head-Gordon, J. Chem. Phys. 144, 214110 (2016)

WARNING: B97M-V or wB97M-V functional requested.
  ===> : libXC variant has now been activated.
         Any manually given DFX/HFX/RangeSep scaling parameters are IGNORED!

Your calculation utilizes LibXC
 by S Lehtola, C Steigemann, MJT Oliveira & MAL Marques
Please cite in your paper:
 S Lehtola, C Steigemann, MJT Oliveira & MAL Marques, SoftwareX, 7, (2018), 1.
   


INFO   : the flag for use of the SHARK integral package has been found!

================================================================================
                                       INPUT FILE
================================================================================
NAME = /tmp/265179/Ac4_rdkit_conf_1_spc.inp
|  1> # Ac4_rdkit_conf_1_spc
|  2> %maxcore 16000
|  3> %pal nprocs 8 end
|  4> ! wB97M-V def2-TZVPP def2/J RIJCOSX
|  5> %cpcm
|  6> smd true
|  7> SMDsolvent "ETHYL ETHANOATE"
|  8> end
|  9> * xyz 0 1
| 10>  C  -2.04649600  -2.26066500  -0.05619300
| 11>  O  -0.78471800  -1.63121100  -0.03364600
| 12>  C  -0.73337100  -0.29098400  -0.00377700
| 13>  C  -1.87575000   0.51092900   0.00266400
| 14>  C  -1.76295100   1.89222300   0.02171200
| 15>  C  -0.51966900   2.50367400   0.02967400
| 16>  C   0.61595200   1.71255000   0.01967900
| 17>  C   0.53564100   0.32215600   0.00831500
| 18>  C   1.78434200  -0.48375400   0.02402500
| 19>  O   1.87781900  -1.66792300   0.18365700
| 20>  O   2.88426400   0.28664400  -0.15821800
| 21>  H  -2.62645900  -2.01747600   0.83768100
| 22>  H  -2.61432300  -1.97920400  -0.94680100
| 23>  H  -1.84392500  -3.32750800  -0.07714900
| 24>  H  -2.85666100   0.06090100  -0.00764100
| 25>  H  -2.66395800   2.49249500   0.02865800
| 26>  H  -0.43424800   3.58110700   0.04323500
| 27>  H   1.59522200   2.16871200   0.02498700
| 28>  H   3.63924300  -0.31588500  -0.11389900
| 29> **                         ****END OF INPUT****
================================================================================

                       ****************************
                       * Single Point Calculation *
                       ****************************

---------------------------------
CARTESIAN COORDINATES (ANGSTROEM)
---------------------------------
  C     -2.046496   -2.260665   -0.056193
  O     -0.784718   -1.631211   -0.033646
  C     -0.733371   -0.290984   -0.003777
  C     -1.875750    0.510929    0.002664
  C     -1.762951    1.892223    0.021712
  C     -0.519669    2.503674    0.029674
  C      0.615952    1.712550    0.019679
  C      0.535641    0.322156    0.008315
  C      1.784342   -0.483754    0.024025
  O      1.877819   -1.667923    0.183657
  O      2.884264    0.286644   -0.158218
  H     -2.626459   -2.017476    0.837681
  H     -2.614323   -1.979204   -0.946801
  H     -1.843925   -3.327508   -0.077149
  H     -2.856661    0.060901   -0.007641
  H     -2.663958    2.492495    0.028658
  H     -0.434248    3.581107    0.043235
  H      1.595222    2.168712    0.024987
  H      3.639243   -0.315885   -0.113899

----------------------------
CARTESIAN COORDINATES (A.U.)
----------------------------
  NO LB      ZA    FRAG     MASS         X           Y           Z
   0 C     6.0000    0    12.011   -3.867317   -4.272038   -0.106189
   1 O     8.0000    0    15.999   -1.482902   -3.082542   -0.063582
   2 C     6.0000    0    12.011   -1.385870   -0.549880   -0.007137
   3 C     6.0000    0    12.011   -3.544654    0.965516    0.005034
   4 C     6.0000    0    12.011   -3.331495    3.575783    0.041030
   5 C     6.0000    0    12.011   -0.982032    4.731258    0.056076
   6 C     6.0000    0    12.011    1.163981    3.236250    0.037188
   7 C     6.0000    0    12.011    1.012215    0.608787    0.015713
   8 C     6.0000    0    12.011    3.371918   -0.914163    0.045401
   9 O     8.0000    0    15.999    3.548564   -3.151918    0.347061
  10 O     8.0000    0    15.999    5.450469    0.541679   -0.298989
  11 H     1.0000    0     1.008   -4.963288   -3.812477    1.582988
  12 H     1.0000    0     1.008   -4.940354   -3.740154   -1.789195
  13 H     1.0000    0     1.008   -3.484513   -6.288079   -0.145790
  14 H     1.0000    0     1.008   -5.398307    0.115086   -0.014439
  15 H     1.0000    0     1.008   -5.034151    4.710133    0.054156
  16 H     1.0000    0     1.008   -0.820610    6.767311    0.081702
  17 H     1.0000    0     1.008    3.014533    4.098272    0.047219
  18 H     1.0000    0     1.008    6.877173   -0.596936   -0.215238

--------------------------------
INTERNAL COORDINATES (ANGSTROEM)
--------------------------------
 C      0   0   0     0.000000000000     0.00000000     0.00000000
 O      1   0   0     1.410249774547     0.00000000     0.00000000
 C      2   1   0     1.341542799578   118.71841704     0.00000000
 C      3   2   1     1.395756327477   122.87099367   359.83599138
 C      4   3   2     1.386022927350   120.39977128   180.59029400
 C      5   4   3     1.385527282434   120.85813393     0.24236842
 C      6   5   4     1.384056407464   118.94500981   359.93438432
 C      7   6   5     1.392757865694   121.55884768   359.68939456
 C      8   7   6     1.486267781929   119.52376572   181.15926865
 O      9   8   7     1.198530994807   127.06165710   169.97471666
 O      9   8   7     1.355195187247   111.85320981   350.54279772
 H      1   2   3     1.092935816490   111.24696131   298.84357709
 H      1   2   3     1.093082982263   111.27711712    61.20901794
 H      1   2   3     1.086106878086   105.77491530   180.06272955
 H      4   3   2     1.079267243888   120.28260159     0.56018315
 H      5   4   3     1.082676468272   119.00608698   180.13915887
 H      6   5   4     1.080898939518   120.72274488   179.91998442
 H      7   6   5     1.080315545574   120.15662637   179.96088877
 H     11   9   8     0.966953287415   105.86158875   178.80905029

---------------------------
INTERNAL COORDINATES (A.U.)
---------------------------
 C      0   0   0     0.000000000000     0.00000000     0.00000000
 O      1   0   0     2.664985854317     0.00000000     0.00000000
 C      2   1   0     2.535148488136   118.71841704     0.00000000
 C      3   2   1     2.637597208619   122.87099367   359.83599138
 C      4   3   2     2.619203748028   120.39977128   180.59029400
 C      5   4   3     2.618267114876   120.85813393     0.24236842
 C      6   5   4     2.615487564006   118.94500981   359.93438432
 C      7   6   5     2.631930937027   121.55884768   359.68939456
 C      8   7   6     2.808639069517   119.52376572   181.15926865
 O      9   8   7     2.264895343202   127.06165710   169.97471666
 O      9   8   7     2.560947761905   111.85320981   350.54279772
 H      1   2   3     2.065349375119   111.24696131   298.84357709
 H      1   2   3     2.065627478128   111.27711712    61.20901794
 H      1   2   3     2.052444551751   105.77491530   180.06272955
 H      4   3   2     2.039519516261   120.28260159     0.56018315
 H      5   4   3     2.045962016674   119.00608698   180.13915887
 H      6   5   4     2.042602974135   120.72274488   179.91998442
 H      7   6   5     2.041500519352   120.15662637   179.96088877
 H     11   9   8     1.827276897510   105.86158875   178.80905029

---------------------
BASIS SET INFORMATION
---------------------
There are 3 groups of distinct atoms

 Group   1 Type C   : 11s6p2d1f contracted to 5s3p2d1f pattern {62111/411/11/1}
 Group   2 Type O   : 11s6p2d1f contracted to 5s3p2d1f pattern {62111/411/11/1}
 Group   3 Type H   : 5s2p1d contracted to 3s2p1d pattern {311/11/1}

Atom   0C    basis set group =>   1
Atom   1O    basis set group =>   2
Atom   2C    basis set group =>   1
Atom   3C    basis set group =>   1
Atom   4C    basis set group =>   1
Atom   5C    basis set group =>   1
Atom   6C    basis set group =>   1
Atom   7C    basis set group =>   1
Atom   8C    basis set group =>   1
Atom   9O    basis set group =>   2
Atom  10O    basis set group =>   2
Atom  11H    basis set group =>   3
Atom  12H    basis set group =>   3
Atom  13H    basis set group =>   3
Atom  14H    basis set group =>   3
Atom  15H    basis set group =>   3
Atom  16H    basis set group =>   3
Atom  17H    basis set group =>   3
Atom  18H    basis set group =>   3
---------------------------------
AUXILIARY/J BASIS SET INFORMATION
---------------------------------
There are 3 groups of distinct atoms

 Group   1 Type C   : 12s5p4d2f1g contracted to 6s4p3d1f1g pattern {711111/2111/211/2/1}
 Group   2 Type O   : 12s5p4d2f1g contracted to 6s4p3d1f1g pattern {711111/2111/211/2/1}
 Group   3 Type H   : 5s2p1d contracted to 3s1p1d pattern {311/2/1}

Atom   0C    basis set group =>   1
Atom   1O    basis set group =>   2
Atom   2C    basis set group =>   1
Atom   3C    basis set group =>   1
Atom   4C    basis set group =>   1
Atom   5C    basis set group =>   1
Atom   6C    basis set group =>   1
Atom   7C    basis set group =>   1
Atom   8C    basis set group =>   1
Atom   9O    basis set group =>   2
Atom  10O    basis set group =>   2
Atom  11H    basis set group =>   3
Atom  12H    basis set group =>   3
Atom  13H    basis set group =>   3
Atom  14H    basis set group =>   3
Atom  15H    basis set group =>   3
Atom  16H    basis set group =>   3
Atom  17H    basis set group =>   3
Atom  18H    basis set group =>   3


           ************************************************************
           *        Program running with 8 parallel MPI-processes     *
           *              working on a common directory               *
           ************************************************************
------------------------------------------------------------------------------
                           ORCA GTO INTEGRAL CALCULATION
                           -- RI-GTO INTEGRALS CHOSEN --
------------------------------------------------------------------------------
------------------------------------------------------------------------------
                   ___                                                        
                  /   \      - P O W E R E D   B Y -                         
                 /     \                                                     
                 |  |  |   _    _      __       _____    __    __             
                 |  |  |  | |  | |    /  \     |  _  \  |  |  /  |          
                  \  \/   | |  | |   /    \    | | | |  |  | /  /          
                 / \  \   | |__| |  /  /\  \   | |_| |  |  |/  /          
                |  |  |   |  __  | /  /__\  \  |    /   |      \           
                |  |  |   | |  | | |   __   |  |    \   |  |\   \          
                \     /   | |  | | |  |  |  |  | |\  \  |  | \   \       
                 \___/    |_|  |_| |__|  |__|  |_| \__\ |__|  \__/        
                                                                              
                      - O R C A' S   B I G   F R I E N D -                    
                                      &                                       
                       - I N T E G R A L  F E E D E R -                       
                                                                              
 v1 FN, 2020, v2 2021                                                         
------------------------------------------------------------------------------


Reading SHARK input file /tmp/265179/Ac4_rdkit_conf_1_spc.SHARKINP.tmp ... ok
----------------------
SHARK INTEGRAL PACKAGE
----------------------

Number of atoms                             ...     19
Number of basis functions                   ...    453
Number of shells                            ...    169
Maximum angular momentum                    ...      3
Integral batch strategy                     ... SHARK/LIBINT Hybrid
RI-J (if used) integral strategy            ... SPLIT-RIJ (Revised 2003 algorithm where possible)
Printlevel                                  ...      1
Contraction scheme used                     ... SEGMENTED contraction
Coulomb Range Separation                    ... NOT USED
Exchange Range Separation                   ... Long Range
   Mu parameter                             ...  0.300000
   Scaling (regular/separated)              ...  0.150000  0.850000
Finite Nucleus Model                        ... NOT USED
Auxiliary Coulomb fitting basis             ... AVAILABLE
   # of basis functions in Aux-J            ...    627
   # of shells in Aux-J                     ...    205
   Maximum angular momentum in Aux-J        ...      4
Auxiliary J/K fitting basis                 ... NOT available
Auxiliary Correlation fitting basis         ... NOT available
Auxiliary 'external' fitting basis          ... NOT available
Integral threshold                          ...     1.000000e-10
Primitive cut-off                           ...     1.000000e-11
Primitive pair pre-selection threshold      ...     1.000000e-11

Calculating pre-screening integrals         ... done (  0.0 sec) Dimension = 169
Organizing shell pair data                  ... done (  0.1 sec)
Shell pair information
Total number of shell pairs                 ...     14365
Shell pairs after pre-screening             ...     11946
Total number of primitive shell pairs       ...     40736
Primitive shell pairs kept                  ...     24919
          la=0 lb=0:   2555 shell pairs
          la=1 lb=0:   3295 shell pairs
          la=1 lb=1:   1083 shell pairs
          la=2 lb=0:   1893 shell pairs
          la=2 lb=1:   1236 shell pairs
          la=2 lb=2:    370 shell pairs
          la=3 lb=0:    715 shell pairs
          la=3 lb=1:    469 shell pairs
          la=3 lb=2:    270 shell pairs
          la=3 lb=3:     60 shell pairs

Calculating one electron integrals          ... done (  0.0 sec)
Calculating RI/J V-Matrix + Cholesky decomp.... done (  0.0 sec)
Calculating Nuclear repulsion               ... done (  0.0 sec) ENN=    596.824731661088 Eh

SHARK setup successfully completed in   0.4 seconds

Maximum memory used throughout the entire GTOINT-calculation: 24.8 MB


           ************************************************************
           *        Program running with 8 parallel MPI-processes     *
           *              working on a common directory               *
           ************************************************************
-------------------------------------------------------------------------------
                                 ORCA SCF
-------------------------------------------------------------------------------

------------
SCF SETTINGS
------------
Hamiltonian:
 Density Functional     Method          .... DFT(GTOs)
  Functional kind                       .... Exchange-Correlation
  Functional name                       .... wB97M-V exchange-correlation functional
  Functional family                     .... Hybrid MGGA
  Functional refs                              
    [ 0] N. Mardirossian and M. Head-Gordon, J. Chem. Phys. 144, 214110 (2016)
  Fraction of HF Exchange (short range) .... 0.1500
  Fraction of HF Exchange (long range)  .... 1.0000
  Range separation parameter mu         .... 0.3000
  Functional external parameters         .... 0
   Density functional embedding theory  .... OFF
 Long-range corrected/Screened/Range-Separated Hybrid DFT is turned on
   Amount of maximum screened exact exchange              ....  0.850000
   Range separation parameter mu (erf(mu*r12)/r12)        ....  0.300000
   NL short-range parameter             ....  6.000000
   NL long-range parameter              ....  0.010000
 RI-approximation to the Coulomb term is turned on
   Number of AuxJ basis functions       .... 627
   RIJ-COSX (HFX calculated with COS-X)).... on


General Settings:
 Integral files         IntName         .... /tmp/265179/Ac4_rdkit_conf_1_spc
 Hartree-Fock type      HFTyp           .... RHF
 Total Charge           Charge          ....    0
 Multiplicity           Mult            ....    1
 Number of Electrons    NEL             ....   80
 Basis Dimension        Dim             ....  453
 Nuclear Repulsion      ENuc            ....    596.8247316611 Eh

Convergence Acceleration:
 DIIS                   CNVDIIS         .... on
   Start iteration      DIISMaxIt       ....    12
   Startup error        DIISStart       ....  0.200000
   # of expansion vecs  DIISMaxEq       ....     5
   Bias factor          DIISBfac        ....   1.050
   Max. coefficient     DIISMaxC        ....  10.000
 Trust-Rad. Augm. Hess. CNVTRAH         .... auto
   Auto Start mean grad. ratio tolernc. ....  1.125000
   Auto Start start iteration           ....    20
   Auto Start num. interpolation iter.  ....    10
   Max. Number of Micro iterations      ....    16
   Max. Number of Macro iterations      .... Maxiter - #DIIS iter
   Number of Davidson start vectors     ....     2
   Converg. threshold I  (grad. norm)   ....   5.000e-05
   Converg. threshold II (energy diff.) ....   1.000e-06
   Grad. Scal. Fac. for Micro threshold ....   0.100
   Minimum threshold for Micro iter.    ....   0.010
   NR start threshold (gradient norm)   ....   0.001
   Initial trust radius                 ....   0.400
   Minimum AH scaling param. (alpha)    ....   1.000
   Maximum AH scaling param. (alpha)    .... 1000.000
   Orbital update algorithm             .... Taylor
   White noise on init. David. guess    .... on
   Maximum white noise                  ....   0.010
   Quad. conv. algorithm                .... NR
 SOSCF                  CNVSOSCF        .... on
   Start iteration      SOSCFMaxIt      ....   150
   Startup grad/error   SOSCFStart      ....  0.003300
 Level Shifting         CNVShift        .... on
   Level shift para.    LevelShift      ....    0.2500
   Turn off err/grad.   ShiftErr        ....    0.0010
 Zerner damping         CNVZerner       .... off
 Static damping         CNVDamp         .... on
   Fraction old density DampFac         ....    0.7000
   Max. Damping (<1)    DampMax         ....    0.9800
   Min. Damping (>=0)   DampMin         ....    0.0000
   Turn off err/grad.   DampErr         ....    0.1000
 Fernandez-Rico         CNVRico         .... off

SCF Procedure:
 Maximum # iterations   MaxIter         ....   125
 SCF integral mode      SCFMode         .... Direct
   Integral package                     .... SHARK and LIBINT hybrid scheme
 Reset frequency        DirectResetFreq ....    20
 Integral Threshold     Thresh          ....  1.000e-10 Eh
 Primitive CutOff       TCut            ....  1.000e-11 Eh

Convergence Tolerance:
 Convergence Check Mode ConvCheckMode   .... Total+1el-Energy
 Convergence forced     ConvForced      .... 0
 Energy Change          TolE            ....  1.000e-06 Eh
 1-El. energy change                    ....  1.000e-03 Eh
 Orbital Gradient       TolG            ....  5.000e-05
 Orbital Rotation angle TolX            ....  5.000e-05
 DIIS Error             TolErr          ....  1.000e-06


Diagonalization of the overlap matrix:
Smallest eigenvalue                        ... 7.691e-06
Time for diagonalization                   ...    0.025 sec
Threshold for overlap eigenvalues          ... 1.000e-08
Number of eigenvalues below threshold      ... 0
Time for construction of square roots      ...    0.016 sec
Total time needed                          ...    0.043 sec

Time for model grid setup =    0.089 sec

------------------------------
INITIAL GUESS: MODEL POTENTIAL
------------------------------
Loading Hartree-Fock densities                     ... done
Calculating cut-offs                               ... done
Initializing the effective Hamiltonian             ... done
Setting up the integral package (SHARK)            ... done
Starting the Coulomb interaction                   ... done (   0.1 sec)
Reading the grid                                   ... done
Mapping shells                                     ... done
Starting the XC term evaluation                    ... done (   0.1 sec)
  promolecular density results
     # of electrons  =     79.996680110
     EX              =    -67.774662060
     EC              =     -2.685295561
     EX+EC           =    -70.459957621
Transforming the Hamiltonian                       ... done (   0.0 sec)
Diagonalizing the Hamiltonian                      ... done (   0.2 sec)
Back transforming the eigenvectors                 ... done (   0.0 sec)
Now organizing SCF variables                       ... done
                      ------------------
                      INITIAL GUESS DONE (   0.6 sec)
                      ------------------
-------------------
DFT GRID GENERATION
-------------------

General Integration Accuracy     IntAcc      ... 4.388
Radial Grid Type                 RadialGrid  ... OptM3 with GC (2021)
Angular Grid (max. ang.)         AngularGrid ... 4 (Lebedev-302)
Angular grid pruning method      GridPruning ... 4 (adaptive)
Weight generation scheme         WeightScheme... Becke
Basis function cutoff            BFCut       ... 1.0000e-10
Integration weight cutoff        WCut        ... 1.0000e-14
Angular grids for H and He will be reduced by one unit
Partially contracted basis set               ... off
Rotationally invariant grid construction     ... off

Total number of grid points                  ...    91915
Total number of batches                      ...     1448
Average number of points per batch           ...       63
Average number of grid points per atom       ...     4838
Time for grid setup =    0.478 sec

--------------------
COSX GRID GENERATION
--------------------

GRIDX 1
-------
General Integration Accuracy     IntAcc      ... 3.816
Radial Grid Type                 RadialGrid  ... OptM3 with GC (2021)
Angular Grid (max. ang.)         AngularGrid ... 1 (Lebedev-50)
Angular grid pruning method      GridPruning ... 4 (adaptive)
Weight generation scheme         WeightScheme... Becke
Basis function cutoff            BFCut       ... 1.0000e-10
Integration weight cutoff        WCut        ... 1.0000e-14
Angular grids for H and He will be reduced by one unit
Partially contracted basis set               ... on
Rotationally invariant grid construction     ... off

Total number of grid points                  ...    11734
Total number of batches                      ...      193
Average number of points per batch           ...       60
Average number of grid points per atom       ...      618
UseSFitting                                  ... on

GRIDX 2
-------
General Integration Accuracy     IntAcc      ... 4.020
Radial Grid Type                 RadialGrid  ... OptM3 with GC (2021)
Angular Grid (max. ang.)         AngularGrid ... 2 (Lebedev-110)
Angular grid pruning method      GridPruning ... 4 (adaptive)
Weight generation scheme         WeightScheme... Becke
Basis function cutoff            BFCut       ... 1.0000e-10
Integration weight cutoff        WCut        ... 1.0000e-14
Angular grids for H and He will be reduced by one unit
Partially contracted basis set               ... on
Rotationally invariant grid construction     ... off

Total number of grid points                  ...    25787
Total number of batches                      ...      411
Average number of points per batch           ...       62
Average number of grid points per atom       ...     1357
UseSFitting                                  ... on

GRIDX 3
-------
General Integration Accuracy     IntAcc      ... 4.338
Radial Grid Type                 RadialGrid  ... OptM3 with GC (2021)
Angular Grid (max. ang.)         AngularGrid ... 3 (Lebedev-194)
Angular grid pruning method      GridPruning ... 4 (adaptive)
Weight generation scheme         WeightScheme... Becke
Basis function cutoff            BFCut       ... 1.0000e-10
Integration weight cutoff        WCut        ... 1.0000e-14
Angular grids for H and He will be reduced by one unit
Partially contracted basis set               ... on
Rotationally invariant grid construction     ... off

Total number of grid points                  ...    56742
Total number of batches                      ...      896
Average number of points per batch           ...       63
Average number of grid points per atom       ...     2986
UseSFitting                                  ... on

Time for X-Grid setup             =    0.462 sec


--------------------
CPCM SOLVATION MODEL
--------------------
CPCM parameters:
  Epsilon                                         ...       5.9867
  Refrac                                          ...       1.3723
  Rsolv                                           ...       1.3000
  Surface type                                    ... GAUSSIAN VDW
  Epsilon function type                           ...         CPCM
Solvent:                                     ... ETHYL ETHANOATE
SMD-CDS solvent descriptors:
  Soln                                       ...    1.3723
  Soln25                                     ...    1.3704
  Sola                                       ...    0.0000
  Solb                                       ...    0.4500
  Solg                                       ...   33.6700
  Solc                                       ...    0.0000
  Solh                                       ...    0.0000
Radii:
 Radius for C  used is    3.4960 Bohr (=   1.8500 Ang.)
 Radius for O  used is    4.3350 Bohr (=   2.2940 Ang.)
 Radius for H  used is    2.2677 Bohr (=   1.2000 Ang.)
Calculating surface                               ...        done! (  0.0s)
GEPOL surface points                              ...          986
GEPOL Volume                                      ...    1303.5501
GEPOL Surface-area                                ...     692.6934
Calculating surface distance matrix               ...        done! (  0.0s)
Performing Cholesky decomposition & store         ...        done! (  0.0s)
Overall time for CPCM initialization              ...                 0.0s
--------------
SCF ITERATIONS
--------------
ITER       Energy         Delta-E        Max-DP      RMS-DP      [F,P]     Damp
               ***  Starting incremental Fock matrix formation  ***
  0   -535.4004103095   0.000000000000 0.05459937  0.00099687  0.2868370 0.7000
  1   -535.5203013485  -0.119891038924 0.05434662  0.00091728  0.1434259 0.7000
                               ***Turning on DIIS***
  2   -535.5790036327  -0.058702284262 0.11099715  0.00186362  0.0581926 0.0000
  3   -535.6783910139  -0.099387381169 0.04065885  0.00054723  0.0667527 0.0000
  4   -535.6916033135  -0.013212299634 0.00814262  0.00013811  0.0123771 0.0000
  5   -535.6920753570  -0.000472043454 0.00458679  0.00007614  0.0060496 0.0000
                      *** Initiating the SOSCF procedure ***
                           *** Shutting down DIIS ***
                      *** Re-Reading the Fockian *** 
                      *** Removing any level shift *** 
ITER      Energy       Delta-E        Grad      Rot      Max-DP    RMS-DP
  6   -535.69214657  -0.0000712115  0.000625  0.000625  0.002463  0.000045
               *** Restarting incremental Fock matrix formation ***
  7   -535.69215849  -0.0000119204  0.000278  0.000623  0.001999  0.000041
  8   -535.69215964  -0.0000011537  0.000440  0.000391  0.000534  0.000009
  9   -535.69216315  -0.0000035117  0.000072  0.000267  0.000700  0.000009
                 **** Energy Check signals convergence ****
              ***Rediagonalizing the Fockian in SOSCF/NRSCF***

               *****************************************************
               *                     SUCCESS                       *
               *           SCF CONVERGED AFTER  10 CYCLES          *
               *****************************************************

Old exchange energy                            =    -21.057877817 Eh
New exchange energy                            =    -21.057845747 Eh
Exchange energy change after final integration =      0.000032070 Eh
Total energy after final integration           =   -535.692131202 Eh
Final COS-X integration done in                =     9.922 sec

------------------
NL GRID GENERATION
------------------

General Integration Accuracy     IntAcc      ... 4.004
Radial Grid Type                 RadialGrid  ... OptM3 with GC (2021)
Angular Grid (max. ang.)         AngularGrid ... 2 (Lebedev-110)
Angular grid pruning method      GridPruning ... 4 (adaptive)
Weight generation scheme         WeightScheme... Becke
Basis function cutoff            BFCut       ... 1.0000e-10
Integration weight cutoff        WCut        ... 1.0000e-14
Angular grids for H and He will be reduced by one unit
Partially contracted basis set               ... off
Rotationally invariant grid construction     ... off

Total number of grid points                  ...    29615
Total number of batches                      ...      473
Average number of points per batch           ...       62
Average number of grid points per atom       ...     1559
Final grid set up in    0.1 sec

-------------------------------------------------------------------------------
                    post-SCF DFT-NL dispersion correction                      
-------------------------------------------------------------------------------

SCF Energy:   -535.692131202 
NL    Energy:  0.305593941 
SC+NL Energy: -535.386537262 
NL done in:    0.3 sec
-------------------------------------------------------------------------------

SMD CDS free energy correction energy :                -3.00319     Kcal/mol
Total Energy after SMD CDS correction =              -535.391323147 Eh

----------------
TOTAL SCF ENERGY
----------------

Total Energy       :         -535.39132315 Eh          -14568.73856 eV

Components:
Nuclear Repulsion  :          596.82473166 Eh           16240.42660 eV
Electronic Energy  :        -1132.21605481 Eh          -30809.16516 eV
One Electron Energy:        -1912.42688284 Eh          -52039.78113 eV
Two Electron Energy:          780.21082803 Eh           21230.61597 eV
Max COSX asymmetry :            0.00000179 Eh               0.00005 eV
CPCM Dielectric    :           -0.01121764 Eh              -0.30525 eV
SMD CDS (Gcds)     :           -0.00478589 Eh              -0.13023 eV

Virial components:
Potential Energy   :        -1069.40054749 Eh          -29099.86831 eV
Kinetic Energy     :          534.00922434 Eh           14531.12974 eV
Virial Ratio       :            2.00258816


DFT components:
N(Alpha)           :       39.999996701906 electrons
N(Beta)            :       39.999996701906 electrons
N(Total)           :       79.999993403811 electrons
NL Energy, E(C,NL) :        0.305593940599 Eh       
E(XC)              :      -51.098385964786 Eh       
DFET-embed. en.    :        0.000000000000 Eh       
CPCM Solvation Model Properties:
Surface-charge          :           -0.03033472
Charge-correction       :            0.00013030 Eh               0.00355 eV
Free-energy (cav+disp)  :           -0.00478589 Eh              -0.13023 eV

---------------
SCF CONVERGENCE
---------------

  Last Energy change         ...   -1.1793e-07  Tolerance :   1.0000e-06
  Last MAX-Density change    ...    1.7764e-15  Tolerance :   1.0000e-05
  Last RMS-Density change    ...    1.3072e-17  Tolerance :   1.0000e-06
  Last Orbital Gradient      ...    3.1026e-05  Tolerance :   5.0000e-05
  Last Orbital Rotation      ...    1.3694e-04  Tolerance :   5.0000e-05

             **** THE GBW FILE WAS UPDATED (/tmp/265179/Ac4_rdkit_conf_1_spc.gbw) ****
             **** DENSITY /tmp/265179/Ac4_rdkit_conf_1_spc.scfp WAS UPDATED ****
             **** ENERGY FILE WAS UPDATED (/tmp/265179/Ac4_rdkit_conf_1_spc.en.tmp) ****
             **** THE GBW FILE WAS UPDATED (/tmp/265179/Ac4_rdkit_conf_1_spc.gbw) ****
             **** DENSITY /tmp/265179/Ac4_rdkit_conf_1_spc.scfp WAS UPDATED ****
----------------
ORBITAL ENERGIES
----------------

  NO   OCC          E(Eh)            E(eV) 
   0   2.0000     -19.373106      -527.1690 
   1   2.0000     -19.366590      -526.9917 
   2   2.0000     -19.318002      -525.6696 
   3   2.0000     -10.481725      -285.2222 
   4   2.0000     -10.425337      -283.6878 
   5   2.0000     -10.387412      -282.6559 
   6   2.0000     -10.364046      -282.0200 
   7   2.0000     -10.358754      -281.8760 
   8   2.0000     -10.358584      -281.8714 
   9   2.0000     -10.348453      -281.5957 
  10   2.0000     -10.344146      -281.4785 
  11   2.0000      -1.239736       -33.7349 
  12   2.0000      -1.208858       -32.8947 
  13   2.0000      -1.146563       -31.1996 
  14   2.0000      -0.994300       -27.0563 
  15   2.0000      -0.902202       -24.5502 
  16   2.0000      -0.881664       -23.9913 
  17   2.0000      -0.824869       -22.4458 
  18   2.0000      -0.777247       -21.1500 
  19   2.0000      -0.727303       -19.7909 
  20   2.0000      -0.700165       -19.0525 
  21   2.0000      -0.653864       -17.7925 
  22   2.0000      -0.617398       -16.8003 
  23   2.0000      -0.602490       -16.3946 
  24   2.0000      -0.594280       -16.1712 
  25   2.0000      -0.588199       -16.0057 
  26   2.0000      -0.569178       -15.4881 
  27   2.0000      -0.564491       -15.3606 
  28   2.0000      -0.551867       -15.0171 
  29   2.0000      -0.521057       -14.1787 
  30   2.0000      -0.506861       -13.7924 
  31   2.0000      -0.493312       -13.4237 
  32   2.0000      -0.479842       -13.0572 
  33   2.0000      -0.461893       -12.5688 
  34   2.0000      -0.439397       -11.9566 
  35   2.0000      -0.436269       -11.8715 
  36   2.0000      -0.426935       -11.6175 
  37   2.0000      -0.377820       -10.2810 
  38   2.0000      -0.357786        -9.7359 
  39   2.0000      -0.320897        -8.7321 
  40   0.0000       0.026669         0.7257 
  41   0.0000       0.073907         2.0111 
  42   0.0000       0.110495         3.0067 
  43   0.0000       0.117099         3.1864 
  44   0.0000       0.130047         3.5388 
  45   0.0000       0.140677         3.8280 
  46   0.0000       0.149107         4.0574 
  47   0.0000       0.162231         4.4145 
  48   0.0000       0.175339         4.7712 
  49   0.0000       0.187846         5.1115 
  50   0.0000       0.196037         5.3344 
  51   0.0000       0.196557         5.3486 
  52   0.0000       0.206032         5.6064 
  53   0.0000       0.224645         6.1129 
  54   0.0000       0.245181         6.6717 
  55   0.0000       0.258134         7.0242 
  56   0.0000       0.266432         7.2500 
  57   0.0000       0.278334         7.5739 
  58   0.0000       0.282787         7.6950 
  59   0.0000       0.288918         7.8619 
  60   0.0000       0.295274         8.0348 
  61   0.0000       0.300164         8.1679 
  62   0.0000       0.304535         8.2868 
  63   0.0000       0.319843         8.7034 
  64   0.0000       0.335245         9.1225 
  65   0.0000       0.338000         9.1974 
  66   0.0000       0.360774         9.8172 
  67   0.0000       0.363128         9.8812 
  68   0.0000       0.367602        10.0029 
  69   0.0000       0.388093        10.5606 
  70   0.0000       0.390592        10.6285 
  71   0.0000       0.402478        10.9520 
  72   0.0000       0.413515        11.2523 
  73   0.0000       0.429817        11.6959 
  74   0.0000       0.437307        11.8997 
  75   0.0000       0.438350        11.9281 
  76   0.0000       0.441552        12.0152 
  77   0.0000       0.450602        12.2615 
  78   0.0000       0.465916        12.6782 
  79   0.0000       0.478877        13.0309 
  80   0.0000       0.480994        13.0885 
  81   0.0000       0.489498        13.3199 
  82   0.0000       0.493906        13.4399 
  83   0.0000       0.516072        14.0430 
  84   0.0000       0.522762        14.2251 
  85   0.0000       0.526439        14.3251 
  86   0.0000       0.534081        14.5331 
  87   0.0000       0.540678        14.7126 
  88   0.0000       0.550146        14.9702 
  89   0.0000       0.552456        15.0331 
  90   0.0000       0.555749        15.1227 
  91   0.0000       0.565349        15.3839 
  92   0.0000       0.579914        15.7803 
  93   0.0000       0.587182        15.9780 
  94   0.0000       0.593396        16.1471 
  95   0.0000       0.613929        16.7058 
  96   0.0000       0.626021        17.0349 
  97   0.0000       0.644655        17.5420 
  98   0.0000       0.657853        17.9011 
  99   0.0000       0.666331        18.1318 
 100   0.0000       0.672067        18.2879 
 101   0.0000       0.688839        18.7443 
 102   0.0000       0.706436        19.2231 
 103   0.0000       0.726218        19.7614 
 104   0.0000       0.738501        20.0956 
 105   0.0000       0.740188        20.1415 
 106   0.0000       0.744372        20.2554 
 107   0.0000       0.763475        20.7752 
 108   0.0000       0.775597        21.1051 
 109   0.0000       0.783956        21.3325 
 110   0.0000       0.792860        21.5748 
 111   0.0000       0.804826        21.9004 
 112   0.0000       0.814930        22.1754 
 113   0.0000       0.821446        22.3527 
 114   0.0000       0.832786        22.6612 
 115   0.0000       0.843775        22.9603 
 116   0.0000       0.848738        23.0953 
 117   0.0000       0.867540        23.6070 
 118   0.0000       0.882471        24.0133 
 119   0.0000       0.898545        24.4506 
 120   0.0000       0.906123        24.6569 
 121   0.0000       0.921356        25.0714 
 122   0.0000       0.936294        25.4778 
 123   0.0000       0.948175        25.8012 
 124   0.0000       0.960533        26.1374 
 125   0.0000       0.964486        26.2450 
 126   0.0000       0.980862        26.6906 
 127   0.0000       0.987974        26.8841 
 128   0.0000       0.998845        27.1799 
 129   0.0000       1.009892        27.4806 
 130   0.0000       1.026225        27.9250 
 131   0.0000       1.054737        28.7009 
 132   0.0000       1.063996        28.9528 
 133   0.0000       1.075176        29.2570 
 134   0.0000       1.083559        29.4851 
 135   0.0000       1.086883        29.5756 
 136   0.0000       1.089175        29.6380 
 137   0.0000       1.110014        30.2050 
 138   0.0000       1.125758        30.6334 
 139   0.0000       1.131938        30.8016 
 140   0.0000       1.171515        31.8786 
 141   0.0000       1.180193        32.1147 
 142   0.0000       1.195550        32.5326 
 143   0.0000       1.203492        32.7487 
 144   0.0000       1.214276        33.0421 
 145   0.0000       1.245392        33.8888 
 146   0.0000       1.258554        34.2470 
 147   0.0000       1.277904        34.7735 
 148   0.0000       1.283152        34.9163 
 149   0.0000       1.294575        35.2272 
 150   0.0000       1.316367        35.8202 
 151   0.0000       1.335376        36.3374 
 152   0.0000       1.352694        36.8087 
 153   0.0000       1.359576        36.9959 
 154   0.0000       1.377884        37.4941 
 155   0.0000       1.378834        37.5200 
 156   0.0000       1.395310        37.9683 
 157   0.0000       1.409698        38.3598 
 158   0.0000       1.416111        38.5343 
 159   0.0000       1.432608        38.9832 
 160   0.0000       1.436264        39.0827 
 161   0.0000       1.448321        39.4108 
 162   0.0000       1.474183        40.1146 
 163   0.0000       1.494376        40.6640 
 164   0.0000       1.496452        40.7205 
 165   0.0000       1.513304        41.1791 
 166   0.0000       1.520350        41.3708 
 167   0.0000       1.527942        41.5774 
 168   0.0000       1.542373        41.9701 
 169   0.0000       1.549574        42.1660 
 170   0.0000       1.570818        42.7441 
 171   0.0000       1.576181        42.8901 
 172   0.0000       1.597197        43.4619 
 173   0.0000       1.612661        43.8827 
 174   0.0000       1.630022        44.3552 
 175   0.0000       1.633589        44.4522 
 176   0.0000       1.657792        45.1108 
 177   0.0000       1.675562        45.5944 
 178   0.0000       1.690262        45.9944 
 179   0.0000       1.708403        46.4880 
 180   0.0000       1.733250        47.1641 
 181   0.0000       1.745400        47.4947 
 182   0.0000       1.751712        47.6665 
 183   0.0000       1.776461        48.3400 
 184   0.0000       1.780259        48.4433 
 185   0.0000       1.803603        49.0785 
 186   0.0000       1.810513        49.2666 
 187   0.0000       1.830594        49.8130 
 188   0.0000       1.859204        50.5915 
 189   0.0000       1.866566        50.7918 
 190   0.0000       1.896854        51.6160 
 191   0.0000       1.932445        52.5845 
 192   0.0000       1.949939        53.0605 
 193   0.0000       1.978152        53.8282 
 194   0.0000       1.993907        54.2570 
 195   0.0000       2.014351        54.8133 
 196   0.0000       2.029930        55.2372 
 197   0.0000       2.038065        55.4586 
 198   0.0000       2.043322        55.6016 
 199   0.0000       2.055487        55.9327 
 200   0.0000       2.088725        56.8371 
 201   0.0000       2.108167        57.3661 
 202   0.0000       2.131845        58.0105 
 203   0.0000       2.135328        58.1052 
 204   0.0000       2.149260        58.4843 
 205   0.0000       2.167845        58.9901 
 206   0.0000       2.208020        60.0833 
 207   0.0000       2.228958        60.6530 
 208   0.0000       2.243865        61.0587 
 209   0.0000       2.262523        61.5664 
 210   0.0000       2.298854        62.5550 
 211   0.0000       2.335294        63.5466 
 212   0.0000       2.343305        63.7646 
 213   0.0000       2.361934        64.2715 
 214   0.0000       2.370884        64.5150 
 215   0.0000       2.396625        65.2155 
 216   0.0000       2.420811        65.8736 
 217   0.0000       2.456778        66.8523 
 218   0.0000       2.472900        67.2910 
 219   0.0000       2.485338        67.6295 
 220   0.0000       2.513742        68.4024 
 221   0.0000       2.525290        68.7166 
 222   0.0000       2.531764        68.8928 
 223   0.0000       2.581988        70.2595 
 224   0.0000       2.596326        70.6496 
 225   0.0000       2.631294        71.6011 
 226   0.0000       2.669355        72.6368 
 227   0.0000       2.680965        72.9528 
 228   0.0000       2.695512        73.3486 
 229   0.0000       2.751534        74.8730 
 230   0.0000       2.759004        75.0763 
 231   0.0000       2.764585        75.2282 
 232   0.0000       2.782900        75.7265 
 233   0.0000       2.801175        76.2239 
 234   0.0000       2.804955        76.3267 
 235   0.0000       2.808035        76.4105 
 236   0.0000       2.826901        76.9239 
 237   0.0000       2.835368        77.1543 
 238   0.0000       2.847311        77.4793 
 239   0.0000       2.868926        78.0674 
 240   0.0000       2.872414        78.1624 
 241   0.0000       2.885194        78.5101 
 242   0.0000       2.900610        78.9296 
 243   0.0000       2.918032        79.4037 
 244   0.0000       2.923343        79.5482 
 245   0.0000       2.926349        79.6300 
 246   0.0000       2.950043        80.2748 
 247   0.0000       2.955949        80.4355 
 248   0.0000       2.973599        80.9157 
 249   0.0000       2.975167        80.9584 
 250   0.0000       2.995130        81.5016 
 251   0.0000       2.998526        81.5940 
 252   0.0000       3.010176        81.9110 
 253   0.0000       3.029278        82.4308 
 254   0.0000       3.035868        82.6102 
 255   0.0000       3.045817        82.8809 
 256   0.0000       3.064717        83.3952 
 257   0.0000       3.087729        84.0214 
 258   0.0000       3.098997        84.3280 
 259   0.0000       3.105508        84.5052 
 260   0.0000       3.110635        84.6447 
 261   0.0000       3.126445        85.0749 
 262   0.0000       3.150753        85.7364 
 263   0.0000       3.166273        86.1587 
 264   0.0000       3.176037        86.4243 
 265   0.0000       3.195802        86.9622 
 266   0.0000       3.201927        87.1289 
 267   0.0000       3.207405        87.2779 
 268   0.0000       3.218673        87.5846 
 269   0.0000       3.225485        87.7699 
 270   0.0000       3.237185        88.0883 
 271   0.0000       3.249030        88.4106 
 272   0.0000       3.263368        88.8008 
 273   0.0000       3.269354        88.9636 
 274   0.0000       3.285287        89.3972 
 275   0.0000       3.304118        89.9096 
 276   0.0000       3.320237        90.3482 
 277   0.0000       3.324366        90.4606 
 278   0.0000       3.340559        90.9012 
 279   0.0000       3.355412        91.3054 
 280   0.0000       3.361803        91.4793 
 281   0.0000       3.375789        91.8599 
 282   0.0000       3.381015        92.0021 
 283   0.0000       3.388961        92.2183 
 284   0.0000       3.410530        92.8052 
 285   0.0000       3.420419        93.0743 
 286   0.0000       3.422874        93.1411 
 287   0.0000       3.454317        93.9968 
 288   0.0000       3.459578        94.1399 
 289   0.0000       3.471187        94.4558 
 290   0.0000       3.474983        94.5591 
 291   0.0000       3.487124        94.8895 
 292   0.0000       3.495634        95.1210 
 293   0.0000       3.506810        95.4252 
 294   0.0000       3.525007        95.9203 
 295   0.0000       3.531334        96.0925 
 296   0.0000       3.539063        96.3028 
 297   0.0000       3.550473        96.6133 
 298   0.0000       3.561961        96.9259 
 299   0.0000       3.581619        97.4608 
 300   0.0000       3.588588        97.6505 
 301   0.0000       3.606132        98.1278 
 302   0.0000       3.636258        98.9476 
 303   0.0000       3.658472        99.5521 
 304   0.0000       3.661739        99.6410 
 305   0.0000       3.682620       100.2092 
 306   0.0000       3.689751       100.4032 
 307   0.0000       3.702867       100.7601 
 308   0.0000       3.718416       101.1832 
 309   0.0000       3.732064       101.5546 
 310   0.0000       3.752974       102.1236 
 311   0.0000       3.769704       102.5789 
 312   0.0000       3.780700       102.8781 
 313   0.0000       3.808616       103.6377 
 314   0.0000       3.822443       104.0140 
 315   0.0000       3.846518       104.6691 
 316   0.0000       3.850861       104.7873 
 317   0.0000       3.867897       105.2508 
 318   0.0000       3.876003       105.4714 
 319   0.0000       3.883398       105.6726 
 320   0.0000       3.894531       105.9756 
 321   0.0000       3.895847       106.0114 
 322   0.0000       3.911688       106.4425 
 323   0.0000       3.921590       106.7119 
 324   0.0000       3.962464       107.8241 
 325   0.0000       3.974555       108.1531 
 326   0.0000       3.984736       108.4302 
 327   0.0000       4.009929       109.1157 
 328   0.0000       4.043520       110.0298 
 329   0.0000       4.061125       110.5088 
 330   0.0000       4.062021       110.5332 
 331   0.0000       4.077281       110.9485 
 332   0.0000       4.093312       111.3847 
 333   0.0000       4.098677       111.5307 
 334   0.0000       4.116447       112.0142 
 335   0.0000       4.123242       112.1991 
 336   0.0000       4.161328       113.2355 
 337   0.0000       4.169403       113.4552 
 338   0.0000       4.180589       113.7596 
 339   0.0000       4.213234       114.6479 
 340   0.0000       4.221513       114.8732 
 341   0.0000       4.244038       115.4861 
 342   0.0000       4.252909       115.7275 
 343   0.0000       4.260078       115.9226 
 344   0.0000       4.269459       116.1779 
 345   0.0000       4.286080       116.6302 
 346   0.0000       4.303418       117.1020 
 347   0.0000       4.321320       117.5891 
 348   0.0000       4.326801       117.7382 
 349   0.0000       4.359185       118.6194 
 350   0.0000       4.369230       118.8928 
 351   0.0000       4.382920       119.2653 
 352   0.0000       4.388652       119.4213 
 353   0.0000       4.412952       120.0825 
 354   0.0000       4.461810       121.4120 
 355   0.0000       4.477360       121.8352 
 356   0.0000       4.506539       122.6292 
 357   0.0000       4.514663       122.8502 
 358   0.0000       4.573802       124.4595 
 359   0.0000       4.592361       124.9645 
 360   0.0000       4.595967       125.0626 
 361   0.0000       4.614023       125.5540 
 362   0.0000       4.635080       126.1270 
 363   0.0000       4.664755       126.9344 
 364   0.0000       4.689985       127.6210 
 365   0.0000       4.702164       127.9524 
 366   0.0000       4.714977       128.3010 
 367   0.0000       4.728915       128.6803 
 368   0.0000       4.787529       130.2753 
 369   0.0000       4.799995       130.6145 
 370   0.0000       4.817271       131.0846 
 371   0.0000       4.835570       131.5825 
 372   0.0000       4.853705       132.0760 
 373   0.0000       4.860314       132.2559 
 374   0.0000       4.891959       133.1170 
 375   0.0000       4.938488       134.3831 
 376   0.0000       4.960762       134.9892 
 377   0.0000       4.977583       135.4469 
 378   0.0000       5.004580       136.1815 
 379   0.0000       5.056205       137.5863 
 380   0.0000       5.069018       137.9350 
 381   0.0000       5.076110       138.1280 
 382   0.0000       5.104128       138.8904 
 383   0.0000       5.158802       140.3781 
 384   0.0000       5.168350       140.6380 
 385   0.0000       5.176983       140.8729 
 386   0.0000       5.209004       141.7442 
 387   0.0000       5.264647       143.2583 
 388   0.0000       5.265315       143.2765 
 389   0.0000       5.276720       143.5869 
 390   0.0000       5.305664       144.3745 
 391   0.0000       5.328461       144.9948 
 392   0.0000       5.333336       145.1275 
 393   0.0000       5.360132       145.8566 
 394   0.0000       5.384795       146.5277 
 395   0.0000       5.409941       147.2120 
 396   0.0000       5.437166       147.9528 
 397   0.0000       5.472546       148.9155 
 398   0.0000       5.491477       149.4307 
 399   0.0000       5.517211       150.1310 
 400   0.0000       5.544456       150.8723 
 401   0.0000       5.566302       151.4668 
 402   0.0000       5.613918       152.7625 
 403   0.0000       5.623758       153.0302 
 404   0.0000       5.633225       153.2879 
 405   0.0000       5.647588       153.6787 
 406   0.0000       5.692992       154.9142 
 407   0.0000       5.733925       156.0280 
 408   0.0000       5.777295       157.2082 
 409   0.0000       5.840953       158.9404 
 410   0.0000       5.933812       161.4672 
 411   0.0000       5.975233       162.5944 
 412   0.0000       5.983371       162.8158 
 413   0.0000       6.044949       164.4914 
 414   0.0000       6.061648       164.9458 
 415   0.0000       6.167257       167.8196 
 416   0.0000       6.184057       168.2767 
 417   0.0000       6.267941       170.5593 
 418   0.0000       6.343766       172.6227 
 419   0.0000       6.439373       175.2242 
 420   0.0000       6.461537       175.8274 
 421   0.0000       6.547119       178.1562 
 422   0.0000       6.564456       178.6279 
 423   0.0000       6.591536       179.3648 
 424   0.0000       6.644577       180.8081 
 425   0.0000       6.698053       182.2633 
 426   0.0000       6.728031       183.0790 
 427   0.0000       6.840291       186.1338 
 428   0.0000       6.843524       186.2218 
 429   0.0000       6.853510       186.4935 
 430   0.0000       6.910938       188.0562 
 431   0.0000       6.963024       189.4735 
 432   0.0000       7.003428       190.5730 
 433   0.0000       7.051511       191.8814 
 434   0.0000       7.069868       192.3809 
 435   0.0000       7.126844       193.9313 
 436   0.0000       7.238700       196.9750 
 437   0.0000       7.401937       201.4169 
 438   0.0000       7.457811       202.9374 
 439   0.0000       7.576371       206.1635 
 440   0.0000       7.609248       207.0582 
 441   0.0000       7.689420       209.2398 
 442   0.0000      22.918792       623.6520 
 443   0.0000      23.420577       637.3063 
 444   0.0000      23.495224       639.3376 
 445   0.0000      23.534133       640.3963 
 446   0.0000      23.566191       641.2687 
 447   0.0000      23.787138       647.2809 
 448   0.0000      23.947459       651.6435 
 449   0.0000      24.373265       663.2303 
 450   0.0000      44.361469      1207.1369 
 451   0.0000      44.426667      1208.9111 
 452   0.0000      44.853469      1220.5249 

                    ********************************
                    * MULLIKEN POPULATION ANALYSIS *
                    ********************************

-----------------------
MULLIKEN ATOMIC CHARGES
-----------------------
   0 C :   -0.224112
   1 O :   -0.246545
   2 C :    0.220255
   3 C :   -0.197868
   4 C :   -0.131397
   5 C :   -0.190860
   6 C :   -0.118857
   7 C :   -0.034187
   8 C :    0.319938
   9 O :   -0.331504
  10 O :   -0.273714
  11 H :    0.139957
  12 H :    0.139465
  13 H :    0.135825
  14 H :    0.139584
  15 H :    0.156546
  16 H :    0.149995
  17 H :    0.145712
  18 H :    0.201766
Sum of atomic charges:    0.0000000

--------------------------------
MULLIKEN REDUCED ORBITAL CHARGES
--------------------------------
  0 C s       :     3.263365  s :     3.263365
      pz      :     1.097150  p :     2.856084
      px      :     0.739141
      py      :     1.019793
      dz2     :     0.008498  d :     0.097040
      dxz     :     0.039093
      dyz     :     0.008721
      dx2y2   :     0.024776
      dxy     :     0.015952
      f0      :     0.001140  f :     0.007623
      f+1     :     0.000896
      f-1     :     0.000379
      f+2     :     0.000607
      f-2     :     0.001172
      f+3     :     0.001972
      f-3     :     0.001457
  1 O s       :     3.759673  s :     3.759673
      pz      :     1.735315  p :     4.443226
      px      :     1.429110
      py      :     1.278801
      dz2     :     0.004897  d :     0.041494
      dxz     :     0.003939
      dyz     :     0.006467
      dx2y2   :     0.017052
      dxy     :     0.009138
      f0      :     0.000278  f :     0.002152
      f+1     :     0.000238
      f-1     :     0.000365
      f+2     :     0.000239
      f-2     :     0.000085
      f+3     :     0.000428
      f-3     :     0.000518
  2 C s       :     3.104298  s :     3.104298
      pz      :     0.885629  p :     2.483105
      px      :     0.927315
      py      :     0.670161
      dz2     :     0.003954  d :     0.176311
      dxz     :     0.025455
      dyz     :     0.052307
      dx2y2   :     0.038413
      dxy     :     0.056182
      f0      :     0.002531  f :     0.016031
      f+1     :     0.000789
      f-1     :     0.001265
      f+2     :     0.002741
      f-2     :     0.001054
      f+3     :     0.005175
      f-3     :     0.002475
  3 C s       :     3.226155  s :     3.226155
      pz      :     1.041998  p :     2.899423
      px      :     0.962566
      py      :     0.894858
      dz2     :     0.006167  d :     0.065106
      dxz     :     0.008244
      dyz     :     0.015831
      dx2y2   :     0.014930
      dxy     :     0.019935
      f0      :     0.001470  f :     0.007184
      f+1     :     0.000572
      f-1     :     0.000627
      f+2     :     0.000668
      f-2     :     0.000527
      f+3     :     0.002158
      f-3     :     0.001161
  4 C s       :     3.229864  s :     3.229864
      pz      :     0.907237  p :     2.805496
      px      :     0.966308
      py      :     0.931951
      dz2     :     0.003899  d :     0.088619
      dxz     :     0.012251
      dyz     :     0.021084
      dx2y2   :     0.020911
      dxy     :     0.030473
      f0      :     0.001418  f :     0.007417
      f+1     :     0.000546
      f-1     :     0.000559
      f+2     :     0.001071
      f-2     :     0.000389
      f+3     :     0.002322
      f-3     :     0.001112
  5 C s       :     3.234296  s :     3.234296
      pz      :     1.006355  p :     2.865488
      px      :     0.868804
      py      :     0.990329
      dz2     :     0.003617  d :     0.083857
      dxz     :     0.018938
      dyz     :     0.006438
      dx2y2   :     0.032508
      dxy     :     0.022357
      f0      :     0.001442  f :     0.007219
      f+1     :     0.000584
      f-1     :     0.000568
      f+2     :     0.000271
      f-2     :     0.000941
      f+3     :     0.002342
      f-3     :     0.001071
  6 C s       :     3.217957  s :     3.217957
      pz      :     0.904931  p :     2.803212
      px      :     0.996930
      py      :     0.901351
      dz2     :     0.004118  d :     0.090102
      dxz     :     0.010104
      dyz     :     0.023919
      dx2y2   :     0.027379
      dxy     :     0.024582
      f0      :     0.001420  f :     0.007585
      f+1     :     0.000529
      f-1     :     0.000581
      f+2     :     0.000872
      f-2     :     0.000617
      f+3     :     0.002464
      f-3     :     0.001100
  7 C s       :     3.276345  s :     3.276345
      pz      :     1.074940  p :     2.660063
      px      :     0.797175
      py      :     0.787948
      dz2     :     0.007463  d :     0.088006
      dxz     :     0.014434
      dyz     :     0.018289
      dx2y2   :     0.021076
      dxy     :     0.026745
      f0      :     0.001860  f :     0.009774
      f+1     :     0.000886
      f-1     :     0.000792
      f+2     :     0.000920
      f-2     :     0.000541
      f+3     :     0.003052
      f-3     :     0.001723
  8 C s       :     3.047598  s :     3.047598
      pz      :     0.745806  p :     2.349886
      px      :     0.826308
      py      :     0.777773
      dz2     :     0.012265  d :     0.257993
      dxz     :     0.034898
      dyz     :     0.062785
      dx2y2   :     0.049549
      dxy     :     0.098497
      f0      :     0.002745  f :     0.024584
      f+1     :     0.001180
      f-1     :     0.001905
      f+2     :     0.002709
      f-2     :     0.002629
      f+3     :     0.009382
      f-3     :     0.004035
  9 O s       :     3.777941  s :     3.777941
      pz      :     1.410132  p :     4.519854
      px      :     1.757998
      py      :     1.351724
      dz2     :     0.003119  d :     0.031683
      dxz     :     0.000241
      dyz     :     0.011280
      dx2y2   :     0.009102
      dxy     :     0.007941
      f0      :     0.000185  f :     0.002026
      f+1     :     0.000022
      f-1     :     0.000250
      f+2     :     0.000463
      f-2     :     0.000049
      f+3     :     0.000562
      f-3     :     0.000496
 10 O s       :     3.738713  s :     3.738713
      pz      :     1.759149  p :     4.508628
      px      :     1.201457
      py      :     1.548023
      dz2     :     0.003390  d :     0.025173
      dxz     :     0.002419
      dyz     :     0.003581
      dx2y2   :     0.004243
      dxy     :     0.011540
      f0      :     0.000216  f :     0.001200
      f+1     :     0.000253
      f-1     :     0.000159
      f+2     :     0.000053
      f-2     :     0.000116
      f+3     :     0.000135
      f-3     :     0.000268
 11 H s       :     0.833180  s :     0.833180
      pz      :     0.011940  p :     0.024640
      px      :     0.005763
      py      :     0.006937
      dz2     :     0.000738  d :     0.002223
      dxz     :     0.000475
      dyz     :     0.000418
      dx2y2   :     0.000346
      dxy     :     0.000246
 12 H s       :     0.833679  s :     0.833679
      pz      :     0.011880  p :     0.024636
      px      :     0.005739
      py      :     0.007017
      dz2     :     0.000730  d :     0.002220
      dxz     :     0.000483
      dyz     :     0.000414
      dx2y2   :     0.000354
      dxy     :     0.000239
 13 H s       :     0.836368  s :     0.836368
      pz      :     0.008928  p :     0.025526
      px      :     0.005407
      py      :     0.011190
      dz2     :     0.000185  d :     0.002280
      dxz     :     0.000055
      dyz     :     0.000747
      dx2y2   :     0.000469
      dxy     :     0.000824
 14 H s       :     0.822207  s :     0.822207
      pz      :     0.011304  p :     0.035754
      px      :     0.015343
      py      :     0.009107
      dz2     :     0.000144  d :     0.002456
      dxz     :     0.000646
      dyz     :     0.000154
      dx2y2   :     0.000869
      dxy     :     0.000642
 15 H s       :     0.812090  s :     0.812090
      pz      :     0.008955  p :     0.029092
      px      :     0.011070
      py      :     0.009067
      dz2     :     0.000127  d :     0.002272
      dxz     :     0.000471
      dyz     :     0.000219
      dx2y2   :     0.000893
      dxy     :     0.000562
 16 H s       :     0.817641  s :     0.817641
      pz      :     0.010412  p :     0.030078
      px      :     0.007154
      py      :     0.012512
      dz2     :     0.000128  d :     0.002286
      dxz     :     0.000016
      dyz     :     0.000752
      dx2y2   :     0.000480
      dxy     :     0.000911
 17 H s       :     0.818600  s :     0.818600
      pz      :     0.008919  p :     0.033244
      px      :     0.013021
      py      :     0.011304
      dz2     :     0.000132  d :     0.002444
      dxz     :     0.000572
      dyz     :     0.000137
      dx2y2   :     0.000782
      dxy     :     0.000821
 18 H s       :     0.710344  s :     0.710344
      pz      :     0.027988  p :     0.078243
      px      :     0.024190
      py      :     0.026065
      dz2     :     0.001026  d :     0.009647
      dxz     :     0.001921
      dyz     :     0.001261
      dx2y2   :     0.002167
      dxy     :     0.003272


                     *******************************
                     * LOEWDIN POPULATION ANALYSIS *
                     *******************************

----------------------
LOEWDIN ATOMIC CHARGES
----------------------
   0 C :   -0.048469
   1 O :    0.308989
   2 C :   -0.185475
   3 C :   -0.023621
   4 C :    0.001201
   5 C :   -0.035200
   6 C :    0.015105
   7 C :   -0.092393
   8 C :   -0.424922
   9 O :    0.100171
  10 O :    0.342163
  11 H :    0.009081
  12 H :    0.009029
  13 H :    0.013218
  14 H :    0.023486
  15 H :    0.030153
  16 H :    0.022217
  17 H :    0.027888
  18 H :   -0.092621

-------------------------------
LOEWDIN REDUCED ORBITAL CHARGES
-------------------------------
  0 C s       :     2.723873  s :     2.723873
      pz      :     1.047324  p :     2.842880
      px      :     0.818159
      py      :     0.977398
      dz2     :     0.059652  d :     0.418626
      dxz     :     0.139237
      dyz     :     0.020348
      dx2y2   :     0.127526
      dxy     :     0.071863
      f0      :     0.006339  f :     0.063089
      f+1     :     0.008519
      f-1     :     0.005695
      f+2     :     0.004558
      f-2     :     0.009780
      f+3     :     0.014746
      f-3     :     0.013453
  1 O s       :     3.223999  s :     3.223999
      pz      :     1.597439  p :     4.348997
      px      :     1.425852
      py      :     1.325707
      dz2     :     0.010336  d :     0.111282
      dxz     :     0.011428
      dyz     :     0.017220
      dx2y2   :     0.040607
      dxy     :     0.031690
      f0      :     0.000707  f :     0.006732
      f+1     :     0.000354
      f-1     :     0.000759
      f+2     :     0.000963
      f-2     :     0.000332
      f+3     :     0.002300
      f-3     :     0.001318
  2 C s       :     2.700992  s :     2.700992
      pz      :     0.819187  p :     2.705115
      px      :     1.044337
      py      :     0.841591
      dz2     :     0.044707  d :     0.681239
      dxz     :     0.079867
      dyz     :     0.144709
      dx2y2   :     0.214982
      dxy     :     0.196973
      f0      :     0.006684  f :     0.098129
      f+1     :     0.004362
      f-1     :     0.009240
      f+2     :     0.018589
      f-2     :     0.007729
      f+3     :     0.033632
      f-3     :     0.017893
  3 C s       :     2.712130  s :     2.712130
      pz      :     0.902014  p :     2.899189
      px      :     0.984048
      py      :     1.013127
      dz2     :     0.025889  d :     0.369578
      dxz     :     0.025170
      dyz     :     0.057469
      dx2y2   :     0.115457
      dxy     :     0.145593
      f0      :     0.002451  f :     0.042723
      f+1     :     0.003390
      f-1     :     0.003946
      f+2     :     0.004862
      f-2     :     0.004171
      f+3     :     0.015026
      f-3     :     0.008877
  4 C s       :     2.720565  s :     2.720565
      pz      :     0.808657  p :     2.828688
      px      :     1.005970
      py      :     1.014061
      dz2     :     0.024330  d :     0.405453
      dxz     :     0.038597
      dyz     :     0.067812
      dx2y2   :     0.118006
      dxy     :     0.156708
      f0      :     0.002348  f :     0.044093
      f+1     :     0.003267
      f-1     :     0.003559
      f+2     :     0.007609
      f-2     :     0.002843
      f+3     :     0.016021
      f-3     :     0.008446
  5 C s       :     2.716739  s :     2.716739
      pz      :     0.881297  p :     2.889673
      px      :     1.019653
      py      :     0.988723
      dz2     :     0.024445  d :     0.385363
      dxz     :     0.067328
      dyz     :     0.016852
      dx2y2   :     0.164559
      dxy     :     0.112178
      f0      :     0.002367  f :     0.043424
      f+1     :     0.003890
      f-1     :     0.003167
      f+2     :     0.001977
      f-2     :     0.006933
      f+3     :     0.016410
      f-3     :     0.008680
  6 C s       :     2.713985  s :     2.713985
      pz      :     0.806673  p :     2.822288
      px      :     1.008593
      py      :     1.007023
      dz2     :     0.024938  d :     0.404241
      dxz     :     0.029497
      dyz     :     0.080065
      dx2y2   :     0.136079
      dxy     :     0.133661
      f0      :     0.002414  f :     0.044380
      f+1     :     0.003141
      f-1     :     0.003756
      f+2     :     0.006413
      f-2     :     0.004400
      f+3     :     0.015709
      f-3     :     0.008547
  7 C s       :     2.700586  s :     2.700586
      pz      :     0.921072  p :     2.885838
      px      :     0.961462
      py      :     1.003304
      dz2     :     0.034386  d :     0.453197
      dxz     :     0.049664
      dyz     :     0.062555
      dx2y2   :     0.136389
      dxy     :     0.170203
      f0      :     0.003834  f :     0.052772
      f+1     :     0.004570
      f-1     :     0.004302
      f+2     :     0.006727
      f-2     :     0.004145
      f+3     :     0.019181
      f-3     :     0.010012
  8 C s       :     2.742527  s :     2.742527
      pz      :     0.728050  p :     2.597901
      px      :     0.891521
      py      :     0.978330
      dz2     :     0.066677  d :     0.930942
      dxz     :     0.102065
      dyz     :     0.177710
      dx2y2   :     0.225213
      dxy     :     0.359277
      f0      :     0.009278  f :     0.153552
      f+1     :     0.007343
      f-1     :     0.012398
      f+2     :     0.020571
      f-2     :     0.016945
      f+3     :     0.060629
      f-3     :     0.026387
  9 O s       :     3.392378  s :     3.392378
      pz      :     1.328467  p :     4.433939
      px      :     1.611147
      py      :     1.494325
      dz2     :     0.008264  d :     0.067171
      dxz     :     0.000488
      dyz     :     0.015177
      dx2y2   :     0.024737
      dxy     :     0.018506
      f0      :     0.000477  f :     0.006341
      f+1     :     0.000101
      f-1     :     0.000995
      f+2     :     0.000939
      f-2     :     0.000134
      f+3     :     0.001813
      f-3     :     0.001882
 10 O s       :     3.224514  s :     3.224514
      pz      :     1.582844  p :     4.358269
      px      :     1.243848
      py      :     1.531577
      dz2     :     0.009040  d :     0.069729
      dxz     :     0.007224
      dyz     :     0.004196
      dx2y2   :     0.015569
      dxy     :     0.033700
      f0      :     0.000346  f :     0.005325
      f+1     :     0.000636
      f-1     :     0.000283
      f+2     :     0.000092
      f-2     :     0.000712
      f+3     :     0.001637
      f-3     :     0.001618
 11 H s       :     0.820200  s :     0.820200
      pz      :     0.062624  p :     0.141363
      px      :     0.040951
      py      :     0.037788
      dz2     :     0.009293  d :     0.029356
      dxz     :     0.008121
      dyz     :     0.005800
      dx2y2   :     0.002871
      dxy     :     0.003272
 12 H s       :     0.820255  s :     0.820255
      pz      :     0.062586  p :     0.141374
      px      :     0.040530
      py      :     0.038258
      dz2     :     0.009425  d :     0.029342
      dxz     :     0.007991
      dyz     :     0.005727
      dx2y2   :     0.002899
      dxy     :     0.003300
 13 H s       :     0.817508  s :     0.817508
      pz      :     0.041149  p :     0.139483
      px      :     0.028691
      py      :     0.069644
      dz2     :     0.002795  d :     0.029791
      dxz     :     0.000674
      dyz     :     0.009979
      dx2y2   :     0.008485
      dxy     :     0.007858
 14 H s       :     0.789061  s :     0.789061
      pz      :     0.046805  p :     0.157105
      px      :     0.066808
      py      :     0.043492
      dz2     :     0.002710  d :     0.030347
      dxz     :     0.007560
      dyz     :     0.001653
      dx2y2   :     0.009550
      dxy     :     0.008874
 15 H s       :     0.796704  s :     0.796704
      pz      :     0.036861  p :     0.144184
      px      :     0.061591
      py      :     0.045731
      dz2     :     0.002690  d :     0.028959
      dxz     :     0.005462
      dyz     :     0.002468
      dx2y2   :     0.009477
      dxy     :     0.008861
 16 H s       :     0.799686  s :     0.799686
      pz      :     0.043131  p :     0.148635
      px      :     0.033588
      py      :     0.071916
      dz2     :     0.002671  d :     0.029462
      dxz     :     0.000088
      dyz     :     0.008756
      dx2y2   :     0.008611
      dxy     :     0.009337
 17 H s       :     0.790974  s :     0.790974
      pz      :     0.037349  p :     0.151164
      px      :     0.072398
      py      :     0.041417
      dz2     :     0.002726  d :     0.029973
      dxz     :     0.006711
      dyz     :     0.001462
      dx2y2   :     0.009249
      dxy     :     0.009825
 18 H s       :     0.671941  s :     0.671941
      pz      :     0.092705  p :     0.323640
      px      :     0.108802
      py      :     0.122133
      dz2     :     0.007990  d :     0.097041
      dxz     :     0.020778
      dyz     :     0.012812
      dx2y2   :     0.029027
      dxy     :     0.026434


                      *****************************
                      * MAYER POPULATION ANALYSIS *
                      *****************************

  NA   - Mulliken gross atomic population
  ZA   - Total nuclear charge
  QA   - Mulliken gross atomic charge
  VA   - Mayer's total valence
  BVA  - Mayer's bonded valence
  FA   - Mayer's free valence

  ATOM       NA         ZA         QA         VA         BVA        FA
  0 C      6.2241     6.0000    -0.2241     3.8494     3.8494     0.0000
  1 O      8.2465     8.0000    -0.2465     2.1072     2.1072     0.0000
  2 C      5.7797     6.0000     0.2203     3.9947     3.9947     0.0000
  3 C      6.1979     6.0000    -0.1979     3.8121     3.8121    -0.0000
  4 C      6.1314     6.0000    -0.1314     3.8977     3.8977    -0.0000
  5 C      6.1909     6.0000    -0.1909     3.9259     3.9259     0.0000
  6 C      6.1189     6.0000    -0.1189     3.9300     3.9300     0.0000
  7 C      6.0342     6.0000    -0.0342     3.4512     3.4512     0.0000
  8 C      5.6801     6.0000     0.3199     4.3848     4.3848     0.0000
  9 O      8.3315     8.0000    -0.3315     2.1693     2.1693    -0.0000
 10 O      8.2737     8.0000    -0.2737     2.1410     2.1410    -0.0000
 11 H      0.8600     1.0000     0.1400     0.9669     0.9669     0.0000
 12 H      0.8605     1.0000     0.1395     0.9669     0.9669    -0.0000
 13 H      0.8642     1.0000     0.1358     0.9828     0.9828     0.0000
 14 H      0.8604     1.0000     0.1396     1.0022     1.0022    -0.0000
 15 H      0.8435     1.0000     0.1565     0.9871     0.9871    -0.0000
 16 H      0.8500     1.0000     0.1500     0.9918     0.9918     0.0000
 17 H      0.8543     1.0000     0.1457     1.0177     1.0177    -0.0000
 18 H      0.7982     1.0000     0.2018     1.0435     1.0435    -0.0000

  Mayer bond orders larger than 0.100000
B(  0-C ,  1-O ) :   0.9114 B(  0-C , 11-H ) :   0.9667 B(  0-C , 12-H ) :   0.9666 
B(  0-C , 13-H ) :   0.9827 B(  1-O ,  2-C ) :   1.2269 B(  2-C ,  3-C ) :   1.3365 
B(  2-C ,  7-C ) :   1.2988 B(  3-C ,  4-C ) :   1.4067 B(  3-C , 14-H ) :   0.9676 
B(  4-C ,  5-C ) :   1.4054 B(  4-C , 15-H ) :   0.9666 B(  5-C ,  6-C ) :   1.4461 
B(  5-C , 16-H ) :   0.9807 B(  6-C ,  7-C ) :   1.3700 B(  6-C , 17-H ) :   0.9593 
B(  7-C ,  8-C ) :   0.9524 B(  7-C , 10-O ) :  -0.1239 B(  8-C ,  9-O ) :   2.1296 
B(  8-C , 10-O ) :   1.2095 B( 10-O , 18-H ) :   0.9673 

-------
TIMINGS
-------

Total SCF time: 0 days 0 hours 0 min 59 sec 

Total time                  ....      59.489 sec
Sum of individual times     ....      58.462 sec  ( 98.3%)

Fock matrix formation       ....      55.789 sec  ( 93.8%)
  Split-RI-J                ....       2.402 sec  (  4.3% of F)
  Chain of spheres X        ....      43.032 sec  ( 77.1% of F)
  XC integration            ....       6.320 sec  ( 11.3% of F)
    Basis function eval.    ....       0.708 sec  ( 11.2% of XC)
    Density eval.           ....       2.174 sec  ( 34.4% of XC)
    XC-Functional eval.     ....       0.331 sec  (  5.2% of XC)
    XC-Potential eval.      ....       2.497 sec  ( 39.5% of XC)
Diagonalization             ....       0.489 sec  (  0.8%)
Density matrix formation    ....       0.018 sec  (  0.0%)
Population analysis         ....       0.039 sec  (  0.1%)
Initial guess               ....       0.521 sec  (  0.9%)
Orbital Transformation      ....       0.000 sec  (  0.0%)
Orbital Orthonormalization  ....       0.000 sec  (  0.0%)
DIIS solution               ....       0.366 sec  (  0.6%)
SOSCF solution              ....       0.124 sec  (  0.2%)
Grid generation             ....       1.116 sec  (  1.9%)

Maximum memory used throughout the entire SCF-calculation: 95.1 MB

-------------------------   --------------------
FINAL SINGLE POINT ENERGY      -535.391323147065
-------------------------   --------------------


                            ***************************************
                            *     ORCA property calculations      *
                            ***************************************

                                    ---------------------
                                    Active property flags
                                    ---------------------
   (+) Dipole Moment


------------------------------------------------------------------------------
                       ORCA ELECTRIC PROPERTIES CALCULATION
------------------------------------------------------------------------------

Dipole Moment Calculation                       ... on
Quadrupole Moment Calculation                   ... off
Polarizability Calculation                      ... off
GBWName                                         ... /tmp/265179/Ac4_rdkit_conf_1_spc.gbw
Electron density                                ... /tmp/265179/Ac4_rdkit_conf_1_spc.scfp
The origin for moment calculation is the CENTER OF MASS  = ( 0.095570, -0.007600  0.002605)

-------------
DIPOLE MOMENT
-------------
                                X             Y             Z
Electronic contribution:      6.57020      -0.01741       0.11635
Nuclear contribution   :     -7.64556       0.60795      -0.20842
                        -----------------------------------------
Total Dipole Moment    :     -1.07536       0.59055      -0.09207
                        -----------------------------------------
Magnitude (a.u.)       :      1.23030
Magnitude (Debye)      :      3.12716



--------------------
Rotational spectrum 
--------------------
 
Rotational constants in cm-1:     0.047346     0.038524     0.021384 
Rotational constants in MHz :  1419.397059  1154.926276   641.080199 

 Dipole components along the rotational axes: 
x,y,z [a.u.] :    -1.142627     0.446970    -0.090819 
x,y,z [Debye]:    -2.904328     1.136108    -0.230843 

 

Timings for individual modules:

Sum of individual times         ...       60.359 sec (=   1.006 min)
GTO integral calculation        ...        0.610 sec (=   0.010 min)   1.0 %
SCF iterations                  ...       59.749 sec (=   0.996 min)  99.0 %
                             ****ORCA TERMINATED NORMALLY****
TOTAL RUN TIME: 0 days 0 hours 1 minutes 0 seconds 950 msec
