Job Start Time: Thu May  9 18:54:07 MDT 2024
SLURM Job ID: 265185
SLURM Job Name: Ac7_rdkit_conf_1_spc
SLURM Job Nodes: node08
SLURM Memory / CPU: 8000

                                 *****************
                                 * O   R   C   A *
                                 *****************

                                            #,                                       
                                            ###                                      
                                            ####                                     
                                            #####                                    
                                            ######                                   
                                           ########,                                 
                                     ,,################,,,,,                         
                               ,,#################################,,                 
                          ,,##########################################,,             
                       ,#########################################, ''#####,          
                    ,#############################################,,   '####,        
                  ,##################################################,,,,####,       
                ,###########''''           ''''###############################       
              ,#####''   ,,,,##########,,,,          '''####'''          '####       
            ,##' ,,,,###########################,,,                        '##       
           ' ,,###''''                  '''############,,,                           
         ,,##''                                '''############,,,,        ,,,,,,###''
      ,#''                                            '''#######################'''  
     '                                                          ''''####''''         
             ,#######,   #######,   ,#######,      ##                                
            ,#'     '#,  ##    ##  ,#'     '#,    #''#        ######   ,####,        
            ##       ##  ##   ,#'  ##            #'  '#       #        #'  '#        
            ##       ##  #######   ##           ,######,      #####,   #    #        
            '#,     ,#'  ##    ##  '#,     ,#' ,#      #,         ##   #,  ,#        
             '#######'   ##     ##  '#######'  #'      '#     #####' # '####'        



                  #######################################################
                  #                        -***-                        #
                  #          Department of theory and spectroscopy      #
                  #    Directorship and core code : Frank Neese         #
                  #        Max Planck Institute fuer Kohlenforschung    #
                  #                Kaiser Wilhelm Platz 1               #
                  #                 D-45470 Muelheim/Ruhr               #
                  #                      Germany                        #
                  #                                                     #
                  #                  All rights reserved                #
                  #                        -***-                        #
                  #######################################################


                         Program Version 5.0.3 -  RELEASE  -


 With contributions from (in alphabetic order):
   Daniel Aravena         : Magnetic Suceptibility
   Michael Atanasov       : Ab Initio Ligand Field Theory (pilot matlab implementation)
   Alexander A. Auer      : GIAO ZORA, VPT2 properties, NMR spectrum
   Ute Becker             : Parallelization
   Giovanni Bistoni       : ED, misc. LED, open-shell LED, HFLD
   Martin Brehm           : Molecular dynamics
   Dmytro Bykov           : SCF Hessian
   Vijay G. Chilkuri      : MRCI spin determinant printing, contributions to CSF-ICE
   Dipayan Datta          : RHF DLPNO-CCSD density
   Achintya Kumar Dutta   : EOM-CC, STEOM-CC
   Dmitry Ganyushin       : Spin-Orbit,Spin-Spin,Magnetic field MRCI
   Miquel Garcia          : C-PCM and meta-GGA Hessian, CC/C-PCM, Gaussian charge scheme
   Yang Guo               : DLPNO-NEVPT2, F12-NEVPT2, CIM, IAO-localization
   Andreas Hansen         : Spin unrestricted coupled pair/coupled cluster methods
   Benjamin Helmich-Paris : MC-RPA, TRAH-SCF, COSX integrals
   Lee Huntington         : MR-EOM, pCC
   Robert Izsak           : Overlap fitted RIJCOSX, COSX-SCS-MP3, EOM
   Marcus Kettner         : VPT2
   Christian Kollmar      : KDIIS, OOCD, Brueckner-CCSD(T), CCSD density, CASPT2, CASPT2-K
   Simone Kossmann        : Meta GGA functionals, TD-DFT gradient, OOMP2, MP2 Hessian
   Martin Krupicka        : Initial AUTO-CI
   Lucas Lang             : DCDCAS
   Marvin Lechner         : AUTO-CI (C++ implementation), FIC-MRCC
   Dagmar Lenk            : GEPOL surface, SMD
   Dimitrios Liakos       : Extrapolation schemes; Compound Job, initial MDCI parallelization
   Dimitrios Manganas     : Further ROCIS development; embedding schemes
   Dimitrios Pantazis     : SARC Basis sets
   Anastasios Papadopoulos: AUTO-CI, single reference methods and gradients
   Taras Petrenko         : DFT Hessian,TD-DFT gradient, ASA, ECA, R-Raman, ABS, FL, XAS/XES, NRVS
   Peter Pinski           : DLPNO-MP2, DLPNO-MP2 Gradient
   Christoph Reimann      : Effective Core Potentials
   Marius Retegan         : Local ZFS, SOC
   Christoph Riplinger    : Optimizer, TS searches, QM/MM, DLPNO-CCSD(T), (RO)-DLPNO pert. Triples
   Tobias Risthaus        : Range-separated hybrids, TD-DFT gradient, RPA, STAB
   Michael Roemelt        : Original ROCIS implementation
   Masaaki Saitow         : Open-shell DLPNO-CCSD energy and density
   Barbara Sandhoefer     : DKH picture change effects
   Avijit Sen             : IP-ROCIS
   Kantharuban Sivalingam : CASSCF convergence, NEVPT2, FIC-MRCI
   Bernardo de Souza      : ESD, SOC TD-DFT
   Georgi Stoychev        : AutoAux, RI-MP2 NMR, DLPNO-MP2 response
   Willem Van den Heuvel  : Paramagnetic NMR
   Boris Wezisla          : Elementary symmetry handling
   Frank Wennmohs         : Technical directorship


 We gratefully acknowledge several colleagues who have allowed us to
 interface, adapt or use parts of their codes:
   Stefan Grimme, W. Hujo, H. Kruse, P. Pracht,  : VdW corrections, initial TS optimization,
                  C. Bannwarth, S. Ehlert          DFT functionals, gCP, sTDA/sTD-DF
   Ed Valeev, F. Pavosevic, A. Kumar             : LibInt (2-el integral package), F12 methods
   Garnet Chan, S. Sharma, J. Yang, R. Olivares  : DMRG
   Ulf Ekstrom                                   : XCFun DFT Library
   Mihaly Kallay                                 : mrcc  (arbitrary order and MRCC methods)
   Jiri Pittner, Ondrej Demel                    : Mk-CCSD
   Frank Weinhold                                : gennbo (NPA and NBO analysis)
   Christopher J. Cramer and Donald G. Truhlar   : smd solvation model
   Lars Goerigk                                  : TD-DFT with DH, B97 family of functionals
   V. Asgeirsson, H. Jonsson                     : NEB implementation
   FAccTs GmbH                                   : IRC, NEB, NEB-TS, DLPNO-Multilevel, CI-OPT
                                                   MM, QMMM, 2- and 3-layer-ONIOM, Crystal-QMMM,
                                                   LR-CPCM, SF, NACMEs, symmetry and pop. for TD-DFT,
                                                   nearIR, NL-DFT gradient (VV10), updates on ESD,
                                                   ML-optimized integration grids
   S Lehtola, MJT Oliveira, MAL Marques          : LibXC Library
   Liviu Ungur et al                             : ANISO software


 Your calculation uses the libint2 library for the computation of 2-el integrals
 For citations please refer to: http://libint.valeyev.net

 Your ORCA version has been built with support for libXC version: 5.1.0
 For citations please refer to: https://tddft.org/programs/libxc/

 This ORCA versions uses:
   CBLAS   interface :  Fast vector & matrix operations
   LAPACKE interface :  Fast linear algebra routines
   SCALAPACK package :  Parallel linear algebra routines
   Shared memory     :  Shared parallel matrices
   BLAS/LAPACK       :  OpenBLAS 0.3.15  USE64BITINT DYNAMIC_ARCH NO_AFFINITY Zen SINGLE_THREADED
        Core in use  :  Zen
   Copyright (c) 2011-2014, The OpenBLAS Project


Your calculation utilizes the DFT-NL dispersion correction.
Cite in your paper:
Vydrov, O. A.; Van Voorhis, T. J. Chem. Phys. 2010, 133, 244103
Hujo, W.; Grimme, S. J. Chem. Theory Comput. 2011, 7, 3866 
   

Your calculation utilizes the SMD solvation module
Please cite in your paper:
A.V. Marenich, C.J. Cramer, D.G. Truhlar J. Phys. Chem. B, 113, (2009), 6378 

================================================================================

----- Orbital basis set information -----
Your calculation utilizes the basis: def2-TZVPP
   F. Weigend and R. Ahlrichs, Phys. Chem. Chem. Phys. 7, 3297 (2005).

----- AuxJ basis set information -----
Your calculation utilizes the auxiliary basis: def2/J
   F. Weigend, Phys. Chem. Chem. Phys. 8, 1057 (2006).

================================================================================
                                        WARNINGS
                       Please study these warnings very carefully!
================================================================================

Using LibXC functional ID 531 : wB97M-V exchange-correlation functional
[ 1]  N. Mardirossian and M. Head-Gordon, J. Chem. Phys. 144, 214110 (2016)
Using LibXC functional ID 531 : wB97M-V exchange-correlation functional
[ 1]  N. Mardirossian and M. Head-Gordon, J. Chem. Phys. 144, 214110 (2016)

WARNING: B97M-V or wB97M-V functional requested.
  ===> : libXC variant has now been activated.
         Any manually given DFX/HFX/RangeSep scaling parameters are IGNORED!

Your calculation utilizes LibXC
 by S Lehtola, C Steigemann, MJT Oliveira & MAL Marques
Please cite in your paper:
 S Lehtola, C Steigemann, MJT Oliveira & MAL Marques, SoftwareX, 7, (2018), 1.
   


INFO   : the flag for use of the SHARK integral package has been found!

================================================================================
                                       INPUT FILE
================================================================================
NAME = /tmp/265185/Ac7_rdkit_conf_1_spc.inp
|  1> # Ac7_rdkit_conf_1_spc
|  2> %maxcore 16000
|  3> %pal nprocs 8 end
|  4> ! wB97M-V def2-TZVPP def2/J RIJCOSX
|  5> %cpcm
|  6> smd true
|  7> SMDsolvent "ETHYL ETHANOATE"
|  8> end
|  9> * xyz 0 1
| 10>  O  -1.70179700  -1.23960300  -0.68930200
| 11>  C  -1.49360900  -0.22711100  -0.08026600
| 12>  O  -2.28720200   0.85535900  -0.21497200
| 13>  C  -0.38623300  -0.00364400   0.92826200
| 14>  C   0.60446000  -1.16821700   0.92126800
| 15>  C   1.46720500  -1.17789000  -0.34062900
| 16>  C   2.16651900   0.16311600  -0.55298800
| 17>  C   1.15698200   1.30885400  -0.58057700
| 18>  C   0.32901200   1.33588800   0.70166200
| 19>  H  -2.98012400   0.61761300  -0.84758700
| 20>  H  -0.89970600   0.03816500   1.89496000
| 21>  H   1.24823600  -1.06396500   1.79967600
| 22>  H   0.06689900  -2.11156400   1.01784200
| 23>  H   2.20198100  -1.98236600  -0.27468900
| 24>  H   0.83212800  -1.39827300  -1.20235400
| 25>  H   2.74495500   0.14432600  -1.47850400
| 26>  H   2.87762700   0.33636200   0.26243700
| 27>  H   1.66538200   2.26543100  -0.71397800
| 28>  H   0.48995300   1.18468100  -1.44155700
| 29>  H  -0.39456100   2.14994100   0.68386700
| 30>  H   0.99320500   1.50762800   1.55369400
| 31> **                         ****END OF INPUT****
================================================================================

                       ****************************
                       * Single Point Calculation *
                       ****************************

---------------------------------
CARTESIAN COORDINATES (ANGSTROEM)
---------------------------------
  O     -1.701797   -1.239603   -0.689302
  C     -1.493609   -0.227111   -0.080266
  O     -2.287202    0.855359   -0.214972
  C     -0.386233   -0.003644    0.928262
  C      0.604460   -1.168217    0.921268
  C      1.467205   -1.177890   -0.340629
  C      2.166519    0.163116   -0.552988
  C      1.156982    1.308854   -0.580577
  C      0.329012    1.335888    0.701662
  H     -2.980124    0.617613   -0.847587
  H     -0.899706    0.038165    1.894960
  H      1.248236   -1.063965    1.799676
  H      0.066899   -2.111564    1.017842
  H      2.201981   -1.982366   -0.274689
  H      0.832128   -1.398273   -1.202354
  H      2.744955    0.144326   -1.478504
  H      2.877627    0.336362    0.262437
  H      1.665382    2.265431   -0.713978
  H      0.489953    1.184681   -1.441557
  H     -0.394561    2.149941    0.683867
  H      0.993205    1.507628    1.553694

----------------------------
CARTESIAN COORDINATES (A.U.)
----------------------------
  NO LB      ZA    FRAG     MASS         X           Y           Z
   0 O     8.0000    0    15.999   -3.215930   -2.342510   -1.302592
   1 C     6.0000    0    12.011   -2.822512   -0.429178   -0.151681
   2 O     8.0000    0    15.999   -4.322185    1.616394   -0.406238
   3 C     6.0000    0    12.011   -0.729875   -0.006886    1.754161
   4 C     6.0000    0    12.011    1.142264   -2.207610    1.740944
   5 C     6.0000    0    12.011    2.772616   -2.225890   -0.643696
   6 C     6.0000    0    12.011    4.094128    0.308245   -1.044996
   7 C     6.0000    0    12.011    2.186379    2.473376   -1.097132
   8 C     6.0000    0    12.011    0.621743    2.524462    1.325949
   9 H     1.0000    0     1.008   -5.631618    1.167119   -1.601707
  10 H     1.0000    0     1.008   -1.700198    0.072121    3.580955
  11 H     1.0000    0     1.008    2.358824   -2.010602    3.400895
  12 H     1.0000    0     1.008    0.126421   -3.990278    1.923443
  13 H     1.0000    0     1.008    4.161141   -3.746129   -0.519087
  14 H     1.0000    0     1.008    1.572494   -2.642353   -2.272120
  15 H     1.0000    0     1.008    5.187213    0.272737   -2.793968
  16 H     1.0000    0     1.008    5.437927    0.635632    0.495934
  17 H     1.0000    0     1.008    3.147116    4.281044   -1.349223
  18 H     1.0000    0     1.008    0.925877    2.238723   -2.724148
  19 H     1.0000    0     1.008   -0.745612    4.062800    1.292321
  20 H     1.0000    0     1.008    1.876885    2.849004    2.936056

--------------------------------
INTERNAL COORDINATES (ANGSTROEM)
--------------------------------
 O      0   0   0     0.000000000000     0.00000000     0.00000000
 C      1   0   0     1.199752950696     0.00000000     0.00000000
 O      2   1   0     1.348953986237   121.62951799     0.00000000
 C      2   1   3     1.514380345966   126.12070294   178.13665725
 C      4   2   1     1.528970833147   110.99977937     9.43444378
 C      5   4   2     1.528661682833   111.98006325    71.68002472
 C      6   5   4     1.527230666112   111.57103965    53.82017831
 C      7   6   5     1.527298815535   111.01079420   304.73996943
 C      8   7   6     1.526565429707   110.89269255    56.80703908
 H      3   2   1     0.967918280035   106.81741659     0.39005047
 H      4   2   1     1.095402910994   104.51187045   251.26719544
 H      5   4   2     1.094036851365   107.75970484   191.97229814
 H      5   4   2     1.090046755239   109.82943898   308.84863376
 H      6   5   4     1.091524387429   109.55523064   176.28324910
 H      6   5   4     1.092914195279   108.91678041   292.85088589
 H      7   6   5     1.091568200550   110.20783916   182.16117216
 H      7   6   5     1.095721997044   109.42191592    64.95334590
 H      8   7   6     1.091469625656   110.59626529   178.94565533
 H      8   7   6     1.096190303355   109.35526132   296.11690797
 H      9   8   7     1.089291896217   111.08731749   180.19624633
 H      9   8   7     1.093894646606   109.12897257    61.99154834

---------------------------
INTERNAL COORDINATES (A.U.)
---------------------------
 O      0   0   0     0.000000000000     0.00000000     0.00000000
 C      1   0   0     2.267204505180     0.00000000     0.00000000
 O      2   1   0     2.549153601250   121.62951799     0.00000000
 C      2   1   3     2.861764116469   126.12070294   178.13665725
 C      4   2   1     2.889336141401   110.99977937     9.43444378
 C      5   4   2     2.888751931974   111.98006325    71.68002472
 C      6   5   4     2.886047702278   111.57103965    53.82017831
 C      7   6   5     2.886176486023   111.01079420   304.73996943
 C      8   7   6     2.884790587658   110.89269255    56.80703908
 H      3   2   1     1.829100469281   106.81741659     0.39005047
 H      4   2   1     2.070011508079   104.51187045   251.26719544
 H      5   4   2     2.067430029497   107.75970484   191.97229814
 H      5   4   2     2.059889840570   109.82943898   308.84863376
 H      6   5   4     2.062682160737   109.55523064   176.28324910
 H      6   5   4     2.065308516953   108.91678041   292.85088589
 H      7   6   5     2.062764955537   110.20783916   182.16117216
 H      7   6   5     2.070614493325   109.42191592    64.95334590
 H      8   7   6     2.062578675984   110.59626529   178.94565533
 H      8   7   6     2.071499464001   109.35526132   296.11690797
 H      9   8   7     2.058463363749   111.08731749   180.19624633
 H      9   8   7     2.067161301448   109.12897257    61.99154834

---------------------
BASIS SET INFORMATION
---------------------
There are 3 groups of distinct atoms

 Group   1 Type O   : 11s6p2d1f contracted to 5s3p2d1f pattern {62111/411/11/1}
 Group   2 Type C   : 11s6p2d1f contracted to 5s3p2d1f pattern {62111/411/11/1}
 Group   3 Type H   : 5s2p1d contracted to 3s2p1d pattern {311/11/1}

Atom   0O    basis set group =>   1
Atom   1C    basis set group =>   2
Atom   2O    basis set group =>   1
Atom   3C    basis set group =>   2
Atom   4C    basis set group =>   2
Atom   5C    basis set group =>   2
Atom   6C    basis set group =>   2
Atom   7C    basis set group =>   2
Atom   8C    basis set group =>   2
Atom   9H    basis set group =>   3
Atom  10H    basis set group =>   3
Atom  11H    basis set group =>   3
Atom  12H    basis set group =>   3
Atom  13H    basis set group =>   3
Atom  14H    basis set group =>   3
Atom  15H    basis set group =>   3
Atom  16H    basis set group =>   3
Atom  17H    basis set group =>   3
Atom  18H    basis set group =>   3
Atom  19H    basis set group =>   3
Atom  20H    basis set group =>   3
---------------------------------
AUXILIARY/J BASIS SET INFORMATION
---------------------------------
There are 3 groups of distinct atoms

 Group   1 Type O   : 12s5p4d2f1g contracted to 6s4p3d1f1g pattern {711111/2111/211/2/1}
 Group   2 Type C   : 12s5p4d2f1g contracted to 6s4p3d1f1g pattern {711111/2111/211/2/1}
 Group   3 Type H   : 5s2p1d contracted to 3s1p1d pattern {311/2/1}

Atom   0O    basis set group =>   1
Atom   1C    basis set group =>   2
Atom   2O    basis set group =>   1
Atom   3C    basis set group =>   2
Atom   4C    basis set group =>   2
Atom   5C    basis set group =>   2
Atom   6C    basis set group =>   2
Atom   7C    basis set group =>   2
Atom   8C    basis set group =>   2
Atom   9H    basis set group =>   3
Atom  10H    basis set group =>   3
Atom  11H    basis set group =>   3
Atom  12H    basis set group =>   3
Atom  13H    basis set group =>   3
Atom  14H    basis set group =>   3
Atom  15H    basis set group =>   3
Atom  16H    basis set group =>   3
Atom  17H    basis set group =>   3
Atom  18H    basis set group =>   3
Atom  19H    basis set group =>   3
Atom  20H    basis set group =>   3


           ************************************************************
           *        Program running with 8 parallel MPI-processes     *
           *              working on a common directory               *
           ************************************************************
------------------------------------------------------------------------------
                           ORCA GTO INTEGRAL CALCULATION
                           -- RI-GTO INTEGRALS CHOSEN --
------------------------------------------------------------------------------
------------------------------------------------------------------------------
                   ___                                                        
                  /   \      - P O W E R E D   B Y -                         
                 /     \                                                     
                 |  |  |   _    _      __       _____    __    __             
                 |  |  |  | |  | |    /  \     |  _  \  |  |  /  |          
                  \  \/   | |  | |   /    \    | | | |  |  | /  /          
                 / \  \   | |__| |  /  /\  \   | |_| |  |  |/  /          
                |  |  |   |  __  | /  /__\  \  |    /   |      \           
                |  |  |   | |  | | |   __   |  |    \   |  |\   \          
                \     /   | |  | | |  |  |  |  | |\  \  |  | \   \       
                 \___/    |_|  |_| |__|  |__|  |_| \__\ |__|  \__/        
                                                                              
                      - O R C A' S   B I G   F R I E N D -                    
                                      &                                       
                       - I N T E G R A L  F E E D E R -                       
                                                                              
 v1 FN, 2020, v2 2021                                                         
------------------------------------------------------------------------------


Reading SHARK input file /tmp/265185/Ac7_rdkit_conf_1_spc.SHARKINP.tmp ... ok
----------------------
SHARK INTEGRAL PACKAGE
----------------------

Number of atoms                             ...     21
Number of basis functions                   ...    447
Number of shells                            ...    171
Maximum angular momentum                    ...      3
Integral batch strategy                     ... SHARK/LIBINT Hybrid
RI-J (if used) integral strategy            ... SPLIT-RIJ (Revised 2003 algorithm where possible)
Printlevel                                  ...      1
Contraction scheme used                     ... SEGMENTED contraction
Coulomb Range Separation                    ... NOT USED
Exchange Range Separation                   ... Long Range
   Mu parameter                             ...  0.300000
   Scaling (regular/separated)              ...  0.150000  0.850000
Finite Nucleus Model                        ... NOT USED
Auxiliary Coulomb fitting basis             ... AVAILABLE
   # of basis functions in Aux-J            ...    573
   # of shells in Aux-J                     ...    195
   Maximum angular momentum in Aux-J        ...      4
Auxiliary J/K fitting basis                 ... NOT available
Auxiliary Correlation fitting basis         ... NOT available
Auxiliary 'external' fitting basis          ... NOT available
Integral threshold                          ...     1.000000e-10
Primitive cut-off                           ...     1.000000e-11
Primitive pair pre-selection threshold      ...     1.000000e-11

Calculating pre-screening integrals         ... done (  0.0 sec) Dimension = 171
Organizing shell pair data                  ... done (  0.1 sec)
Shell pair information
Total number of shell pairs                 ...     14706
Shell pairs after pre-screening             ...     13297
Total number of primitive shell pairs       ...     38460
Primitive shell pairs kept                  ...     26811
          la=0 lb=0:   2953 shell pairs
          la=1 lb=0:   3777 shell pairs
          la=1 lb=1:   1244 shell pairs
          la=2 lb=0:   2129 shell pairs
          la=2 lb=1:   1385 shell pairs
          la=2 lb=2:    408 shell pairs
          la=3 lb=0:    674 shell pairs
          la=3 lb=1:    433 shell pairs
          la=3 lb=2:    250 shell pairs
          la=3 lb=3:     44 shell pairs

Calculating one electron integrals          ... done (  0.0 sec)
Calculating RI/J V-Matrix + Cholesky decomp.... done (  0.0 sec)
Calculating Nuclear repulsion               ... done (  0.0 sec) ENN=    488.418878034048 Eh

SHARK setup successfully completed in   0.4 seconds

Maximum memory used throughout the entire GTOINT-calculation: 25.7 MB


           ************************************************************
           *        Program running with 8 parallel MPI-processes     *
           *              working on a common directory               *
           ************************************************************
-------------------------------------------------------------------------------
                                 ORCA SCF
-------------------------------------------------------------------------------

------------
SCF SETTINGS
------------
Hamiltonian:
 Density Functional     Method          .... DFT(GTOs)
  Functional kind                       .... Exchange-Correlation
  Functional name                       .... wB97M-V exchange-correlation functional
  Functional family                     .... Hybrid MGGA
  Functional refs                              
    [ 0] N. Mardirossian and M. Head-Gordon, J. Chem. Phys. 144, 214110 (2016)
  Fraction of HF Exchange (short range) .... 0.1500
  Fraction of HF Exchange (long range)  .... 1.0000
  Range separation parameter mu         .... 0.3000
  Functional external parameters         .... 0
   Density functional embedding theory  .... OFF
 Long-range corrected/Screened/Range-Separated Hybrid DFT is turned on
   Amount of maximum screened exact exchange              ....  0.850000
   Range separation parameter mu (erf(mu*r12)/r12)        ....  0.300000
   NL short-range parameter             ....  6.000000
   NL long-range parameter              ....  0.010000
 RI-approximation to the Coulomb term is turned on
   Number of AuxJ basis functions       .... 573
   RIJ-COSX (HFX calculated with COS-X)).... on


General Settings:
 Integral files         IntName         .... /tmp/265185/Ac7_rdkit_conf_1_spc
 Hartree-Fock type      HFTyp           .... RHF
 Total Charge           Charge          ....    0
 Multiplicity           Mult            ....    1
 Number of Electrons    NEL             ....   70
 Basis Dimension        Dim             ....  447
 Nuclear Repulsion      ENuc            ....    488.4188780340 Eh

Convergence Acceleration:
 DIIS                   CNVDIIS         .... on
   Start iteration      DIISMaxIt       ....    12
   Startup error        DIISStart       ....  0.200000
   # of expansion vecs  DIISMaxEq       ....     5
   Bias factor          DIISBfac        ....   1.050
   Max. coefficient     DIISMaxC        ....  10.000
 Trust-Rad. Augm. Hess. CNVTRAH         .... auto
   Auto Start mean grad. ratio tolernc. ....  1.125000
   Auto Start start iteration           ....    20
   Auto Start num. interpolation iter.  ....    10
   Max. Number of Micro iterations      ....    16
   Max. Number of Macro iterations      .... Maxiter - #DIIS iter
   Number of Davidson start vectors     ....     2
   Converg. threshold I  (grad. norm)   ....   5.000e-05
   Converg. threshold II (energy diff.) ....   1.000e-06
   Grad. Scal. Fac. for Micro threshold ....   0.100
   Minimum threshold for Micro iter.    ....   0.010
   NR start threshold (gradient norm)   ....   0.001
   Initial trust radius                 ....   0.400
   Minimum AH scaling param. (alpha)    ....   1.000
   Maximum AH scaling param. (alpha)    .... 1000.000
   Orbital update algorithm             .... Taylor
   White noise on init. David. guess    .... on
   Maximum white noise                  ....   0.010
   Quad. conv. algorithm                .... NR
 SOSCF                  CNVSOSCF        .... on
   Start iteration      SOSCFMaxIt      ....   150
   Startup grad/error   SOSCFStart      ....  0.003300
 Level Shifting         CNVShift        .... on
   Level shift para.    LevelShift      ....    0.2500
   Turn off err/grad.   ShiftErr        ....    0.0010
 Zerner damping         CNVZerner       .... off
 Static damping         CNVDamp         .... on
   Fraction old density DampFac         ....    0.7000
   Max. Damping (<1)    DampMax         ....    0.9800
   Min. Damping (>=0)   DampMin         ....    0.0000
   Turn off err/grad.   DampErr         ....    0.1000
 Fernandez-Rico         CNVRico         .... off

SCF Procedure:
 Maximum # iterations   MaxIter         ....   125
 SCF integral mode      SCFMode         .... Direct
   Integral package                     .... SHARK and LIBINT hybrid scheme
 Reset frequency        DirectResetFreq ....    20
 Integral Threshold     Thresh          ....  1.000e-10 Eh
 Primitive CutOff       TCut            ....  1.000e-11 Eh

Convergence Tolerance:
 Convergence Check Mode ConvCheckMode   .... Total+1el-Energy
 Convergence forced     ConvForced      .... 0
 Energy Change          TolE            ....  1.000e-06 Eh
 1-El. energy change                    ....  1.000e-03 Eh
 Orbital Gradient       TolG            ....  5.000e-05
 Orbital Rotation angle TolX            ....  5.000e-05
 DIIS Error             TolErr          ....  1.000e-06


Diagonalization of the overlap matrix:
Smallest eigenvalue                        ... 6.131e-05
Time for diagonalization                   ...    0.024 sec
Threshold for overlap eigenvalues          ... 1.000e-08
Number of eigenvalues below threshold      ... 0
Time for construction of square roots      ...    0.015 sec
Total time needed                          ...    0.041 sec

Time for model grid setup =    0.088 sec

------------------------------
INITIAL GUESS: MODEL POTENTIAL
------------------------------
Loading Hartree-Fock densities                     ... done
Calculating cut-offs                               ... done
Initializing the effective Hamiltonian             ... done
Setting up the integral package (SHARK)            ... done
Starting the Coulomb interaction                   ... done (   0.1 sec)
Reading the grid                                   ... done
Mapping shells                                     ... done
Starting the XC term evaluation                    ... done (   0.1 sec)
  promolecular density results
     # of electrons  =     69.986228182
     EX              =    -55.701907377
     EC              =     -2.340222599
     EX+EC           =    -58.042129975
Transforming the Hamiltonian                       ... done (   0.0 sec)
Diagonalizing the Hamiltonian                      ... done (   0.0 sec)
Back transforming the eigenvectors                 ... done (   0.0 sec)
Now organizing SCF variables                       ... done
                      ------------------
                      INITIAL GUESS DONE (   0.3 sec)
                      ------------------
-------------------
DFT GRID GENERATION
-------------------

General Integration Accuracy     IntAcc      ... 4.388
Radial Grid Type                 RadialGrid  ... OptM3 with GC (2021)
Angular Grid (max. ang.)         AngularGrid ... 4 (Lebedev-302)
Angular grid pruning method      GridPruning ... 4 (adaptive)
Weight generation scheme         WeightScheme... Becke
Basis function cutoff            BFCut       ... 1.0000e-10
Integration weight cutoff        WCut        ... 1.0000e-14
Angular grids for H and He will be reduced by one unit
Partially contracted basis set               ... off
Rotationally invariant grid construction     ... off

Total number of grid points                  ...    92117
Total number of batches                      ...     1449
Average number of points per batch           ...       63
Average number of grid points per atom       ...     4387
Time for grid setup =    0.468 sec

--------------------
COSX GRID GENERATION
--------------------

GRIDX 1
-------
General Integration Accuracy     IntAcc      ... 3.816
Radial Grid Type                 RadialGrid  ... OptM3 with GC (2021)
Angular Grid (max. ang.)         AngularGrid ... 1 (Lebedev-50)
Angular grid pruning method      GridPruning ... 4 (adaptive)
Weight generation scheme         WeightScheme... Becke
Basis function cutoff            BFCut       ... 1.0000e-10
Integration weight cutoff        WCut        ... 1.0000e-14
Angular grids for H and He will be reduced by one unit
Partially contracted basis set               ... on
Rotationally invariant grid construction     ... off

Total number of grid points                  ...    11747
Total number of batches                      ...      196
Average number of points per batch           ...       59
Average number of grid points per atom       ...      559
UseSFitting                                  ... on

GRIDX 2
-------
General Integration Accuracy     IntAcc      ... 4.020
Radial Grid Type                 RadialGrid  ... OptM3 with GC (2021)
Angular Grid (max. ang.)         AngularGrid ... 2 (Lebedev-110)
Angular grid pruning method      GridPruning ... 4 (adaptive)
Weight generation scheme         WeightScheme... Becke
Basis function cutoff            BFCut       ... 1.0000e-10
Integration weight cutoff        WCut        ... 1.0000e-14
Angular grids for H and He will be reduced by one unit
Partially contracted basis set               ... on
Rotationally invariant grid construction     ... off

Total number of grid points                  ...    24890
Total number of batches                      ...      398
Average number of points per batch           ...       62
Average number of grid points per atom       ...     1185
UseSFitting                                  ... on

GRIDX 3
-------
General Integration Accuracy     IntAcc      ... 4.338
Radial Grid Type                 RadialGrid  ... OptM3 with GC (2021)
Angular Grid (max. ang.)         AngularGrid ... 3 (Lebedev-194)
Angular grid pruning method      GridPruning ... 4 (adaptive)
Weight generation scheme         WeightScheme... Becke
Basis function cutoff            BFCut       ... 1.0000e-10
Integration weight cutoff        WCut        ... 1.0000e-14
Angular grids for H and He will be reduced by one unit
Partially contracted basis set               ... on
Rotationally invariant grid construction     ... off

Total number of grid points                  ...    54429
Total number of batches                      ...      860
Average number of points per batch           ...       63
Average number of grid points per atom       ...     2592
UseSFitting                                  ... on

Time for X-Grid setup             =    0.477 sec


--------------------
CPCM SOLVATION MODEL
--------------------
CPCM parameters:
  Epsilon                                         ...       5.9867
  Refrac                                          ...       1.3723
  Rsolv                                           ...       1.3000
  Surface type                                    ... GAUSSIAN VDW
  Epsilon function type                           ...         CPCM
Solvent:                                     ... ETHYL ETHANOATE
SMD-CDS solvent descriptors:
  Soln                                       ...    1.3723
  Soln25                                     ...    1.3704
  Sola                                       ...    0.0000
  Solb                                       ...    0.4500
  Solg                                       ...   33.6700
  Solc                                       ...    0.0000
  Solh                                       ...    0.0000
Radii:
 Radius for O  used is    4.3350 Bohr (=   2.2940 Ang.)
 Radius for C  used is    3.4960 Bohr (=   1.8500 Ang.)
 Radius for H  used is    2.2677 Bohr (=   1.2000 Ang.)
Calculating surface                               ...        done! (  0.0s)
GEPOL surface points                              ...         1092
GEPOL Volume                                      ...    1164.6497
GEPOL Surface-area                                ...     638.4763
Calculating surface distance matrix               ...        done! (  0.0s)
Performing Cholesky decomposition & store         ...        done! (  0.0s)
Overall time for CPCM initialization              ...                 0.0s
--------------
SCF ITERATIONS
--------------
ITER       Energy         Delta-E        Max-DP      RMS-DP      [F,P]     Damp
               ***  Starting incremental Fock matrix formation  ***
  0   -424.3978353132   0.000000000000 0.06760698  0.00079673  0.2668674 0.7000
  1   -424.5309836171  -0.133148303864 0.07000211  0.00064637  0.1314539 0.7000
                               ***Turning on DIIS***
  2   -424.5950052768  -0.064021659710 0.11450140  0.00130263  0.0525589 0.0000
  3   -424.6989089708  -0.103903694005 0.05531326  0.00038542  0.0620804 0.0000
  4   -424.7157621915  -0.016853220742 0.00571635  0.00010142  0.0060358 0.0000
  5   -424.7160923775  -0.000330185992 0.00494317  0.00004345  0.0065098 0.0000
                      *** Initiating the SOSCF procedure ***
                           *** Shutting down DIIS ***
                      *** Re-Reading the Fockian *** 
                      *** Removing any level shift *** 
ITER      Energy       Delta-E        Grad      Rot      Max-DP    RMS-DP
  6   -424.71617168  -0.0000793065  0.000639  0.000639  0.002462  0.000031
               *** Restarting incremental Fock matrix formation ***
  7   -424.71616085   0.0000108383  0.000158  0.000181  0.001806  0.000020
  8   -424.71616131  -0.0000004638  0.000298  0.000324  0.000247  0.000005
  9   -424.71616272  -0.0000014137  0.000037  0.000086  0.000164  0.000002
                 **** Energy Check signals convergence ****
              ***Rediagonalizing the Fockian in SOSCF/NRSCF***

               *****************************************************
               *                     SUCCESS                       *
               *           SCF CONVERGED AFTER  10 CYCLES          *
               *****************************************************

Old exchange energy                            =    -17.903118611 Eh
New exchange energy                            =    -17.903118612 Eh
Exchange energy change after final integration =     -0.000000001 Eh
Total energy after final integration           =   -424.716162745 Eh
Final COS-X integration done in                =    10.434 sec

------------------
NL GRID GENERATION
------------------

General Integration Accuracy     IntAcc      ... 4.004
Radial Grid Type                 RadialGrid  ... OptM3 with GC (2021)
Angular Grid (max. ang.)         AngularGrid ... 2 (Lebedev-110)
Angular grid pruning method      GridPruning ... 4 (adaptive)
Weight generation scheme         WeightScheme... Becke
Basis function cutoff            BFCut       ... 1.0000e-10
Integration weight cutoff        WCut        ... 1.0000e-14
Angular grids for H and He will be reduced by one unit
Partially contracted basis set               ... off
Rotationally invariant grid construction     ... off

Total number of grid points                  ...    28075
Total number of batches                      ...      451
Average number of points per batch           ...       62
Average number of grid points per atom       ...     1337
Final grid set up in    0.1 sec

-------------------------------------------------------------------------------
                    post-SCF DFT-NL dispersion correction                      
-------------------------------------------------------------------------------

SCF Energy:   -424.716162745 
NL    Energy:  0.262807941 
SC+NL Energy: -424.453354804 
NL done in:    0.4 sec
-------------------------------------------------------------------------------

SMD CDS free energy correction energy :                -4.03959     Kcal/mol
Total Energy after SMD CDS correction =              -424.459792302 Eh

----------------
TOTAL SCF ENERGY
----------------

Total Energy       :         -424.45979230 Eh          -11550.13815 eV

Components:
Nuclear Repulsion  :          488.41887803 Eh           13290.55335 eV
Electronic Energy  :         -912.87867034 Eh          -24840.69150 eV
One Electron Energy:        -1544.52479217 Eh          -42028.65629 eV
Two Electron Energy:          631.64612183 Eh           17187.96479 eV
Max COSX asymmetry :            0.00000158 Eh               0.00004 eV
CPCM Dielectric    :           -0.00617749 Eh              -0.16810 eV
SMD CDS (Gcds)     :           -0.00643750 Eh              -0.17517 eV

Virial components:
Potential Energy   :         -847.70565084 Eh          -23067.24348 eV
Kinetic Energy     :          423.24585854 Eh           11517.10533 eV
Virial Ratio       :            2.00286815


DFT components:
N(Alpha)           :       34.999978961516 electrons
N(Beta)            :       34.999978961516 electrons
N(Total)           :       69.999957923031 electrons
NL Energy, E(C,NL) :        0.262807940910 Eh       
E(XC)              :      -41.772725954287 Eh       
DFET-embed. en.    :        0.000000000000 Eh       
CPCM Solvation Model Properties:
Surface-charge          :           -0.03509791
Charge-correction       :            0.00015343 Eh               0.00417 eV
Free-energy (cav+disp)  :           -0.00643750 Eh              -0.17517 eV

---------------
SCF CONVERGENCE
---------------

  Last Energy change         ...   -2.0310e-08  Tolerance :   1.0000e-06
  Last MAX-Density change    ...    1.1102e-15  Tolerance :   1.0000e-05
  Last RMS-Density change    ...    1.2564e-17  Tolerance :   1.0000e-06
  Last Orbital Gradient      ...    1.3076e-05  Tolerance :   5.0000e-05
  Last Orbital Rotation      ...    4.2644e-05  Tolerance :   5.0000e-05

             **** THE GBW FILE WAS UPDATED (/tmp/265185/Ac7_rdkit_conf_1_spc.gbw) ****
             **** DENSITY /tmp/265185/Ac7_rdkit_conf_1_spc.scfp WAS UPDATED ****
             **** ENERGY FILE WAS UPDATED (/tmp/265185/Ac7_rdkit_conf_1_spc.en.tmp) ****
             **** THE GBW FILE WAS UPDATED (/tmp/265185/Ac7_rdkit_conf_1_spc.gbw) ****
             **** DENSITY /tmp/265185/Ac7_rdkit_conf_1_spc.scfp WAS UPDATED ****
----------------
ORBITAL ENERGIES
----------------

  NO   OCC          E(Eh)            E(eV) 
   0   2.0000     -19.375468      -527.2333 
   1   2.0000     -19.321379      -525.7614 
   2   2.0000     -10.475860      -285.0626 
   3   2.0000     -10.354294      -281.7547 
   4   2.0000     -10.335342      -281.2390 
   5   2.0000     -10.331724      -281.1405 
   6   2.0000     -10.330101      -281.0964 
   7   2.0000     -10.327533      -281.0265 
   8   2.0000     -10.326057      -280.9863 
   9   2.0000      -1.240462       -33.7547 
  10   2.0000      -1.148886       -31.2628 
  11   2.0000      -0.962273       -26.1848 
  12   2.0000      -0.878713       -23.9110 
  13   2.0000      -0.860750       -23.4222 
  14   2.0000      -0.773354       -21.0440 
  15   2.0000      -0.723525       -19.6881 
  16   2.0000      -0.704680       -19.1753 
  17   2.0000      -0.661823       -18.0091 
  18   2.0000      -0.608977       -16.5711 
  19   2.0000      -0.598753       -16.2929 
  20   2.0000      -0.588122       -16.0036 
  21   2.0000      -0.562874       -15.3166 
  22   2.0000      -0.540258       -14.7012 
  23   2.0000      -0.532573       -14.4920 
  24   2.0000      -0.516482       -14.0542 
  25   2.0000      -0.476362       -12.9625 
  26   2.0000      -0.475911       -12.9502 
  27   2.0000      -0.474440       -12.9102 
  28   2.0000      -0.460820       -12.5396 
  29   2.0000      -0.436696       -11.8831 
  30   2.0000      -0.430754       -11.7214 
  31   2.0000      -0.413906       -11.2630 
  32   2.0000      -0.392356       -10.6766 
  33   2.0000      -0.391174       -10.6444 
  34   2.0000      -0.377562       -10.2740 
  35   0.0000       0.088511         2.4085 
  36   0.0000       0.101934         2.7738 
  37   0.0000       0.113901         3.0994 
  38   0.0000       0.131682         3.5833 
  39   0.0000       0.139812         3.8045 
  40   0.0000       0.147406         4.0111 
  41   0.0000       0.163273         4.4429 
  42   0.0000       0.166393         4.5278 
  43   0.0000       0.177032         4.8173 
  44   0.0000       0.184170         5.0115 
  45   0.0000       0.190607         5.1867 
  46   0.0000       0.200956         5.4683 
  47   0.0000       0.213603         5.8124 
  48   0.0000       0.234695         6.3864 
  49   0.0000       0.246138         6.6977 
  50   0.0000       0.266764         7.2590 
  51   0.0000       0.274356         7.4656 
  52   0.0000       0.283665         7.7189 
  53   0.0000       0.286555         7.7976 
  54   0.0000       0.291421         7.9300 
  55   0.0000       0.306979         8.3533 
  56   0.0000       0.311285         8.4705 
  57   0.0000       0.317748         8.6464 
  58   0.0000       0.320511         8.7215 
  59   0.0000       0.324530         8.8309 
  60   0.0000       0.339130         9.2282 
  61   0.0000       0.361080         9.8255 
  62   0.0000       0.374794        10.1987 
  63   0.0000       0.390641        10.6299 
  64   0.0000       0.400703        10.9037 
  65   0.0000       0.417466        11.3598 
  66   0.0000       0.436362        11.8740 
  67   0.0000       0.453697        12.3457 
  68   0.0000       0.461149        12.5485 
  69   0.0000       0.464298        12.6342 
  70   0.0000       0.473950        12.8968 
  71   0.0000       0.478535        13.0216 
  72   0.0000       0.481391        13.0993 
  73   0.0000       0.487465        13.2646 
  74   0.0000       0.488805        13.3011 
  75   0.0000       0.498921        13.5763 
  76   0.0000       0.502252        13.6670 
  77   0.0000       0.509353        13.8602 
  78   0.0000       0.510077        13.8799 
  79   0.0000       0.518332        14.1045 
  80   0.0000       0.525444        14.2981 
  81   0.0000       0.536819        14.6076 
  82   0.0000       0.546673        14.8757 
  83   0.0000       0.552432        15.0324 
  84   0.0000       0.555490        15.1157 
  85   0.0000       0.561415        15.2769 
  86   0.0000       0.567538        15.4435 
  87   0.0000       0.572733        15.5849 
  88   0.0000       0.591089        16.0843 
  89   0.0000       0.598062        16.2741 
  90   0.0000       0.622472        16.9383 
  91   0.0000       0.649566        17.6756 
  92   0.0000       0.652370        17.7519 
  93   0.0000       0.660994        17.9865 
  94   0.0000       0.682995        18.5852 
  95   0.0000       0.704386        19.1673 
  96   0.0000       0.717958        19.5366 
  97   0.0000       0.735831        20.0230 
  98   0.0000       0.767818        20.8934 
  99   0.0000       0.778549        21.1854 
 100   0.0000       0.785371        21.3710 
 101   0.0000       0.802069        21.8254 
 102   0.0000       0.821133        22.3442 
 103   0.0000       0.830704        22.6046 
 104   0.0000       0.844667        22.9846 
 105   0.0000       0.850803        23.1515 
 106   0.0000       0.865118        23.5411 
 107   0.0000       0.873177        23.7603 
 108   0.0000       0.885696        24.1010 
 109   0.0000       0.902043        24.5458 
 110   0.0000       0.926184        25.2027 
 111   0.0000       0.935956        25.4687 
 112   0.0000       0.961297        26.1582 
 113   0.0000       0.962669        26.1956 
 114   0.0000       0.972727        26.4692 
 115   0.0000       0.981151        26.6985 
 116   0.0000       1.003379        27.3033 
 117   0.0000       1.026146        27.9229 
 118   0.0000       1.042063        28.3560 
 119   0.0000       1.066625        29.0244 
 120   0.0000       1.075988        29.2791 
 121   0.0000       1.096280        29.8313 
 122   0.0000       1.103287        30.0220 
 123   0.0000       1.107869        30.1466 
 124   0.0000       1.116046        30.3692 
 125   0.0000       1.133021        30.8311 
 126   0.0000       1.139516        31.0078 
 127   0.0000       1.149196        31.2712 
 128   0.0000       1.154984        31.4287 
 129   0.0000       1.164266        31.6813 
 130   0.0000       1.179361        32.0921 
 131   0.0000       1.193286        32.4710 
 132   0.0000       1.209648        32.9162 
 133   0.0000       1.219222        33.1767 
 134   0.0000       1.230767        33.4909 
 135   0.0000       1.236157        33.6375 
 136   0.0000       1.247711        33.9519 
 137   0.0000       1.266457        34.4620 
 138   0.0000       1.272086        34.6152 
 139   0.0000       1.279263        34.8105 
 140   0.0000       1.295865        35.2623 
 141   0.0000       1.311560        35.6894 
 142   0.0000       1.326580        36.0981 
 143   0.0000       1.336407        36.3655 
 144   0.0000       1.357668        36.9440 
 145   0.0000       1.362846        37.0849 
 146   0.0000       1.388970        37.7958 
 147   0.0000       1.409372        38.3510 
 148   0.0000       1.423024        38.7225 
 149   0.0000       1.440308        39.1928 
 150   0.0000       1.455182        39.5975 
 151   0.0000       1.463927        39.8355 
 152   0.0000       1.472629        40.0723 
 153   0.0000       1.481059        40.3017 
 154   0.0000       1.486805        40.4580 
 155   0.0000       1.493982        40.6533 
 156   0.0000       1.507599        41.0239 
 157   0.0000       1.515881        41.2492 
 158   0.0000       1.535111        41.7725 
 159   0.0000       1.538611        41.8677 
 160   0.0000       1.568305        42.6758 
 161   0.0000       1.577023        42.9130 
 162   0.0000       1.580327        43.0029 
 163   0.0000       1.607553        43.7437 
 164   0.0000       1.612687        43.8834 
 165   0.0000       1.621612        44.1263 
 166   0.0000       1.633224        44.4423 
 167   0.0000       1.638437        44.5841 
 168   0.0000       1.660077        45.1730 
 169   0.0000       1.668089        45.3910 
 170   0.0000       1.694790        46.1176 
 171   0.0000       1.705538        46.4100 
 172   0.0000       1.728952        47.0472 
 173   0.0000       1.745167        47.4884 
 174   0.0000       1.754481        47.7419 
 175   0.0000       1.758722        47.8573 
 176   0.0000       1.777331        48.3636 
 177   0.0000       1.793729        48.8099 
 178   0.0000       1.800957        49.0065 
 179   0.0000       1.809242        49.2320 
 180   0.0000       1.820312        49.5332 
 181   0.0000       1.854142        50.4538 
 182   0.0000       1.889165        51.4068 
 183   0.0000       1.932675        52.5908 
 184   0.0000       1.974221        53.7213 
 185   0.0000       1.985499        54.0282 
 186   0.0000       1.997312        54.3496 
 187   0.0000       2.043608        55.6094 
 188   0.0000       2.058067        56.0029 
 189   0.0000       2.115365        57.5620 
 190   0.0000       2.122222        57.7486 
 191   0.0000       2.140501        58.2460 
 192   0.0000       2.152453        58.5712 
 193   0.0000       2.174088        59.1599 
 194   0.0000       2.180754        59.3413 
 195   0.0000       2.227691        60.6185 
 196   0.0000       2.242778        61.0291 
 197   0.0000       2.266969        61.6874 
 198   0.0000       2.290158        62.3184 
 199   0.0000       2.298927        62.5570 
 200   0.0000       2.346436        63.8498 
 201   0.0000       2.383553        64.8598 
 202   0.0000       2.403482        65.4021 
 203   0.0000       2.415584        65.7314 
 204   0.0000       2.434889        66.2567 
 205   0.0000       2.463242        67.0282 
 206   0.0000       2.490854        67.7796 
 207   0.0000       2.500716        68.0479 
 208   0.0000       2.544502        69.2394 
 209   0.0000       2.554398        69.5087 
 210   0.0000       2.575082        70.0715 
 211   0.0000       2.585280        70.3490 
 212   0.0000       2.593675        70.5775 
 213   0.0000       2.605502        70.8993 
 214   0.0000       2.611228        71.0551 
 215   0.0000       2.622817        71.3705 
 216   0.0000       2.656093        72.2760 
 217   0.0000       2.681799        72.9755 
 218   0.0000       2.708672        73.7067 
 219   0.0000       2.720832        74.0376 
 220   0.0000       2.731436        74.3262 
 221   0.0000       2.736107        74.4533 
 222   0.0000       2.746996        74.7496 
 223   0.0000       2.787389        75.8487 
 224   0.0000       2.806365        76.3651 
 225   0.0000       2.807093        76.3849 
 226   0.0000       2.833691        77.1087 
 227   0.0000       2.848571        77.5136 
 228   0.0000       2.882543        78.4380 
 229   0.0000       2.895098        78.7796 
 230   0.0000       2.911405        79.2234 
 231   0.0000       2.951813        80.3229 
 232   0.0000       2.960448        80.5579 
 233   0.0000       2.967655        80.7540 
 234   0.0000       2.986898        81.2776 
 235   0.0000       2.995852        81.5213 
 236   0.0000       3.015861        82.0657 
 237   0.0000       3.032703        82.5240 
 238   0.0000       3.041444        82.7619 
 239   0.0000       3.048381        82.9507 
 240   0.0000       3.076155        83.7064 
 241   0.0000       3.081712        83.8577 
 242   0.0000       3.101035        84.3834 
 243   0.0000       3.111166        84.6591 
 244   0.0000       3.123041        84.9823 
 245   0.0000       3.132124        85.2294 
 246   0.0000       3.143144        85.5293 
 247   0.0000       3.160017        85.9884 
 248   0.0000       3.164212        86.1026 
 249   0.0000       3.174769        86.3898 
 250   0.0000       3.201081        87.1058 
 251   0.0000       3.208469        87.3069 
 252   0.0000       3.225637        87.7740 
 253   0.0000       3.231673        87.9383 
 254   0.0000       3.241036        88.1931 
 255   0.0000       3.242832        88.2419 
 256   0.0000       3.252823        88.5138 
 257   0.0000       3.260059        88.7107 
 258   0.0000       3.269427        88.9656 
 259   0.0000       3.273281        89.0705 
 260   0.0000       3.286933        89.4420 
 261   0.0000       3.294144        89.6382 
 262   0.0000       3.304600        89.9227 
 263   0.0000       3.325407        90.4889 
 264   0.0000       3.354662        91.2850 
 265   0.0000       3.364110        91.5421 
 266   0.0000       3.379997        91.9744 
 267   0.0000       3.383736        92.0761 
 268   0.0000       3.402124        92.5765 
 269   0.0000       3.411541        92.8328 
 270   0.0000       3.426164        93.2307 
 271   0.0000       3.443711        93.7081 
 272   0.0000       3.454154        93.9923 
 273   0.0000       3.480091        94.6981 
 274   0.0000       3.494865        95.1001 
 275   0.0000       3.506564        95.4185 
 276   0.0000       3.512739        95.5865 
 277   0.0000       3.520382        95.7945 
 278   0.0000       3.543454        96.4223 
 279   0.0000       3.555120        96.7397 
 280   0.0000       3.572164        97.2035 
 281   0.0000       3.592509        97.7571 
 282   0.0000       3.601229        97.9944 
 283   0.0000       3.621586        98.5484 
 284   0.0000       3.623821        98.6092 
 285   0.0000       3.638575        99.0107 
 286   0.0000       3.646655        99.2305 
 287   0.0000       3.671527        99.9073 
 288   0.0000       3.694789       100.5403 
 289   0.0000       3.711741       101.0016 
 290   0.0000       3.725125       101.3658 
 291   0.0000       3.732956       101.5789 
 292   0.0000       3.735696       101.6535 
 293   0.0000       3.752412       102.1083 
 294   0.0000       3.768994       102.5595 
 295   0.0000       3.776645       102.7677 
 296   0.0000       3.783728       102.9605 
 297   0.0000       3.790090       103.1336 
 298   0.0000       3.802511       103.4716 
 299   0.0000       3.809375       103.6584 
 300   0.0000       3.824313       104.0648 
 301   0.0000       3.842596       104.5624 
 302   0.0000       3.861248       105.0699 
 303   0.0000       3.883711       105.6812 
 304   0.0000       3.900716       106.1439 
 305   0.0000       3.912668       106.4691 
 306   0.0000       3.920127       106.6721 
 307   0.0000       3.933046       107.0236 
 308   0.0000       3.949188       107.4629 
 309   0.0000       3.968401       107.9857 
 310   0.0000       3.987047       108.4931 
 311   0.0000       3.996040       108.7378 
 312   0.0000       4.004466       108.9671 
 313   0.0000       4.017752       109.3286 
 314   0.0000       4.032362       109.7261 
 315   0.0000       4.044675       110.0612 
 316   0.0000       4.053059       110.2893 
 317   0.0000       4.072801       110.8265 
 318   0.0000       4.089600       111.2837 
 319   0.0000       4.097113       111.4881 
 320   0.0000       4.109546       111.8264 
 321   0.0000       4.131975       112.4367 
 322   0.0000       4.145829       112.8137 
 323   0.0000       4.157870       113.1414 
 324   0.0000       4.169813       113.4664 
 325   0.0000       4.182552       113.8130 
 326   0.0000       4.197242       114.2128 
 327   0.0000       4.209267       114.5400 
 328   0.0000       4.232375       115.1688 
 329   0.0000       4.246357       115.5493 
 330   0.0000       4.251300       115.6837 
 331   0.0000       4.259350       115.9028 
 332   0.0000       4.272244       116.2537 
 333   0.0000       4.300925       117.0341 
 334   0.0000       4.318660       117.5167 
 335   0.0000       4.320011       117.5535 
 336   0.0000       4.330633       117.8425 
 337   0.0000       4.338342       118.0523 
 338   0.0000       4.367484       118.8453 
 339   0.0000       4.372708       118.9874 
 340   0.0000       4.380854       119.2091 
 341   0.0000       4.406726       119.9131 
 342   0.0000       4.414602       120.1274 
 343   0.0000       4.420296       120.2824 
 344   0.0000       4.428135       120.4957 
 345   0.0000       4.441812       120.8679 
 346   0.0000       4.476516       121.8122 
 347   0.0000       4.488963       122.1509 
 348   0.0000       4.501310       122.4869 
 349   0.0000       4.510283       122.7310 
 350   0.0000       4.529114       123.2435 
 351   0.0000       4.547850       123.7533 
 352   0.0000       4.580192       124.6334 
 353   0.0000       4.605380       125.3188 
 354   0.0000       4.618561       125.6774 
 355   0.0000       4.628340       125.9435 
 356   0.0000       4.636008       126.1522 
 357   0.0000       4.659153       126.7820 
 358   0.0000       4.681188       127.3816 
 359   0.0000       4.697105       127.8147 
 360   0.0000       4.710686       128.1843 
 361   0.0000       4.729967       128.7089 
 362   0.0000       4.746891       129.1695 
 363   0.0000       4.752615       129.3252 
 364   0.0000       4.772597       129.8690 
 365   0.0000       4.820605       131.1753 
 366   0.0000       4.835695       131.5860 
 367   0.0000       4.858209       132.1986 
 368   0.0000       4.880443       132.8036 
 369   0.0000       4.924755       134.0094 
 370   0.0000       4.935599       134.3045 
 371   0.0000       4.947293       134.6227 
 372   0.0000       4.965807       135.1265 
 373   0.0000       4.979165       135.4900 
 374   0.0000       4.980006       135.5129 
 375   0.0000       4.993185       135.8715 
 376   0.0000       5.001003       136.0842 
 377   0.0000       5.011098       136.3589 
 378   0.0000       5.022425       136.6671 
 379   0.0000       5.062159       137.7484 
 380   0.0000       5.073534       138.0579 
 381   0.0000       5.088815       138.4737 
 382   0.0000       5.111604       139.0938 
 383   0.0000       5.132971       139.6752 
 384   0.0000       5.138692       139.8309 
 385   0.0000       5.154302       140.2557 
 386   0.0000       5.178533       140.9150 
 387   0.0000       5.197851       141.4407 
 388   0.0000       5.284027       143.7857 
 389   0.0000       5.295372       144.0944 
 390   0.0000       5.322745       144.8393 
 391   0.0000       5.353077       145.6646 
 392   0.0000       5.374861       146.2574 
 393   0.0000       5.383448       146.4911 
 394   0.0000       5.410582       147.2294 
 395   0.0000       5.445704       148.1851 
 396   0.0000       5.472066       148.9025 
 397   0.0000       5.487666       149.3270 
 398   0.0000       5.497712       149.6003 
 399   0.0000       5.509221       149.9135 
 400   0.0000       5.520929       150.2321 
 401   0.0000       5.558506       151.2546 
 402   0.0000       5.593504       152.2070 
 403   0.0000       5.599527       152.3709 
 404   0.0000       5.615666       152.8100 
 405   0.0000       5.622703       153.0015 
 406   0.0000       5.630707       153.2193 
 407   0.0000       5.636660       153.3813 
 408   0.0000       5.645363       153.6181 
 409   0.0000       5.658017       153.9625 
 410   0.0000       5.665890       154.1767 
 411   0.0000       5.686062       154.7256 
 412   0.0000       5.736744       156.1047 
 413   0.0000       5.743939       156.3005 
 414   0.0000       5.762846       156.8150 
 415   0.0000       5.776570       157.1885 
 416   0.0000       5.785279       157.4255 
 417   0.0000       5.814584       158.2229 
 418   0.0000       5.850575       159.2022 
 419   0.0000       5.865787       159.6162 
 420   0.0000       6.064701       165.0289 
 421   0.0000       6.128011       166.7517 
 422   0.0000       6.333863       172.3532 
 423   0.0000       6.471664       176.1029 
 424   0.0000       6.491139       176.6329 
 425   0.0000       6.587387       179.2519 
 426   0.0000       6.594279       179.4394 
 427   0.0000       6.664623       181.3536 
 428   0.0000       6.711474       182.6285 
 429   0.0000       6.821233       185.6152 
 430   0.0000       6.863561       186.7670 
 431   0.0000       6.980169       189.9401 
 432   0.0000       7.004958       190.6146 
 433   0.0000       7.104932       193.3350 
 434   0.0000       7.234364       196.8571 
 435   0.0000       7.393299       201.1819 
 436   0.0000       7.554542       205.5695 
 437   0.0000       7.598314       206.7606 
 438   0.0000      23.509415       639.7237 
 439   0.0000      23.646784       643.4617 
 440   0.0000      23.781517       647.1280 
 441   0.0000      23.812396       647.9682 
 442   0.0000      23.825854       648.3345 
 443   0.0000      23.839528       648.7065 
 444   0.0000      23.851496       649.0322 
 445   0.0000      44.391579      1207.9563 
 446   0.0000      44.456545      1209.7241 

                    ********************************
                    * MULLIKEN POPULATION ANALYSIS *
                    ********************************

-----------------------
MULLIKEN ATOMIC CHARGES
-----------------------
   0 O :   -0.348308
   1 C :    0.306402
   2 O :   -0.273079
   3 C :   -0.039619
   4 C :   -0.220821
   5 C :   -0.210753
   6 C :   -0.189533
   7 C :   -0.197489
   8 C :   -0.223749
   9 H :    0.206642
  10 H :    0.120255
  11 H :    0.113537
  12 H :    0.111939
  13 H :    0.102758
  14 H :    0.107798
  15 H :    0.100628
  16 H :    0.098180
  17 H :    0.104839
  18 H :    0.098413
  19 H :    0.115622
  20 H :    0.116338
Sum of atomic charges:   -0.0000000

--------------------------------
MULLIKEN REDUCED ORBITAL CHARGES
--------------------------------
  0 O s       :     3.785116  s :     3.785116
      pz      :     1.459009  p :     4.529888
      px      :     1.640149
      py      :     1.430730
      dz2     :     0.006238  d :     0.031295
      dxz     :     0.002250
      dyz     :     0.009006
      dx2y2   :     0.006450
      dxy     :     0.007350
      f0      :     0.000137  f :     0.002008
      f+1     :     0.000015
      f-1     :     0.000546
      f+2     :     0.000374
      f-2     :     0.000280
      f+3     :     0.000362
      f-3     :     0.000295
  1 C s       :     3.075598  s :     3.075598
      pz      :     0.795823  p :     2.334524
      px      :     0.831575
      py      :     0.707127
      dz2     :     0.046161  d :     0.258998
      dxz     :     0.033038
      dyz     :     0.051422
      dx2y2   :     0.061265
      dxy     :     0.067112
      f0      :     0.002311  f :     0.024477
      f+1     :     0.001309
      f-1     :     0.004209
      f+2     :     0.002338
      f-2     :     0.005301
      f+3     :     0.003842
      f-3     :     0.005168
  2 O s       :     3.738498  s :     3.738498
      pz      :     1.577301  p :     4.507632
      px      :     1.381580
      py      :     1.548751
      dz2     :     0.003207  d :     0.025718
      dxz     :     0.003087
      dyz     :     0.005009
      dx2y2   :     0.005755
      dxy     :     0.008661
      f0      :     0.000146  f :     0.001231
      f+1     :     0.000173
      f-1     :     0.000129
      f+2     :     0.000067
      f-2     :     0.000180
      f+3     :     0.000300
      f-3     :     0.000237
  3 C s       :     3.156738  s :     3.156738
      pz      :     0.991735  p :     2.759977
      px      :     0.874843
      py      :     0.893400
      dz2     :     0.014940  d :     0.116231
      dxz     :     0.033566
      dyz     :     0.017766
      dx2y2   :     0.031358
      dxy     :     0.018601
      f0      :     0.000789  f :     0.006672
      f+1     :     0.000830
      f-1     :     0.000452
      f+2     :     0.000577
      f-2     :     0.001298
      f+3     :     0.001148
      f-3     :     0.001579
  4 C s       :     3.250742  s :     3.250742
      pz      :     0.944014  p :     2.871774
      px      :     0.956703
      py      :     0.971057
      dz2     :     0.021361  d :     0.093494
      dxz     :     0.021419
      dyz     :     0.013239
      dx2y2   :     0.016622
      dxy     :     0.020853
      f0      :     0.000839  f :     0.004811
      f+1     :     0.000932
      f-1     :     0.000360
      f+2     :     0.000226
      f-2     :     0.000949
      f+3     :     0.000690
      f-3     :     0.000814
  5 C s       :     3.243279  s :     3.243279
      pz      :     0.935806  p :     2.869999
      px      :     0.988311
      py      :     0.945882
      dz2     :     0.019660  d :     0.092827
      dxz     :     0.020329
      dyz     :     0.015677
      dx2y2   :     0.011600
      dxy     :     0.025561
      f0      :     0.000813  f :     0.004649
      f+1     :     0.000853
      f-1     :     0.000393
      f+2     :     0.000376
      f-2     :     0.000801
      f+3     :     0.000600
      f-3     :     0.000813
  6 C s       :     3.227935  s :     3.227935
      pz      :     1.060831  p :     2.860909
      px      :     0.930135
      py      :     0.869943
      dz2     :     0.010299  d :     0.095989
      dxz     :     0.030673
      dyz     :     0.014410
      dx2y2   :     0.024328
      dxy     :     0.016280
      f0      :     0.000597  f :     0.004700
      f+1     :     0.000531
      f-1     :     0.000363
      f+2     :     0.000038
      f-2     :     0.000877
      f+3     :     0.001007
      f-3     :     0.001289
  7 C s       :     3.237278  s :     3.237278
      pz      :     0.919679  p :     2.861218
      px      :     0.946923
      py      :     0.994616
      dz2     :     0.019019  d :     0.094309
      dxz     :     0.025387
      dyz     :     0.012478
      dx2y2   :     0.018836
      dxy     :     0.018589
      f0      :     0.000883  f :     0.004685
      f+1     :     0.000878
      f-1     :     0.000348
      f+2     :     0.000205
      f-2     :     0.000905
      f+3     :     0.000689
      f-3     :     0.000775
  8 C s       :     3.248514  s :     3.248514
      pz      :     0.947999  p :     2.877305
      px      :     1.000331
      py      :     0.928975
      dz2     :     0.021965  d :     0.093176
      dxz     :     0.020880
      dyz     :     0.014813
      dx2y2   :     0.011542
      dxy     :     0.023975
      f0      :     0.000871  f :     0.004754
      f+1     :     0.000881
      f-1     :     0.000431
      f+2     :     0.000334
      f-2     :     0.000820
      f+3     :     0.000607
      f-3     :     0.000809
  9 H s       :     0.707000  s :     0.707000
      pz      :     0.030759  p :     0.076884
      px      :     0.026702
      py      :     0.019423
      dz2     :     0.002379  d :     0.009475
      dxz     :     0.002728
      dyz     :     0.001284
      dx2y2   :     0.001481
      dxy     :     0.001604
 10 H s       :     0.841170  s :     0.841170
      pz      :     0.015730  p :     0.035890
      px      :     0.010485
      py      :     0.009674
      dz2     :     0.000823  d :     0.002685
      dxz     :     0.000626
      dyz     :     0.000778
      dx2y2   :     0.000146
      dxy     :     0.000313
 11 H s       :     0.852322  s :     0.852322
      pz      :     0.013119  p :     0.031744
      px      :     0.010409
      py      :     0.008217
      dz2     :     0.000796  d :     0.002397
      dxz     :     0.000527
      dyz     :     0.000466
      dx2y2   :     0.000238
      dxy     :     0.000371
 12 H s       :     0.852829  s :     0.852829
      pz      :     0.008587  p :     0.032807
      px      :     0.010568
      py      :     0.013652
      dz2     :     0.000179  d :     0.002424
      dxz     :     0.000299
      dyz     :     0.000560
      dx2y2   :     0.000790
      dxy     :     0.000597
 13 H s       :     0.863562  s :     0.863562
      pz      :     0.008589  p :     0.031351
      px      :     0.010801
      py      :     0.011961
      dz2     :     0.000151  d :     0.002329
      dxz     :     0.000458
      dyz     :     0.000399
      dx2y2   :     0.000882
      dxy     :     0.000439
 14 H s       :     0.857720  s :     0.857720
      pz      :     0.012535  p :     0.032088
      px      :     0.010807
      py      :     0.008746
      dz2     :     0.000815  d :     0.002394
      dxz     :     0.000502
      dyz     :     0.000460
      dx2y2   :     0.000236
      dxy     :     0.000382
 15 H s       :     0.865372  s :     0.865372
      pz      :     0.012043  p :     0.031667
      px      :     0.010638
      py      :     0.008986
      dz2     :     0.000684  d :     0.002332
      dxz     :     0.000505
      dyz     :     0.000641
      dx2y2   :     0.000152
      dxy     :     0.000349
 16 H s       :     0.868097  s :     0.868097
      pz      :     0.010695  p :     0.031354
      px      :     0.011964
      py      :     0.008695
      dz2     :     0.000681  d :     0.002368
      dxz     :     0.000468
      dyz     :     0.000462
      dx2y2   :     0.000284
      dxy     :     0.000474
 17 H s       :     0.861181  s :     0.861181
      pz      :     0.008673  p :     0.031643
      px      :     0.009810
      py      :     0.013160
      dz2     :     0.000172  d :     0.002336
      dxz     :     0.000266
      dyz     :     0.000550
      dx2y2   :     0.000733
      dxy     :     0.000615
 18 H s       :     0.867190  s :     0.867190
      pz      :     0.013287  p :     0.032008
      px      :     0.010467
      py      :     0.008254
      dz2     :     0.000802  d :     0.002389
      dxz     :     0.000504
      dyz     :     0.000444
      dx2y2   :     0.000258
      dxy     :     0.000380
 19 H s       :     0.849172  s :     0.849172
      pz      :     0.008338  p :     0.032790
      px      :     0.011620
      py      :     0.012832
      dz2     :     0.000155  d :     0.002415
      dxz     :     0.000465
      dyz     :     0.000413
      dx2y2   :     0.000907
      dxy     :     0.000475
 20 H s       :     0.850471  s :     0.850471
      pz      :     0.012516  p :     0.030802
      px      :     0.009731
      py      :     0.008555
      dz2     :     0.000811  d :     0.002390
      dxz     :     0.000492
      dyz     :     0.000438
      dx2y2   :     0.000248
      dxy     :     0.000401


                     *******************************
                     * LOEWDIN POPULATION ANALYSIS *
                     *******************************

----------------------
LOEWDIN ATOMIC CHARGES
----------------------
   0 O :    0.096205
   1 C :   -0.420703
   2 O :    0.351551
   3 C :   -0.073220
   4 C :   -0.009285
   5 C :   -0.023926
   6 C :   -0.027215
   7 C :   -0.023805
   8 C :   -0.010803
   9 H :   -0.090649
  10 H :    0.044422
  11 H :    0.024371
  12 H :    0.019827
  13 H :    0.014887
  14 H :    0.017053
  15 H :    0.014215
  16 H :    0.018755
  17 H :    0.016128
  18 H :    0.020009
  19 H :    0.016872
  20 H :    0.025310

-------------------------------
LOEWDIN REDUCED ORBITAL CHARGES
-------------------------------
  0 O s       :     3.389939  s :     3.389939
      pz      :     1.422492  p :     4.440576
      px      :     1.514504
      py      :     1.503580
      dz2     :     0.008873  d :     0.066995
      dxz     :     0.005352
      dyz     :     0.021900
      dx2y2   :     0.016881
      dxy     :     0.013989
      f0      :     0.000572  f :     0.006285
      f+1     :     0.000050
      f-1     :     0.001173
      f+2     :     0.001485
      f-2     :     0.000947
      f+3     :     0.000941
      f-3     :     0.001117
  1 C s       :     2.751095  s :     2.751095
      pz      :     0.842332  p :     2.588032
      px      :     0.843849
      py      :     0.901851
      dz2     :     0.150237  d :     0.927236
      dxz     :     0.115263
      dyz     :     0.193043
      dx2y2   :     0.224553
      dxy     :     0.244141
      f0      :     0.015019  f :     0.154340
      f+1     :     0.007069
      f-1     :     0.026857
      f+2     :     0.013490
      f-2     :     0.031489
      f+3     :     0.026701
      f-3     :     0.033714
  2 O s       :     3.222493  s :     3.222493
      pz      :     1.486921  p :     4.349788
      px      :     1.349432
      py      :     1.513435
      dz2     :     0.007543  d :     0.070828
      dxz     :     0.015220
      dyz     :     0.009152
      dx2y2   :     0.015978
      dxy     :     0.022935
      f0      :     0.000497  f :     0.005341
      f+1     :     0.000475
      f-1     :     0.000692
      f+2     :     0.000458
      f-2     :     0.000767
      f+3     :     0.001353
      f-3     :     0.001098
  3 C s       :     2.682919  s :     2.682919
      pz      :     0.970297  p :     2.865840
      px      :     0.941298
      py      :     0.954245
      dz2     :     0.068960  d :     0.473796
      dxz     :     0.126315
      dyz     :     0.062644
      dx2y2   :     0.108431
      dxy     :     0.107446
      f0      :     0.005701  f :     0.050664
      f+1     :     0.006264
      f-1     :     0.004908
      f+2     :     0.007739
      f-2     :     0.008455
      f+3     :     0.006723
      f-3     :     0.010874
  4 C s       :     2.684976  s :     2.684976
      pz      :     0.967153  p :     2.887564
      px      :     0.958470
      py      :     0.961940
      dz2     :     0.087525  d :     0.396096
      dxz     :     0.104005
      dyz     :     0.045062
      dx2y2   :     0.064155
      dxy     :     0.095349
      f0      :     0.005966  f :     0.040649
      f+1     :     0.005750
      f-1     :     0.005792
      f+2     :     0.005293
      f-2     :     0.006240
      f+3     :     0.006328
      f-3     :     0.005280
  5 C s       :     2.688509  s :     2.688509
      pz      :     0.965223  p :     2.896381
      px      :     0.974935
      py      :     0.956223
      dz2     :     0.086328  d :     0.398583
      dxz     :     0.096291
      dyz     :     0.058055
      dx2y2   :     0.053096
      dxy     :     0.104812
      f0      :     0.005894  f :     0.040453
      f+1     :     0.005755
      f-1     :     0.006005
      f+2     :     0.005776
      f-2     :     0.005687
      f+3     :     0.005031
      f-3     :     0.006306
  6 C s       :     2.690374  s :     2.690374
      pz      :     1.000622  p :     2.894397
      px      :     0.958474
      py      :     0.935300
      dz2     :     0.052794  d :     0.401872
      dxz     :     0.111716
      dyz     :     0.053065
      dx2y2   :     0.091179
      dxy     :     0.093117
      f0      :     0.003883  f :     0.040573
      f+1     :     0.004939
      f-1     :     0.004809
      f+2     :     0.004741
      f-2     :     0.006025
      f+3     :     0.006652
      f-3     :     0.009524
  7 C s       :     2.689078  s :     2.689078
      pz      :     0.960159  p :     2.893156
      px      :     0.962587
      py      :     0.970411
      dz2     :     0.084918  d :     0.400955
      dxz     :     0.111673
      dyz     :     0.045987
      dx2y2   :     0.070339
      dxy     :     0.088037
      f0      :     0.006452  f :     0.040616
      f+1     :     0.005678
      f-1     :     0.005671
      f+2     :     0.005330
      f-2     :     0.006291
      f+3     :     0.006130
      f-3     :     0.005066
  8 C s       :     2.686206  s :     2.686206
      pz      :     0.967672  p :     2.886306
      px      :     0.975867
      py      :     0.942767
      dz2     :     0.087225  d :     0.397755
      dxz     :     0.097799
      dyz     :     0.055731
      dx2y2   :     0.052723
      dxy     :     0.104277
      f0      :     0.005844  f :     0.040537
      f+1     :     0.005625
      f-1     :     0.006401
      f+2     :     0.005906
      f-2     :     0.005500
      f+3     :     0.005327
      f-3     :     0.005934
  9 H s       :     0.672000  s :     0.672000
      pz      :     0.123307  p :     0.322275
      px      :     0.113908
      py      :     0.085061
      dz2     :     0.025135  d :     0.096374
      dxz     :     0.022668
      dyz     :     0.014582
      dx2y2   :     0.015774
      dxy     :     0.018214
 10 H s       :     0.772642  s :     0.772642
      pz      :     0.064279  p :     0.151875
      px      :     0.046073
      py      :     0.041523
      dz2     :     0.010091  d :     0.031061
      dxz     :     0.009100
      dyz     :     0.007513
      dx2y2   :     0.001656
      dxy     :     0.002701
 11 H s       :     0.798026  s :     0.798026
      pz      :     0.058553  p :     0.147264
      px      :     0.049355
      py      :     0.039356
      dz2     :     0.009510  d :     0.030338
      dxz     :     0.008129
      dyz     :     0.005696
      dx2y2   :     0.002870
      dxy     :     0.004133
 12 H s       :     0.799603  s :     0.799603
      pz      :     0.040909  p :     0.149964
      px      :     0.047568
      py      :     0.061488
      dz2     :     0.002803  d :     0.030606
      dxz     :     0.003129
      dyz     :     0.007017
      dx2y2   :     0.009105
      dxy     :     0.008552
 13 H s       :     0.805350  s :     0.805350
      pz      :     0.040663  p :     0.149492
      px      :     0.052952
      py      :     0.055878
      dz2     :     0.002706  d :     0.030270
      dxz     :     0.005193
      dyz     :     0.004765
      dx2y2   :     0.009658
      dxy     :     0.007949
 14 H s       :     0.800996  s :     0.800996
      pz      :     0.058390  p :     0.151445
      px      :     0.052885
      py      :     0.040170
      dz2     :     0.009249  d :     0.030506
      dxz     :     0.007912
      dyz     :     0.005983
      dx2y2   :     0.003149
      dxy     :     0.004213
 15 H s       :     0.806474  s :     0.806474
      pz      :     0.060316  p :     0.149106
      px      :     0.048197
      py      :     0.040592
      dz2     :     0.009515  d :     0.030205
      dxz     :     0.008649
      dyz     :     0.006556
      dx2y2   :     0.002263
      dxy     :     0.003223
 16 H s       :     0.803703  s :     0.803703
      pz      :     0.056474  p :     0.147424
      px      :     0.050827
      py      :     0.040123
      dz2     :     0.008683  d :     0.030119
      dxz     :     0.007856
      dyz     :     0.005086
      dx2y2   :     0.003751
      dxy     :     0.004743
 17 H s       :     0.804613  s :     0.804613
      pz      :     0.040611  p :     0.149025
      px      :     0.046195
      py      :     0.062219
      dz2     :     0.002812  d :     0.030234
      dxz     :     0.002835
      dyz     :     0.007178
      dx2y2   :     0.008840
      dxy     :     0.008569
 18 H s       :     0.801686  s :     0.801686
      pz      :     0.057769  p :     0.148267
      px      :     0.051158
      py      :     0.039340
      dz2     :     0.009191  d :     0.030038
      dxz     :     0.007948
      dyz     :     0.005474
      dx2y2   :     0.003116
      dxy     :     0.004309
 19 H s       :     0.801371  s :     0.801371
      pz      :     0.040886  p :     0.151080
      px      :     0.054570
      py      :     0.055624
      dz2     :     0.002720  d :     0.030677
      dxz     :     0.005072
      dyz     :     0.004997
      dx2y2   :     0.009692
      dxy     :     0.008196
 20 H s       :     0.796958  s :     0.796958
      pz      :     0.057786  p :     0.147343
      px      :     0.050637
      py      :     0.038920
      dz2     :     0.009199  d :     0.030389
      dxz     :     0.007938
      dyz     :     0.005585
      dx2y2   :     0.003251
      dxy     :     0.004415


                      *****************************
                      * MAYER POPULATION ANALYSIS *
                      *****************************

  NA   - Mulliken gross atomic population
  ZA   - Total nuclear charge
  QA   - Mulliken gross atomic charge
  VA   - Mayer's total valence
  BVA  - Mayer's bonded valence
  FA   - Mayer's free valence

  ATOM       NA         ZA         QA         VA         BVA        FA
  0 O      8.3483     8.0000    -0.3483     2.1366     2.1366     0.0000
  1 C      5.6936     6.0000     0.3064     4.2918     4.2918     0.0000
  2 O      8.2731     8.0000    -0.2731     2.1604     2.1604     0.0000
  3 C      6.0396     6.0000    -0.0396     3.7237     3.7237    -0.0000
  4 C      6.2208     6.0000    -0.2208     3.7974     3.7974     0.0000
  5 C      6.2108     6.0000    -0.2108     3.7592     3.7592    -0.0000
  6 C      6.1895     6.0000    -0.1895     3.7805     3.7805     0.0000
  7 C      6.1975     6.0000    -0.1975     3.7738     3.7738    -0.0000
  8 C      6.2237     6.0000    -0.2237     3.7907     3.7907    -0.0000
  9 H      0.7934     1.0000     0.2066     1.0398     1.0398     0.0000
 10 H      0.8797     1.0000     0.1203     1.0076     1.0076    -0.0000
 11 H      0.8865     1.0000     0.1135     0.9977     0.9977     0.0000
 12 H      0.8881     1.0000     0.1119     1.0093     1.0093     0.0000
 13 H      0.8972     1.0000     0.1028     0.9965     0.9965     0.0000
 14 H      0.8922     1.0000     0.1078     1.0092     1.0092    -0.0000
 15 H      0.8994     1.0000     0.1006     0.9976     0.9976     0.0000
 16 H      0.9018     1.0000     0.0982     0.9952     0.9952     0.0000
 17 H      0.8952     1.0000     0.1048     0.9967     0.9967     0.0000
 18 H      0.9016     1.0000     0.0984     1.0008     1.0008    -0.0000
 19 H      0.8844     1.0000     0.1156     1.0122     1.0122    -0.0000
 20 H      0.8837     1.0000     0.1163     0.9948     0.9948    -0.0000

  Mayer bond orders larger than 0.100000
B(  0-O ,  1-C ) :   2.0701 B(  1-C ,  2-O ) :   1.2077 B(  1-C ,  3-C ) :   0.9634 
B(  2-O ,  9-H ) :   0.9639 B(  3-C ,  4-C ) :   0.9173 B(  3-C ,  8-C ) :   0.9082 
B(  3-C , 10-H ) :   0.9754 B(  4-C ,  5-C ) :   0.8824 B(  4-C , 11-H ) :   1.0074 
B(  4-C , 12-H ) :   1.0020 B(  5-C ,  6-C ) :   0.8993 B(  5-C , 13-H ) :   1.0036 
B(  5-C , 14-H ) :   1.0067 B(  6-C ,  7-C ) :   0.9043 B(  6-C , 15-H ) :   1.0040 
B(  6-C , 16-H ) :   1.0057 B(  7-C ,  8-C ) :   0.8899 B(  7-C , 17-H ) :   1.0037 
B(  7-C , 18-H ) :   1.0045 B(  8-C , 19-H ) :   1.0019 B(  8-C , 20-H ) :   1.0004 


-------
TIMINGS
-------

Total SCF time: 0 days 0 hours 1 min 4 sec 

Total time                  ....      64.635 sec
Sum of individual times     ....      62.152 sec  ( 96.2%)

Fock matrix formation       ....      60.102 sec  ( 93.0%)
  Split-RI-J                ....       2.347 sec  (  3.9% of F)
  Chain of spheres X        ....      44.678 sec  ( 74.3% of F)
  XC integration            ....       7.599 sec  ( 12.6% of F)
    Basis function eval.    ....       0.825 sec  ( 10.9% of XC)
    Density eval.           ....       2.687 sec  ( 35.4% of XC)
    XC-Functional eval.     ....       0.330 sec  (  4.3% of XC)
    XC-Potential eval.      ....       3.089 sec  ( 40.7% of XC)
Diagonalization             ....       0.288 sec  (  0.4%)
Density matrix formation    ....       0.019 sec  (  0.0%)
Population analysis         ....       0.038 sec  (  0.1%)
Initial guess               ....       0.247 sec  (  0.4%)
Orbital Transformation      ....       0.000 sec  (  0.0%)
Orbital Orthonormalization  ....       0.000 sec  (  0.0%)
DIIS solution               ....       0.221 sec  (  0.3%)
SOSCF solution              ....       0.120 sec  (  0.2%)
Grid generation             ....       1.117 sec  (  1.7%)

Maximum memory used throughout the entire SCF-calculation: 96.1 MB

-------------------------   --------------------
FINAL SINGLE POINT ENERGY      -424.459792302325
-------------------------   --------------------


                            ***************************************
                            *     ORCA property calculations      *
                            ***************************************

                                    ---------------------
                                    Active property flags
                                    ---------------------
   (+) Dipole Moment


------------------------------------------------------------------------------
                       ORCA ELECTRIC PROPERTIES CALCULATION
------------------------------------------------------------------------------

Dipole Moment Calculation                       ... on
Quadrupole Moment Calculation                   ... off
Polarizability Calculation                      ... off
GBWName                                         ... /tmp/265185/Ac7_rdkit_conf_1_spc.gbw
Electron density                                ... /tmp/265185/Ac7_rdkit_conf_1_spc.scfp
The origin for moment calculation is the CENTER OF MASS  = (-0.128698, -0.024645 -0.018163)

-------------
DIPOLE MOMENT
-------------
                                X             Y             Z
Electronic contribution:     -8.83354      -1.05883      -0.87466
Nuclear contribution   :      9.00883       1.72515       1.27141
                        -----------------------------------------
Total Dipole Moment    :      0.17529       0.66632       0.39675
                        -----------------------------------------
Magnitude (a.u.)       :      0.79506
Magnitude (Debye)      :      2.02088



--------------------
Rotational spectrum 
--------------------
 
Rotational constants in cm-1:     0.084375     0.046694     0.038571 
Rotational constants in MHz :  2529.494236  1399.854662  1156.340573 

 Dipole components along the rotational axes: 
x,y,z [a.u.] :     0.188991    -0.673087     0.378622 
x,y,z [Debye]:     0.480377    -1.710851     0.962381 

 

Timings for individual modules:

Sum of individual times         ...       65.555 sec (=   1.093 min)
GTO integral calculation        ...        0.634 sec (=   0.011 min)   1.0 %
SCF iterations                  ...       64.921 sec (=   1.082 min)  99.0 %
                             ****ORCA TERMINATED NORMALLY****
TOTAL RUN TIME: 0 days 0 hours 1 minutes 6 seconds 725 msec
