Job Start Time: Thu May  9 18:54:35 MDT 2024
SLURM Job ID: 265186
SLURM Job Name: Ac7_rdkit_conf_2_spc
SLURM Job Nodes: node03
SLURM Memory / CPU: 8000

                                 *****************
                                 * O   R   C   A *
                                 *****************

                                            #,                                       
                                            ###                                      
                                            ####                                     
                                            #####                                    
                                            ######                                   
                                           ########,                                 
                                     ,,################,,,,,                         
                               ,,#################################,,                 
                          ,,##########################################,,             
                       ,#########################################, ''#####,          
                    ,#############################################,,   '####,        
                  ,##################################################,,,,####,       
                ,###########''''           ''''###############################       
              ,#####''   ,,,,##########,,,,          '''####'''          '####       
            ,##' ,,,,###########################,,,                        '##       
           ' ,,###''''                  '''############,,,                           
         ,,##''                                '''############,,,,        ,,,,,,###''
      ,#''                                            '''#######################'''  
     '                                                          ''''####''''         
             ,#######,   #######,   ,#######,      ##                                
            ,#'     '#,  ##    ##  ,#'     '#,    #''#        ######   ,####,        
            ##       ##  ##   ,#'  ##            #'  '#       #        #'  '#        
            ##       ##  #######   ##           ,######,      #####,   #    #        
            '#,     ,#'  ##    ##  '#,     ,#' ,#      #,         ##   #,  ,#        
             '#######'   ##     ##  '#######'  #'      '#     #####' # '####'        



                  #######################################################
                  #                        -***-                        #
                  #          Department of theory and spectroscopy      #
                  #    Directorship and core code : Frank Neese         #
                  #        Max Planck Institute fuer Kohlenforschung    #
                  #                Kaiser Wilhelm Platz 1               #
                  #                 D-45470 Muelheim/Ruhr               #
                  #                      Germany                        #
                  #                                                     #
                  #                  All rights reserved                #
                  #                        -***-                        #
                  #######################################################


                         Program Version 5.0.3 -  RELEASE  -


 With contributions from (in alphabetic order):
   Daniel Aravena         : Magnetic Suceptibility
   Michael Atanasov       : Ab Initio Ligand Field Theory (pilot matlab implementation)
   Alexander A. Auer      : GIAO ZORA, VPT2 properties, NMR spectrum
   Ute Becker             : Parallelization
   Giovanni Bistoni       : ED, misc. LED, open-shell LED, HFLD
   Martin Brehm           : Molecular dynamics
   Dmytro Bykov           : SCF Hessian
   Vijay G. Chilkuri      : MRCI spin determinant printing, contributions to CSF-ICE
   Dipayan Datta          : RHF DLPNO-CCSD density
   Achintya Kumar Dutta   : EOM-CC, STEOM-CC
   Dmitry Ganyushin       : Spin-Orbit,Spin-Spin,Magnetic field MRCI
   Miquel Garcia          : C-PCM and meta-GGA Hessian, CC/C-PCM, Gaussian charge scheme
   Yang Guo               : DLPNO-NEVPT2, F12-NEVPT2, CIM, IAO-localization
   Andreas Hansen         : Spin unrestricted coupled pair/coupled cluster methods
   Benjamin Helmich-Paris : MC-RPA, TRAH-SCF, COSX integrals
   Lee Huntington         : MR-EOM, pCC
   Robert Izsak           : Overlap fitted RIJCOSX, COSX-SCS-MP3, EOM
   Marcus Kettner         : VPT2
   Christian Kollmar      : KDIIS, OOCD, Brueckner-CCSD(T), CCSD density, CASPT2, CASPT2-K
   Simone Kossmann        : Meta GGA functionals, TD-DFT gradient, OOMP2, MP2 Hessian
   Martin Krupicka        : Initial AUTO-CI
   Lucas Lang             : DCDCAS
   Marvin Lechner         : AUTO-CI (C++ implementation), FIC-MRCC
   Dagmar Lenk            : GEPOL surface, SMD
   Dimitrios Liakos       : Extrapolation schemes; Compound Job, initial MDCI parallelization
   Dimitrios Manganas     : Further ROCIS development; embedding schemes
   Dimitrios Pantazis     : SARC Basis sets
   Anastasios Papadopoulos: AUTO-CI, single reference methods and gradients
   Taras Petrenko         : DFT Hessian,TD-DFT gradient, ASA, ECA, R-Raman, ABS, FL, XAS/XES, NRVS
   Peter Pinski           : DLPNO-MP2, DLPNO-MP2 Gradient
   Christoph Reimann      : Effective Core Potentials
   Marius Retegan         : Local ZFS, SOC
   Christoph Riplinger    : Optimizer, TS searches, QM/MM, DLPNO-CCSD(T), (RO)-DLPNO pert. Triples
   Tobias Risthaus        : Range-separated hybrids, TD-DFT gradient, RPA, STAB
   Michael Roemelt        : Original ROCIS implementation
   Masaaki Saitow         : Open-shell DLPNO-CCSD energy and density
   Barbara Sandhoefer     : DKH picture change effects
   Avijit Sen             : IP-ROCIS
   Kantharuban Sivalingam : CASSCF convergence, NEVPT2, FIC-MRCI
   Bernardo de Souza      : ESD, SOC TD-DFT
   Georgi Stoychev        : AutoAux, RI-MP2 NMR, DLPNO-MP2 response
   Willem Van den Heuvel  : Paramagnetic NMR
   Boris Wezisla          : Elementary symmetry handling
   Frank Wennmohs         : Technical directorship


 We gratefully acknowledge several colleagues who have allowed us to
 interface, adapt or use parts of their codes:
   Stefan Grimme, W. Hujo, H. Kruse, P. Pracht,  : VdW corrections, initial TS optimization,
                  C. Bannwarth, S. Ehlert          DFT functionals, gCP, sTDA/sTD-DF
   Ed Valeev, F. Pavosevic, A. Kumar             : LibInt (2-el integral package), F12 methods
   Garnet Chan, S. Sharma, J. Yang, R. Olivares  : DMRG
   Ulf Ekstrom                                   : XCFun DFT Library
   Mihaly Kallay                                 : mrcc  (arbitrary order and MRCC methods)
   Jiri Pittner, Ondrej Demel                    : Mk-CCSD
   Frank Weinhold                                : gennbo (NPA and NBO analysis)
   Christopher J. Cramer and Donald G. Truhlar   : smd solvation model
   Lars Goerigk                                  : TD-DFT with DH, B97 family of functionals
   V. Asgeirsson, H. Jonsson                     : NEB implementation
   FAccTs GmbH                                   : IRC, NEB, NEB-TS, DLPNO-Multilevel, CI-OPT
                                                   MM, QMMM, 2- and 3-layer-ONIOM, Crystal-QMMM,
                                                   LR-CPCM, SF, NACMEs, symmetry and pop. for TD-DFT,
                                                   nearIR, NL-DFT gradient (VV10), updates on ESD,
                                                   ML-optimized integration grids
   S Lehtola, MJT Oliveira, MAL Marques          : LibXC Library
   Liviu Ungur et al                             : ANISO software


 Your calculation uses the libint2 library for the computation of 2-el integrals
 For citations please refer to: http://libint.valeyev.net

 Your ORCA version has been built with support for libXC version: 5.1.0
 For citations please refer to: https://tddft.org/programs/libxc/

 This ORCA versions uses:
   CBLAS   interface :  Fast vector & matrix operations
   LAPACKE interface :  Fast linear algebra routines
   SCALAPACK package :  Parallel linear algebra routines
   Shared memory     :  Shared parallel matrices
   BLAS/LAPACK       :  OpenBLAS 0.3.15  USE64BITINT DYNAMIC_ARCH NO_AFFINITY Zen SINGLE_THREADED
        Core in use  :  Zen
   Copyright (c) 2011-2014, The OpenBLAS Project


Your calculation utilizes the DFT-NL dispersion correction.
Cite in your paper:
Vydrov, O. A.; Van Voorhis, T. J. Chem. Phys. 2010, 133, 244103
Hujo, W.; Grimme, S. J. Chem. Theory Comput. 2011, 7, 3866 
   

Your calculation utilizes the SMD solvation module
Please cite in your paper:
A.V. Marenich, C.J. Cramer, D.G. Truhlar J. Phys. Chem. B, 113, (2009), 6378 

================================================================================

----- Orbital basis set information -----
Your calculation utilizes the basis: def2-TZVPP
   F. Weigend and R. Ahlrichs, Phys. Chem. Chem. Phys. 7, 3297 (2005).

----- AuxJ basis set information -----
Your calculation utilizes the auxiliary basis: def2/J
   F. Weigend, Phys. Chem. Chem. Phys. 8, 1057 (2006).

================================================================================
                                        WARNINGS
                       Please study these warnings very carefully!
================================================================================

Using LibXC functional ID 531 : wB97M-V exchange-correlation functional
[ 1]  N. Mardirossian and M. Head-Gordon, J. Chem. Phys. 144, 214110 (2016)
Using LibXC functional ID 531 : wB97M-V exchange-correlation functional
[ 1]  N. Mardirossian and M. Head-Gordon, J. Chem. Phys. 144, 214110 (2016)

WARNING: B97M-V or wB97M-V functional requested.
  ===> : libXC variant has now been activated.
         Any manually given DFX/HFX/RangeSep scaling parameters are IGNORED!

Your calculation utilizes LibXC
 by S Lehtola, C Steigemann, MJT Oliveira & MAL Marques
Please cite in your paper:
 S Lehtola, C Steigemann, MJT Oliveira & MAL Marques, SoftwareX, 7, (2018), 1.
   


INFO   : the flag for use of the SHARK integral package has been found!

================================================================================
                                       INPUT FILE
================================================================================
NAME = /tmp/265186/Ac7_rdkit_conf_2_spc.inp
|  1> # Ac7_rdkit_conf_2_spc
|  2> %maxcore 16000
|  3> %pal nprocs 8 end
|  4> ! wB97M-V def2-TZVPP def2/J RIJCOSX
|  5> %cpcm
|  6> smd true
|  7> SMDsolvent "ETHYL ETHANOATE"
|  8> end
|  9> * xyz 0 1
| 10>  O  -2.28436600  -0.99798800   0.69211300
| 11>  C  -1.80865700  -0.13872700   0.00368700
| 12>  O  -2.55395800   0.86295600  -0.50762800
| 13>  C  -0.35582400  -0.00734300  -0.37273300
| 14>  C   0.41133700  -1.29276500  -0.08242200
| 15>  C   1.88856300  -1.13551300  -0.43228700
| 16>  C   2.50972600   0.04594300   0.30901000
| 17>  C   1.74037000   1.33411300   0.02770000
| 18>  C   0.26167100   1.18629600   0.37587900
| 19>  H  -3.46098500   0.72790300  -0.19784400
| 20>  H  -0.32048300   0.21613600  -1.44461400
| 21>  H  -0.03334900  -2.12389600  -0.63207800
| 22>  H   0.30179000  -1.52919300   0.97953200
| 23>  H   1.99139400  -0.97658000  -1.51130300
| 24>  H   2.42544100  -2.05618800  -0.19749900
| 25>  H   3.55792300   0.16291200   0.02768900
| 26>  H   2.48966600  -0.15579200   1.38525400
| 27>  H   1.83353700   1.58540300  -1.03423000
| 28>  H   2.17004900   2.16627400   0.58841200
| 29>  H   0.15511000   1.01340200   1.45229700
| 30>  H  -0.28661500   2.09786000   0.13549600
| 31> **                         ****END OF INPUT****
================================================================================

                       ****************************
                       * Single Point Calculation *
                       ****************************

---------------------------------
CARTESIAN COORDINATES (ANGSTROEM)
---------------------------------
  O     -2.284366   -0.997988    0.692113
  C     -1.808657   -0.138727    0.003687
  O     -2.553958    0.862956   -0.507628
  C     -0.355824   -0.007343   -0.372733
  C      0.411337   -1.292765   -0.082422
  C      1.888563   -1.135513   -0.432287
  C      2.509726    0.045943    0.309010
  C      1.740370    1.334113    0.027700
  C      0.261671    1.186296    0.375879
  H     -3.460985    0.727903   -0.197844
  H     -0.320483    0.216136   -1.444614
  H     -0.033349   -2.123896   -0.632078
  H      0.301790   -1.529193    0.979532
  H      1.991394   -0.976580   -1.511303
  H      2.425441   -2.056188   -0.197499
  H      3.557923    0.162912    0.027689
  H      2.489666   -0.155792    1.385254
  H      1.833537    1.585403   -1.034230
  H      2.170049    2.166274    0.588412
  H      0.155110    1.013402    1.452297
  H     -0.286615    2.097860    0.135496

----------------------------
CARTESIAN COORDINATES (A.U.)
----------------------------
  NO LB      ZA    FRAG     MASS         X           Y           Z
   0 O     8.0000    0    15.999   -4.316826   -1.885924    1.307904
   1 C     6.0000    0    12.011   -3.417866   -0.262156    0.006967
   2 O     8.0000    0    15.999   -4.826281    1.630751   -0.959278
   3 C     6.0000    0    12.011   -0.672410   -0.013876   -0.704363
   4 C     6.0000    0    12.011    0.777314   -2.442972   -0.155755
   5 C     6.0000    0    12.011    3.568867   -2.145809   -0.816904
   6 C     6.0000    0    12.011    4.742695    0.086820    0.583944
   7 C     6.0000    0    12.011    3.288823    2.521108    0.052345
   8 C     6.0000    0    12.011    0.494487    2.241775    0.710308
   9 H     1.0000    0     1.008   -6.540314    1.375537   -0.373871
  10 H     1.0000    0     1.008   -0.605625    0.408438   -2.729925
  11 H     1.0000    0     1.008   -0.063020   -4.013582   -1.194454
  12 H     1.0000    0     1.008    0.570300   -2.889756    1.851047
  13 H     1.0000    0     1.008    3.763189   -1.845469   -2.855949
  14 H     1.0000    0     1.008    4.583419   -3.885632   -0.373219
  15 H     1.0000    0     1.008    6.723500    0.307859    0.052325
  16 H     1.0000    0     1.008    4.704787   -0.294404    2.617751
  17 H     1.0000    0     1.008    3.464883    2.995977   -1.954411
  18 H     1.0000    0     1.008    4.100798    4.093665    1.111938
  19 H     1.0000    0     1.008    0.293115    1.915052    2.744444
  20 H     1.0000    0     1.008   -0.541624    3.964381    0.256050

--------------------------------
INTERNAL COORDINATES (ANGSTROEM)
--------------------------------
 O      0   0   0     0.000000000000     0.00000000     0.00000000
 C      1   0   0     1.199399381473     0.00000000     0.00000000
 O      2   1   0     1.349179544136   122.02694270     0.00000000
 C      2   1   3     1.506544887398   126.04148668   178.54337313
 C      4   2   1     1.524836448517   111.35142812    14.86852294
 C      5   4   2     1.526214390184   110.88300058   181.53112829
 C      6   5   4     1.526827755418   111.23557964    56.21295534
 C      7   6   5     1.526573260520   111.00519381   304.14778215
 C      8   7   6     1.526312292465   111.37658411    55.77228695
 H      3   2   1     0.967937714005   107.02367745     0.76229800
 H      4   2   1     1.095500218112   107.05981361   135.13943923
 H      5   4   2     1.091167308937   109.94747143    58.47402797
 H      5   4   2     1.093455551227   108.46780613   302.40842574
 H      6   5   4     1.095495066765   109.36537454   295.59538396
 H      6   5   4     1.091332143508   109.87181653   178.73818349
 H      7   6   5     1.091576933986   110.39284491   181.58709855
 H      7   6   5     1.095171475779   109.09497217    64.40820833
 H      8   7   6     1.095226953142   109.23304302   295.29940588
 H      8   7   6     1.091564894959   110.50313613   178.04165590
 H      9   8   7     1.095410102510   109.49309714    63.85069225
 H      9   8   7     1.090573450337   110.84469557   182.20201270

---------------------------
INTERNAL COORDINATES (A.U.)
---------------------------
 O      0   0   0     0.000000000000     0.00000000     0.00000000
 C      1   0   0     2.266536356179     0.00000000     0.00000000
 O      2   1   0     2.549579843906   122.02694270     0.00000000
 C      2   1   3     2.846957245641   126.04148668   178.54337313
 C      4   2   1     2.881523286718   111.35142812    14.86852294
 C      5   4   2     2.884127219098   110.88300058   181.53112829
 C      6   5   4     2.885286311409   111.23557964    56.21295534
 C      7   6   5     2.884805385751   111.00519381   304.14778215
 C      8   7   6     2.884312227597   111.37658411    55.77228695
 H      3   2   1     1.829137194164   107.02367745     0.76229800
 H      4   2   1     2.070195391882   107.05981361   135.13943923
 H      5   4   2     2.062007380179   109.94747143    58.47402797
 H      5   4   2     2.066331531435   108.46780613   302.40842574
 H      6   5   4     2.070185657247   109.36537454   295.59538396
 H      6   5   4     2.062318872375   109.87181653   178.73818349
 H      7   6   5     2.062781459340   110.39284491   181.58709855
 H      7   6   5     2.069574158906   109.09497217    64.40820833
 H      8   7   6     2.069678995928   109.23304302   295.29940588
 H      8   7   6     2.062758708874   110.50313613   178.04165590
 H      9   8   7     2.070025098075   109.49309714    63.85069225
 H      9   8   7     2.060885150063   110.84469557   182.20201270

---------------------
BASIS SET INFORMATION
---------------------
There are 3 groups of distinct atoms

 Group   1 Type O   : 11s6p2d1f contracted to 5s3p2d1f pattern {62111/411/11/1}
 Group   2 Type C   : 11s6p2d1f contracted to 5s3p2d1f pattern {62111/411/11/1}
 Group   3 Type H   : 5s2p1d contracted to 3s2p1d pattern {311/11/1}

Atom   0O    basis set group =>   1
Atom   1C    basis set group =>   2
Atom   2O    basis set group =>   1
Atom   3C    basis set group =>   2
Atom   4C    basis set group =>   2
Atom   5C    basis set group =>   2
Atom   6C    basis set group =>   2
Atom   7C    basis set group =>   2
Atom   8C    basis set group =>   2
Atom   9H    basis set group =>   3
Atom  10H    basis set group =>   3
Atom  11H    basis set group =>   3
Atom  12H    basis set group =>   3
Atom  13H    basis set group =>   3
Atom  14H    basis set group =>   3
Atom  15H    basis set group =>   3
Atom  16H    basis set group =>   3
Atom  17H    basis set group =>   3
Atom  18H    basis set group =>   3
Atom  19H    basis set group =>   3
Atom  20H    basis set group =>   3
---------------------------------
AUXILIARY/J BASIS SET INFORMATION
---------------------------------
There are 3 groups of distinct atoms

 Group   1 Type O   : 12s5p4d2f1g contracted to 6s4p3d1f1g pattern {711111/2111/211/2/1}
 Group   2 Type C   : 12s5p4d2f1g contracted to 6s4p3d1f1g pattern {711111/2111/211/2/1}
 Group   3 Type H   : 5s2p1d contracted to 3s1p1d pattern {311/2/1}

Atom   0O    basis set group =>   1
Atom   1C    basis set group =>   2
Atom   2O    basis set group =>   1
Atom   3C    basis set group =>   2
Atom   4C    basis set group =>   2
Atom   5C    basis set group =>   2
Atom   6C    basis set group =>   2
Atom   7C    basis set group =>   2
Atom   8C    basis set group =>   2
Atom   9H    basis set group =>   3
Atom  10H    basis set group =>   3
Atom  11H    basis set group =>   3
Atom  12H    basis set group =>   3
Atom  13H    basis set group =>   3
Atom  14H    basis set group =>   3
Atom  15H    basis set group =>   3
Atom  16H    basis set group =>   3
Atom  17H    basis set group =>   3
Atom  18H    basis set group =>   3
Atom  19H    basis set group =>   3
Atom  20H    basis set group =>   3


           ************************************************************
           *        Program running with 8 parallel MPI-processes     *
           *              working on a common directory               *
           ************************************************************
------------------------------------------------------------------------------
                           ORCA GTO INTEGRAL CALCULATION
                           -- RI-GTO INTEGRALS CHOSEN --
------------------------------------------------------------------------------
------------------------------------------------------------------------------
                   ___                                                        
                  /   \      - P O W E R E D   B Y -                         
                 /     \                                                     
                 |  |  |   _    _      __       _____    __    __             
                 |  |  |  | |  | |    /  \     |  _  \  |  |  /  |          
                  \  \/   | |  | |   /    \    | | | |  |  | /  /          
                 / \  \   | |__| |  /  /\  \   | |_| |  |  |/  /          
                |  |  |   |  __  | /  /__\  \  |    /   |      \           
                |  |  |   | |  | | |   __   |  |    \   |  |\   \          
                \     /   | |  | | |  |  |  |  | |\  \  |  | \   \       
                 \___/    |_|  |_| |__|  |__|  |_| \__\ |__|  \__/        
                                                                              
                      - O R C A' S   B I G   F R I E N D -                    
                                      &                                       
                       - I N T E G R A L  F E E D E R -                       
                                                                              
 v1 FN, 2020, v2 2021                                                         
------------------------------------------------------------------------------


Reading SHARK input file /tmp/265186/Ac7_rdkit_conf_2_spc.SHARKINP.tmp ... ok
----------------------
SHARK INTEGRAL PACKAGE
----------------------

Number of atoms                             ...     21
Number of basis functions                   ...    447
Number of shells                            ...    171
Maximum angular momentum                    ...      3
Integral batch strategy                     ... SHARK/LIBINT Hybrid
RI-J (if used) integral strategy            ... SPLIT-RIJ (Revised 2003 algorithm where possible)
Printlevel                                  ...      1
Contraction scheme used                     ... SEGMENTED contraction
Coulomb Range Separation                    ... NOT USED
Exchange Range Separation                   ... Long Range
   Mu parameter                             ...  0.300000
   Scaling (regular/separated)              ...  0.150000  0.850000
Finite Nucleus Model                        ... NOT USED
Auxiliary Coulomb fitting basis             ... AVAILABLE
   # of basis functions in Aux-J            ...    573
   # of shells in Aux-J                     ...    195
   Maximum angular momentum in Aux-J        ...      4
Auxiliary J/K fitting basis                 ... NOT available
Auxiliary Correlation fitting basis         ... NOT available
Auxiliary 'external' fitting basis          ... NOT available
Integral threshold                          ...     1.000000e-10
Primitive cut-off                           ...     1.000000e-11
Primitive pair pre-selection threshold      ...     1.000000e-11

Calculating pre-screening integrals         ... done (  0.0 sec) Dimension = 171
Organizing shell pair data                  ... done (  0.7 sec)
Shell pair information
Total number of shell pairs                 ...     14706
Shell pairs after pre-screening             ...     13013
Total number of primitive shell pairs       ...     38460
Primitive shell pairs kept                  ...     26171
          la=0 lb=0:   2897 shell pairs
          la=1 lb=0:   3714 shell pairs
          la=1 lb=1:   1224 shell pairs
          la=2 lb=0:   2093 shell pairs
          la=2 lb=1:   1346 shell pairs
          la=2 lb=2:    397 shell pairs
          la=3 lb=0:    645 shell pairs
          la=3 lb=1:    418 shell pairs
          la=3 lb=2:    238 shell pairs
          la=3 lb=3:     41 shell pairs

Calculating one electron integrals          ... done (  0.0 sec)
Calculating RI/J V-Matrix + Cholesky decomp.... done (  0.0 sec)
Calculating Nuclear repulsion               ... done (  0.0 sec) ENN=    476.376334538411 Eh

SHARK setup successfully completed in   0.9 seconds

Maximum memory used throughout the entire GTOINT-calculation: 25.4 MB


           ************************************************************
           *        Program running with 8 parallel MPI-processes     *
           *              working on a common directory               *
           ************************************************************
-------------------------------------------------------------------------------
                                 ORCA SCF
-------------------------------------------------------------------------------

------------
SCF SETTINGS
------------
Hamiltonian:
 Density Functional     Method          .... DFT(GTOs)
  Functional kind                       .... Exchange-Correlation
  Functional name                       .... wB97M-V exchange-correlation functional
  Functional family                     .... Hybrid MGGA
  Functional refs                              
    [ 0] N. Mardirossian and M. Head-Gordon, J. Chem. Phys. 144, 214110 (2016)
  Fraction of HF Exchange (short range) .... 0.1500
  Fraction of HF Exchange (long range)  .... 1.0000
  Range separation parameter mu         .... 0.3000
  Functional external parameters         .... 0
   Density functional embedding theory  .... OFF
 Long-range corrected/Screened/Range-Separated Hybrid DFT is turned on
   Amount of maximum screened exact exchange              ....  0.850000
   Range separation parameter mu (erf(mu*r12)/r12)        ....  0.300000
   NL short-range parameter             ....  6.000000
   NL long-range parameter              ....  0.010000
 RI-approximation to the Coulomb term is turned on
   Number of AuxJ basis functions       .... 573
   RIJ-COSX (HFX calculated with COS-X)).... on


General Settings:
 Integral files         IntName         .... /tmp/265186/Ac7_rdkit_conf_2_spc
 Hartree-Fock type      HFTyp           .... RHF
 Total Charge           Charge          ....    0
 Multiplicity           Mult            ....    1
 Number of Electrons    NEL             ....   70
 Basis Dimension        Dim             ....  447
 Nuclear Repulsion      ENuc            ....    476.3763345384 Eh

Convergence Acceleration:
 DIIS                   CNVDIIS         .... on
   Start iteration      DIISMaxIt       ....    12
   Startup error        DIISStart       ....  0.200000
   # of expansion vecs  DIISMaxEq       ....     5
   Bias factor          DIISBfac        ....   1.050
   Max. coefficient     DIISMaxC        ....  10.000
 Trust-Rad. Augm. Hess. CNVTRAH         .... auto
   Auto Start mean grad. ratio tolernc. ....  1.125000
   Auto Start start iteration           ....    20
   Auto Start num. interpolation iter.  ....    10
   Max. Number of Micro iterations      ....    16
   Max. Number of Macro iterations      .... Maxiter - #DIIS iter
   Number of Davidson start vectors     ....     2
   Converg. threshold I  (grad. norm)   ....   5.000e-05
   Converg. threshold II (energy diff.) ....   1.000e-06
   Grad. Scal. Fac. for Micro threshold ....   0.100
   Minimum threshold for Micro iter.    ....   0.010
   NR start threshold (gradient norm)   ....   0.001
   Initial trust radius                 ....   0.400
   Minimum AH scaling param. (alpha)    ....   1.000
   Maximum AH scaling param. (alpha)    .... 1000.000
   Orbital update algorithm             .... Taylor
   White noise on init. David. guess    .... on
   Maximum white noise                  ....   0.010
   Quad. conv. algorithm                .... NR
 SOSCF                  CNVSOSCF        .... on
   Start iteration      SOSCFMaxIt      ....   150
   Startup grad/error   SOSCFStart      ....  0.003300
 Level Shifting         CNVShift        .... on
   Level shift para.    LevelShift      ....    0.2500
   Turn off err/grad.   ShiftErr        ....    0.0010
 Zerner damping         CNVZerner       .... off
 Static damping         CNVDamp         .... on
   Fraction old density DampFac         ....    0.7000
   Max. Damping (<1)    DampMax         ....    0.9800
   Min. Damping (>=0)   DampMin         ....    0.0000
   Turn off err/grad.   DampErr         ....    0.1000
 Fernandez-Rico         CNVRico         .... off

SCF Procedure:
 Maximum # iterations   MaxIter         ....   125
 SCF integral mode      SCFMode         .... Direct
   Integral package                     .... SHARK and LIBINT hybrid scheme
 Reset frequency        DirectResetFreq ....    20
 Integral Threshold     Thresh          ....  1.000e-10 Eh
 Primitive CutOff       TCut            ....  1.000e-11 Eh

Convergence Tolerance:
 Convergence Check Mode ConvCheckMode   .... Total+1el-Energy
 Convergence forced     ConvForced      .... 0
 Energy Change          TolE            ....  1.000e-06 Eh
 1-El. energy change                    ....  1.000e-03 Eh
 Orbital Gradient       TolG            ....  5.000e-05
 Orbital Rotation angle TolX            ....  5.000e-05
 DIIS Error             TolErr          ....  1.000e-06


Diagonalization of the overlap matrix:
Smallest eigenvalue                        ... 6.486e-05
Time for diagonalization                   ...    0.025 sec
Threshold for overlap eigenvalues          ... 1.000e-08
Number of eigenvalues below threshold      ... 0
Time for construction of square roots      ...    0.016 sec
Total time needed                          ...    0.042 sec

Time for model grid setup =    0.093 sec

------------------------------
INITIAL GUESS: MODEL POTENTIAL
------------------------------
Loading Hartree-Fock densities                     ... done
Calculating cut-offs                               ... done
Initializing the effective Hamiltonian             ... done
Setting up the integral package (SHARK)            ... done
Starting the Coulomb interaction                   ... done (   0.1 sec)
Reading the grid                                   ... done
Mapping shells                                     ... done
Starting the XC term evaluation                    ... done (   0.1 sec)
  promolecular density results
     # of electrons  =     69.995632758
     EX              =    -55.704956296
     EC              =     -2.338784572
     EX+EC           =    -58.043740868
Transforming the Hamiltonian                       ... done (   0.0 sec)
Diagonalizing the Hamiltonian                      ... done (   0.0 sec)
Back transforming the eigenvectors                 ... done (   0.0 sec)
Now organizing SCF variables                       ... done
                      ------------------
                      INITIAL GUESS DONE (   0.3 sec)
                      ------------------
-------------------
DFT GRID GENERATION
-------------------

General Integration Accuracy     IntAcc      ... 4.388
Radial Grid Type                 RadialGrid  ... OptM3 with GC (2021)
Angular Grid (max. ang.)         AngularGrid ... 4 (Lebedev-302)
Angular grid pruning method      GridPruning ... 4 (adaptive)
Weight generation scheme         WeightScheme... Becke
Basis function cutoff            BFCut       ... 1.0000e-10
Integration weight cutoff        WCut        ... 1.0000e-14
Angular grids for H and He will be reduced by one unit
Partially contracted basis set               ... off
Rotationally invariant grid construction     ... off

Total number of grid points                  ...    92168
Total number of batches                      ...     1451
Average number of points per batch           ...       63
Average number of grid points per atom       ...     4389
Time for grid setup =    0.475 sec

--------------------
COSX GRID GENERATION
--------------------

GRIDX 1
-------
General Integration Accuracy     IntAcc      ... 3.816
Radial Grid Type                 RadialGrid  ... OptM3 with GC (2021)
Angular Grid (max. ang.)         AngularGrid ... 1 (Lebedev-50)
Angular grid pruning method      GridPruning ... 4 (adaptive)
Weight generation scheme         WeightScheme... Becke
Basis function cutoff            BFCut       ... 1.0000e-10
Integration weight cutoff        WCut        ... 1.0000e-14
Angular grids for H and He will be reduced by one unit
Partially contracted basis set               ... on
Rotationally invariant grid construction     ... off

Total number of grid points                  ...    11802
Total number of batches                      ...      197
Average number of points per batch           ...       59
Average number of grid points per atom       ...      562
UseSFitting                                  ... on

GRIDX 2
-------
General Integration Accuracy     IntAcc      ... 4.020
Radial Grid Type                 RadialGrid  ... OptM3 with GC (2021)
Angular Grid (max. ang.)         AngularGrid ... 2 (Lebedev-110)
Angular grid pruning method      GridPruning ... 4 (adaptive)
Weight generation scheme         WeightScheme... Becke
Basis function cutoff            BFCut       ... 1.0000e-10
Integration weight cutoff        WCut        ... 1.0000e-14
Angular grids for H and He will be reduced by one unit
Partially contracted basis set               ... on
Rotationally invariant grid construction     ... off

Total number of grid points                  ...    25024
Total number of batches                      ...      403
Average number of points per batch           ...       62
Average number of grid points per atom       ...     1192
UseSFitting                                  ... on

GRIDX 3
-------
General Integration Accuracy     IntAcc      ... 4.338
Radial Grid Type                 RadialGrid  ... OptM3 with GC (2021)
Angular Grid (max. ang.)         AngularGrid ... 3 (Lebedev-194)
Angular grid pruning method      GridPruning ... 4 (adaptive)
Weight generation scheme         WeightScheme... Becke
Basis function cutoff            BFCut       ... 1.0000e-10
Integration weight cutoff        WCut        ... 1.0000e-14
Angular grids for H and He will be reduced by one unit
Partially contracted basis set               ... on
Rotationally invariant grid construction     ... off

Total number of grid points                  ...    54611
Total number of batches                      ...      863
Average number of points per batch           ...       63
Average number of grid points per atom       ...     2601
UseSFitting                                  ... on

Time for X-Grid setup             =    0.480 sec


--------------------
CPCM SOLVATION MODEL
--------------------
CPCM parameters:
  Epsilon                                         ...       5.9867
  Refrac                                          ...       1.3723
  Rsolv                                           ...       1.3000
  Surface type                                    ... GAUSSIAN VDW
  Epsilon function type                           ...         CPCM
Solvent:                                     ... ETHYL ETHANOATE
SMD-CDS solvent descriptors:
  Soln                                       ...    1.3723
  Soln25                                     ...    1.3704
  Sola                                       ...    0.0000
  Solb                                       ...    0.4500
  Solg                                       ...   33.6700
  Solc                                       ...    0.0000
  Solh                                       ...    0.0000
Radii:
 Radius for O  used is    4.3350 Bohr (=   2.2940 Ang.)
 Radius for C  used is    3.4960 Bohr (=   1.8500 Ang.)
 Radius for H  used is    2.2677 Bohr (=   1.2000 Ang.)
Calculating surface                               ...        done! (  0.0s)
GEPOL surface points                              ...         1130
GEPOL Volume                                      ...    1174.0080
GEPOL Surface-area                                ...     658.2552
Calculating surface distance matrix               ...        done! (  0.0s)
Performing Cholesky decomposition & store         ...        done! (  0.1s)
Overall time for CPCM initialization              ...                 0.1s
--------------
SCF ITERATIONS
--------------
ITER       Energy         Delta-E        Max-DP      RMS-DP      [F,P]     Damp
               ***  Starting incremental Fock matrix formation  ***
  0   -424.3996932128   0.000000000000 0.05839795  0.00081067  0.2649142 0.7000
  1   -424.5331314741  -0.133438261284 0.06334201  0.00066300  0.1308729 0.7000
                               ***Turning on DIIS***
  2   -424.5971427488  -0.064011274678 0.10937345  0.00133512  0.0512043 0.0000
  3   -424.7011285442  -0.103985795413 0.04581543  0.00038328  0.0633280 0.0000
  4   -424.7179262057  -0.016797661503 0.00606946  0.00010344  0.0073219 0.0000
  5   -424.7182874113  -0.000361205637 0.00319825  0.00004346  0.0068208 0.0000
                      *** Initiating the SOSCF procedure ***
                           *** Shutting down DIIS ***
                      *** Re-Reading the Fockian *** 
                      *** Removing any level shift *** 
ITER      Energy       Delta-E        Grad      Rot      Max-DP    RMS-DP
  6   -424.71836874  -0.0000813320  0.000692  0.000692  0.001495  0.000029
               *** Restarting incremental Fock matrix formation ***
  7   -424.71838014  -0.0000114012  0.000155  0.000213  0.001475  0.000022
  8   -424.71838060  -0.0000004533  0.000387  0.000372  0.000305  0.000005
  9   -424.71838248  -0.0000018854  0.000041  0.000091  0.000181  0.000002
                 **** Energy Check signals convergence ****
              ***Rediagonalizing the Fockian in SOSCF/NRSCF***

               *****************************************************
               *                     SUCCESS                       *
               *           SCF CONVERGED AFTER  10 CYCLES          *
               *****************************************************

Old exchange energy                            =    -17.902724543 Eh
New exchange energy                            =    -17.902724351 Eh
Exchange energy change after final integration =      0.000000193 Eh
Total energy after final integration           =   -424.718382323 Eh
Final COS-X integration done in                =     9.858 sec

------------------
NL GRID GENERATION
------------------

General Integration Accuracy     IntAcc      ... 4.004
Radial Grid Type                 RadialGrid  ... OptM3 with GC (2021)
Angular Grid (max. ang.)         AngularGrid ... 2 (Lebedev-110)
Angular grid pruning method      GridPruning ... 4 (adaptive)
Weight generation scheme         WeightScheme... Becke
Basis function cutoff            BFCut       ... 1.0000e-10
Integration weight cutoff        WCut        ... 1.0000e-14
Angular grids for H and He will be reduced by one unit
Partially contracted basis set               ... off
Rotationally invariant grid construction     ... off

Total number of grid points                  ...    28156
Total number of batches                      ...      452
Average number of points per batch           ...       62
Average number of grid points per atom       ...     1341
Final grid set up in    0.1 sec

-------------------------------------------------------------------------------
                    post-SCF DFT-NL dispersion correction                      
-------------------------------------------------------------------------------

SCF Energy:   -424.718382323 
NL    Energy:  0.263905085 
SC+NL Energy: -424.454477239 
NL done in:    0.3 sec
-------------------------------------------------------------------------------

SMD CDS free energy correction energy :                -4.14328     Kcal/mol
Total Energy after SMD CDS correction =              -424.461079980 Eh

----------------
TOTAL SCF ENERGY
----------------

Total Energy       :         -424.46107998 Eh          -11550.17319 eV

Components:
Nuclear Repulsion  :          476.37633454 Eh           12962.85908 eV
Electronic Energy  :         -900.83741452 Eh          -24513.03227 eV
One Electron Energy:        -1520.30945322 Eh          -41369.72342 eV
Two Electron Energy:          619.47203870 Eh           16856.69115 eV
Max COSX asymmetry :            0.00000064 Eh               0.00002 eV
CPCM Dielectric    :           -0.00660532 Eh              -0.17974 eV
SMD CDS (Gcds)     :           -0.00660274 Eh              -0.17967 eV

Virial components:
Potential Energy   :         -847.70715716 Eh          -23067.28446 eV
Kinetic Energy     :          423.24607718 Eh           11517.11128 eV
Virial Ratio       :            2.00287068


DFT components:
N(Alpha)           :       35.000018235316 electrons
N(Beta)            :       35.000018235316 electrons
N(Total)           :       70.000036470632 electrons
NL Energy, E(C,NL) :        0.263905084798 Eh       
E(XC)              :      -41.769802532608 Eh       
DFET-embed. en.    :        0.000000000000 Eh       
CPCM Solvation Model Properties:
Surface-charge          :           -0.03480414
Charge-correction       :            0.00014297 Eh               0.00389 eV
Free-energy (cav+disp)  :           -0.00660274 Eh              -0.17967 eV

---------------
SCF CONVERGENCE
---------------

  Last Energy change         ...   -3.2901e-08  Tolerance :   1.0000e-06
  Last MAX-Density change    ...    6.6613e-16  Tolerance :   1.0000e-05
  Last RMS-Density change    ...    9.6352e-18  Tolerance :   1.0000e-06
  Last Orbital Gradient      ...    1.7819e-05  Tolerance :   5.0000e-05
  Last Orbital Rotation      ...    4.7365e-05  Tolerance :   5.0000e-05

             **** THE GBW FILE WAS UPDATED (/tmp/265186/Ac7_rdkit_conf_2_spc.gbw) ****
             **** DENSITY /tmp/265186/Ac7_rdkit_conf_2_spc.scfp WAS UPDATED ****
             **** ENERGY FILE WAS UPDATED (/tmp/265186/Ac7_rdkit_conf_2_spc.en.tmp) ****
             **** THE GBW FILE WAS UPDATED (/tmp/265186/Ac7_rdkit_conf_2_spc.gbw) ****
             **** DENSITY /tmp/265186/Ac7_rdkit_conf_2_spc.scfp WAS UPDATED ****
----------------
ORBITAL ENERGIES
----------------

  NO   OCC          E(Eh)            E(eV) 
   0   2.0000     -19.375437      -527.2325 
   1   2.0000     -19.321474      -525.7640 
   2   2.0000     -10.474911      -285.0368 
   3   2.0000     -10.352875      -281.7161 
   4   2.0000     -10.338368      -281.3213 
   5   2.0000     -10.331443      -281.1329 
   6   2.0000     -10.331131      -281.1244 
   7   2.0000     -10.329494      -281.0798 
   8   2.0000     -10.328435      -281.0510 
   9   2.0000      -1.239747       -33.7352 
  10   2.0000      -1.148923       -31.2638 
  11   2.0000      -0.963078       -26.2067 
  12   2.0000      -0.881910       -23.9980 
  13   2.0000      -0.861906       -23.4537 
  14   2.0000      -0.773662       -21.0524 
  15   2.0000      -0.725857       -19.7516 
  16   2.0000      -0.697845       -18.9893 
  17   2.0000      -0.664085       -18.0707 
  18   2.0000      -0.612280       -16.6610 
  19   2.0000      -0.605441       -16.4749 
  20   2.0000      -0.578891       -15.7524 
  21   2.0000      -0.562620       -15.3097 
  22   2.0000      -0.540361       -14.7040 
  23   2.0000      -0.536934       -14.6107 
  24   2.0000      -0.522738       -14.2244 
  25   2.0000      -0.484945       -13.1960 
  26   2.0000      -0.477459       -12.9923 
  27   2.0000      -0.472029       -12.8446 
  28   2.0000      -0.442116       -12.0306 
  29   2.0000      -0.436935       -11.8896 
  30   2.0000      -0.430646       -11.7185 
  31   2.0000      -0.413172       -11.2430 
  32   2.0000      -0.405910       -11.0454 
  33   2.0000      -0.392556       -10.6820 
  34   2.0000      -0.376551       -10.2465 
  35   0.0000       0.097968         2.6658 
  36   0.0000       0.100184         2.7262 
  37   0.0000       0.115049         3.1306 
  38   0.0000       0.121433         3.3044 
  39   0.0000       0.131793         3.5863 
  40   0.0000       0.144863         3.9419 
  41   0.0000       0.166153         4.5213 
  42   0.0000       0.178484         4.8568 
  43   0.0000       0.179778         4.8920 
  44   0.0000       0.184606         5.0234 
  45   0.0000       0.186304         5.0696 
  46   0.0000       0.202294         5.5047 
  47   0.0000       0.203669         5.5421 
  48   0.0000       0.220834         6.0092 
  49   0.0000       0.250430         6.8145 
  50   0.0000       0.267278         7.2730 
  51   0.0000       0.268119         7.2959 
  52   0.0000       0.270460         7.3596 
  53   0.0000       0.288931         7.8622 
  54   0.0000       0.297334         8.0909 
  55   0.0000       0.308224         8.3872 
  56   0.0000       0.312596         8.5062 
  57   0.0000       0.323821         8.8116 
  58   0.0000       0.329648         8.9702 
  59   0.0000       0.331153         9.0111 
  60   0.0000       0.337953         9.1962 
  61   0.0000       0.358018         9.7422 
  62   0.0000       0.378560        10.3012 
  63   0.0000       0.396414        10.7870 
  64   0.0000       0.402724        10.9587 
  65   0.0000       0.417573        11.3627 
  66   0.0000       0.421348        11.4655 
  67   0.0000       0.441488        12.0135 
  68   0.0000       0.456957        12.4344 
  69   0.0000       0.471245        12.8232 
  70   0.0000       0.472451        12.8560 
  71   0.0000       0.479722        13.0539 
  72   0.0000       0.486516        13.2388 
  73   0.0000       0.487450        13.2642 
  74   0.0000       0.496767        13.5177 
  75   0.0000       0.498245        13.5579 
  76   0.0000       0.501361        13.6427 
  77   0.0000       0.503243        13.6939 
  78   0.0000       0.507598        13.8124 
  79   0.0000       0.514726        14.0064 
  80   0.0000       0.518843        14.1184 
  81   0.0000       0.533885        14.5278 
  82   0.0000       0.542316        14.7572 
  83   0.0000       0.549751        14.9595 
  84   0.0000       0.555642        15.1198 
  85   0.0000       0.561922        15.2907 
  86   0.0000       0.563065        15.3218 
  87   0.0000       0.568902        15.4806 
  88   0.0000       0.575355        15.6562 
  89   0.0000       0.603965        16.4347 
  90   0.0000       0.617686        16.8081 
  91   0.0000       0.643862        17.5204 
  92   0.0000       0.656069        17.8525 
  93   0.0000       0.667363        18.1599 
  94   0.0000       0.681465        18.5436 
  95   0.0000       0.686608        18.6836 
  96   0.0000       0.701706        19.0944 
  97   0.0000       0.720782        19.6135 
  98   0.0000       0.751540        20.4505 
  99   0.0000       0.776753        21.1365 
 100   0.0000       0.798396        21.7255 
 101   0.0000       0.812452        22.1080 
 102   0.0000       0.827921        22.5289 
 103   0.0000       0.832893        22.6642 
 104   0.0000       0.844452        22.9787 
 105   0.0000       0.847453        23.0604 
 106   0.0000       0.851374        23.1671 
 107   0.0000       0.866575        23.5807 
 108   0.0000       0.881702        23.9923 
 109   0.0000       0.904734        24.6191 
 110   0.0000       0.913317        24.8526 
 111   0.0000       0.919939        25.0328 
 112   0.0000       0.950856        25.8741 
 113   0.0000       0.957102        26.0441 
 114   0.0000       0.971874        26.4460 
 115   0.0000       0.984449        26.7882 
 116   0.0000       0.995702        27.0944 
 117   0.0000       1.004806        27.3422 
 118   0.0000       1.017245        27.6807 
 119   0.0000       1.042011        28.3546 
 120   0.0000       1.072823        29.1930 
 121   0.0000       1.096173        29.8284 
 122   0.0000       1.098803        29.9000 
 123   0.0000       1.111007        30.2320 
 124   0.0000       1.113952        30.3122 
 125   0.0000       1.117855        30.4184 
 126   0.0000       1.147360        31.2212 
 127   0.0000       1.148932        31.2640 
 128   0.0000       1.156216        31.4622 
 129   0.0000       1.161170        31.5970 
 130   0.0000       1.174560        31.9614 
 131   0.0000       1.190327        32.3904 
 132   0.0000       1.212073        32.9822 
 133   0.0000       1.216541        33.1038 
 134   0.0000       1.224066        33.3085 
 135   0.0000       1.234883        33.6029 
 136   0.0000       1.247881        33.9566 
 137   0.0000       1.262058        34.3423 
 138   0.0000       1.272107        34.6158 
 139   0.0000       1.275003        34.6946 
 140   0.0000       1.293753        35.2048 
 141   0.0000       1.306601        35.5544 
 142   0.0000       1.321013        35.9466 
 143   0.0000       1.336919        36.3794 
 144   0.0000       1.347754        36.6743 
 145   0.0000       1.358472        36.9659 
 146   0.0000       1.376867        37.4665 
 147   0.0000       1.386387        37.7255 
 148   0.0000       1.415145        38.5081 
 149   0.0000       1.425941        38.8018 
 150   0.0000       1.437461        39.1153 
 151   0.0000       1.456639        39.6372 
 152   0.0000       1.468767        39.9672 
 153   0.0000       1.473796        40.1040 
 154   0.0000       1.481618        40.3169 
 155   0.0000       1.496153        40.7124 
 156   0.0000       1.507122        41.0109 
 157   0.0000       1.527649        41.5694 
 158   0.0000       1.537466        41.8366 
 159   0.0000       1.543128        41.9906 
 160   0.0000       1.548185        42.1283 
 161   0.0000       1.590830        43.2887 
 162   0.0000       1.594731        43.3948 
 163   0.0000       1.599733        43.5310 
 164   0.0000       1.606596        43.7177 
 165   0.0000       1.615521        43.9606 
 166   0.0000       1.629528        44.3417 
 167   0.0000       1.640525        44.6409 
 168   0.0000       1.647007        44.8173 
 169   0.0000       1.674495        45.5653 
 170   0.0000       1.685575        45.8668 
 171   0.0000       1.707564        46.4652 
 172   0.0000       1.716690        46.7135 
 173   0.0000       1.719962        46.8025 
 174   0.0000       1.739873        47.3443 
 175   0.0000       1.745079        47.4860 
 176   0.0000       1.771548        48.2063 
 177   0.0000       1.790386        48.7189 
 178   0.0000       1.794633        48.8345 
 179   0.0000       1.805884        49.1406 
 180   0.0000       1.816154        49.4201 
 181   0.0000       1.857707        50.5508 
 182   0.0000       1.877867        51.0994 
 183   0.0000       1.914931        52.1079 
 184   0.0000       1.940400        52.8010 
 185   0.0000       1.956724        53.2452 
 186   0.0000       1.976770        53.7906 
 187   0.0000       1.998383        54.3788 
 188   0.0000       2.030970        55.2655 
 189   0.0000       2.084333        56.7176 
 190   0.0000       2.108255        57.3685 
 191   0.0000       2.129724        57.9527 
 192   0.0000       2.142934        58.3122 
 193   0.0000       2.159197        58.7547 
 194   0.0000       2.186004        59.4842 
 195   0.0000       2.203184        59.9517 
 196   0.0000       2.218998        60.3820 
 197   0.0000       2.249745        61.2187 
 198   0.0000       2.280060        62.0436 
 199   0.0000       2.319437        63.1151 
 200   0.0000       2.325292        63.2744 
 201   0.0000       2.356531        64.1245 
 202   0.0000       2.383832        64.8674 
 203   0.0000       2.396558        65.2137 
 204   0.0000       2.409135        65.5559 
 205   0.0000       2.423119        65.9364 
 206   0.0000       2.457755        66.8789 
 207   0.0000       2.496698        67.9386 
 208   0.0000       2.525503        68.7224 
 209   0.0000       2.550638        69.4064 
 210   0.0000       2.562328        69.7245 
 211   0.0000       2.580459        70.2179 
 212   0.0000       2.587937        70.4214 
 213   0.0000       2.593282        70.5668 
 214   0.0000       2.617868        71.2358 
 215   0.0000       2.618173        71.2441 
 216   0.0000       2.668361        72.6098 
 217   0.0000       2.700152        73.4749 
 218   0.0000       2.706710        73.6533 
 219   0.0000       2.725320        74.1597 
 220   0.0000       2.745373        74.7054 
 221   0.0000       2.749400        74.8150 
 222   0.0000       2.768300        75.3293 
 223   0.0000       2.782511        75.7160 
 224   0.0000       2.826597        76.9156 
 225   0.0000       2.831456        77.0478 
 226   0.0000       2.846162        77.4480 
 227   0.0000       2.855973        77.7150 
 228   0.0000       2.894089        78.7522 
 229   0.0000       2.905287        79.0569 
 230   0.0000       2.912919        79.2646 
 231   0.0000       2.951398        80.3116 
 232   0.0000       2.957297        80.4721 
 233   0.0000       2.971211        80.8508 
 234   0.0000       2.981424        81.1287 
 235   0.0000       2.997757        81.5731 
 236   0.0000       3.013041        81.9890 
 237   0.0000       3.015794        82.0639 
 238   0.0000       3.046523        82.9001 
 239   0.0000       3.050183        82.9997 
 240   0.0000       3.058803        83.2342 
 241   0.0000       3.072692        83.6122 
 242   0.0000       3.085467        83.9598 
 243   0.0000       3.094449        84.2042 
 244   0.0000       3.119545        84.8871 
 245   0.0000       3.123779        85.0024 
 246   0.0000       3.153387        85.8080 
 247   0.0000       3.160488        86.0013 
 248   0.0000       3.163719        86.0892 
 249   0.0000       3.185168        86.6728 
 250   0.0000       3.198237        87.0284 
 251   0.0000       3.215524        87.4988 
 252   0.0000       3.219826        87.6159 
 253   0.0000       3.228314        87.8469 
 254   0.0000       3.236143        88.0599 
 255   0.0000       3.240143        88.1688 
 256   0.0000       3.245610        88.3175 
 257   0.0000       3.257484        88.6406 
 258   0.0000       3.262261        88.7706 
 259   0.0000       3.266799        88.8941 
 260   0.0000       3.285724        89.4091 
 261   0.0000       3.291406        89.5637 
 262   0.0000       3.299196        89.7757 
 263   0.0000       3.307189        89.9932 
 264   0.0000       3.316309        90.2413 
 265   0.0000       3.341591        90.9293 
 266   0.0000       3.361254        91.4644 
 267   0.0000       3.374958        91.8373 
 268   0.0000       3.387598        92.1812 
 269   0.0000       3.412967        92.8716 
 270   0.0000       3.418374        93.0187 
 271   0.0000       3.433256        93.4236 
 272   0.0000       3.445570        93.7587 
 273   0.0000       3.448997        93.8520 
 274   0.0000       3.463942        94.2587 
 275   0.0000       3.490913        94.9926 
 276   0.0000       3.507054        95.4318 
 277   0.0000       3.522011        95.8388 
 278   0.0000       3.546507        96.5054 
 279   0.0000       3.551852        96.6508 
 280   0.0000       3.564089        96.9838 
 281   0.0000       3.587941        97.6328 
 282   0.0000       3.608176        98.1835 
 283   0.0000       3.616582        98.4122 
 284   0.0000       3.629064        98.7519 
 285   0.0000       3.645894        99.2098 
 286   0.0000       3.658832        99.5619 
 287   0.0000       3.661646        99.6384 
 288   0.0000       3.670918        99.8908 
 289   0.0000       3.700289       100.6900 
 290   0.0000       3.720390       101.2370 
 291   0.0000       3.725387       101.3729 
 292   0.0000       3.731552       101.5407 
 293   0.0000       3.749525       102.0298 
 294   0.0000       3.756935       102.2314 
 295   0.0000       3.760681       102.3333 
 296   0.0000       3.762998       102.3964 
 297   0.0000       3.789246       103.1106 
 298   0.0000       3.802202       103.4632 
 299   0.0000       3.814911       103.8090 
 300   0.0000       3.837209       104.4158 
 301   0.0000       3.859485       105.0219 
 302   0.0000       3.869587       105.2968 
 303   0.0000       3.895586       106.0043 
 304   0.0000       3.912109       106.4539 
 305   0.0000       3.915035       106.5335 
 306   0.0000       3.926929       106.8572 
 307   0.0000       3.936459       107.1165 
 308   0.0000       3.960723       107.7768 
 309   0.0000       3.980902       108.3259 
 310   0.0000       3.984767       108.4310 
 311   0.0000       3.985969       108.4637 
 312   0.0000       4.008885       109.0873 
 313   0.0000       4.014885       109.2506 
 314   0.0000       4.032201       109.7218 
 315   0.0000       4.047602       110.1409 
 316   0.0000       4.051831       110.2559 
 317   0.0000       4.072092       110.8072 
 318   0.0000       4.092747       111.3693 
 319   0.0000       4.098105       111.5151 
 320   0.0000       4.108387       111.7949 
 321   0.0000       4.112850       111.9163 
 322   0.0000       4.125090       112.2494 
 323   0.0000       4.129581       112.3716 
 324   0.0000       4.145591       112.8073 
 325   0.0000       4.180055       113.7451 
 326   0.0000       4.194223       114.1306 
 327   0.0000       4.199846       114.2836 
 328   0.0000       4.221746       114.8795 
 329   0.0000       4.223972       114.9401 
 330   0.0000       4.251265       115.6828 
 331   0.0000       4.253883       115.7541 
 332   0.0000       4.259148       115.8973 
 333   0.0000       4.276125       116.3593 
 334   0.0000       4.295779       116.8941 
 335   0.0000       4.311101       117.3110 
 336   0.0000       4.323706       117.6540 
 337   0.0000       4.337989       118.0427 
 338   0.0000       4.371356       118.9507 
 339   0.0000       4.376732       119.0969 
 340   0.0000       4.388320       119.4122 
 341   0.0000       4.404783       119.8602 
 342   0.0000       4.413805       120.1057 
 343   0.0000       4.424538       120.3978 
 344   0.0000       4.427278       120.4724 
 345   0.0000       4.437909       120.7616 
 346   0.0000       4.458737       121.3284 
 347   0.0000       4.476078       121.8003 
 348   0.0000       4.491346       122.2157 
 349   0.0000       4.526241       123.1653 
 350   0.0000       4.535575       123.4193 
 351   0.0000       4.573256       124.4446 
 352   0.0000       4.599787       125.1666 
 353   0.0000       4.613695       125.5450 
 354   0.0000       4.621385       125.7543 
 355   0.0000       4.637776       126.2003 
 356   0.0000       4.656648       126.7138 
 357   0.0000       4.667836       127.0183 
 358   0.0000       4.685455       127.4977 
 359   0.0000       4.699578       127.8820 
 360   0.0000       4.714436       128.2863 
 361   0.0000       4.730521       128.7240 
 362   0.0000       4.736572       128.8887 
 363   0.0000       4.755232       129.3964 
 364   0.0000       4.784872       130.2030 
 365   0.0000       4.829493       131.4172 
 366   0.0000       4.833884       131.5367 
 367   0.0000       4.849106       131.9509 
 368   0.0000       4.878445       132.7492 
 369   0.0000       4.881428       132.8304 
 370   0.0000       4.920635       133.8973 
 371   0.0000       4.932472       134.2194 
 372   0.0000       4.961020       134.9962 
 373   0.0000       4.972732       135.3149 
 374   0.0000       4.983933       135.6197 
 375   0.0000       4.992329       135.8482 
 376   0.0000       5.014331       136.4469 
 377   0.0000       5.020099       136.6038 
 378   0.0000       5.049186       137.3953 
 379   0.0000       5.055607       137.5701 
 380   0.0000       5.086776       138.4182 
 381   0.0000       5.100852       138.8012 
 382   0.0000       5.123839       139.4267 
 383   0.0000       5.127061       139.5144 
 384   0.0000       5.131398       139.6324 
 385   0.0000       5.139718       139.8588 
 386   0.0000       5.158094       140.3589 
 387   0.0000       5.244156       142.7007 
 388   0.0000       5.250670       142.8780 
 389   0.0000       5.282817       143.7528 
 390   0.0000       5.334555       145.1606 
 391   0.0000       5.345084       145.4471 
 392   0.0000       5.367191       146.0487 
 393   0.0000       5.379428       146.3817 
 394   0.0000       5.439888       148.0269 
 395   0.0000       5.471305       148.8818 
 396   0.0000       5.482452       149.1851 
 397   0.0000       5.500432       149.6744 
 398   0.0000       5.501741       149.7100 
 399   0.0000       5.532099       150.5361 
 400   0.0000       5.571614       151.6113 
 401   0.0000       5.580197       151.8449 
 402   0.0000       5.592217       152.1720 
 403   0.0000       5.605114       152.5229 
 404   0.0000       5.607192       152.5794 
 405   0.0000       5.610064       152.6576 
 406   0.0000       5.630101       153.2028 
 407   0.0000       5.635031       153.3370 
 408   0.0000       5.641625       153.5164 
 409   0.0000       5.651656       153.7894 
 410   0.0000       5.677268       154.4863 
 411   0.0000       5.696515       155.0101 
 412   0.0000       5.736682       156.1030 
 413   0.0000       5.751978       156.5193 
 414   0.0000       5.758588       156.6992 
 415   0.0000       5.770233       157.0160 
 416   0.0000       5.782225       157.3423 
 417   0.0000       5.813393       158.1905 
 418   0.0000       5.840987       158.9413 
 419   0.0000       5.852982       159.2677 
 420   0.0000       6.073135       165.2584 
 421   0.0000       6.114640       166.3878 
 422   0.0000       6.334723       172.3766 
 423   0.0000       6.468994       176.0303 
 424   0.0000       6.483783       176.4327 
 425   0.0000       6.582660       179.1233 
 426   0.0000       6.598196       179.5460 
 427   0.0000       6.661387       181.2655 
 428   0.0000       6.701724       182.3632 
 429   0.0000       6.811471       185.3495 
 430   0.0000       6.855555       186.5491 
 431   0.0000       6.966978       189.5811 
 432   0.0000       6.985344       190.0809 
 433   0.0000       7.088759       192.8949 
 434   0.0000       7.229275       196.7186 
 435   0.0000       7.384483       200.9420 
 436   0.0000       7.559355       205.7005 
 437   0.0000       7.599576       206.7950 
 438   0.0000      23.473957       638.7588 
 439   0.0000      23.664569       643.9457 
 440   0.0000      23.783552       647.1834 
 441   0.0000      23.803417       647.7239 
 442   0.0000      23.805678       647.7854 
 443   0.0000      23.815474       648.0520 
 444   0.0000      23.834835       648.5788 
 445   0.0000      44.366342      1207.2696 
 446   0.0000      44.432029      1209.0570 

                    ********************************
                    * MULLIKEN POPULATION ANALYSIS *
                    ********************************

-----------------------
MULLIKEN ATOMIC CHARGES
-----------------------
   0 O :   -0.349236
   1 C :    0.291796
   2 O :   -0.273003
   3 C :   -0.022222
   4 C :   -0.213402
   5 C :   -0.201548
   6 C :   -0.192540
   7 C :   -0.205039
   8 C :   -0.228899
   9 H :    0.207883
  10 H :    0.115045
  11 H :    0.110520
  12 H :    0.108334
  13 H :    0.101438
  14 H :    0.101534
  15 H :    0.103563
  16 H :    0.098991
  17 H :    0.104083
  18 H :    0.102102
  19 H :    0.121691
  20 H :    0.118908
Sum of atomic charges:    0.0000000

--------------------------------
MULLIKEN REDUCED ORBITAL CHARGES
--------------------------------
  0 O s       :     3.780579  s :     3.780579
      pz      :     1.394978  p :     4.535332
      px      :     1.693402
      py      :     1.446951
      dz2     :     0.007607  d :     0.031317
      dxz     :     0.004142
      dyz     :     0.007404
      dx2y2   :     0.005772
      dxy     :     0.006393
      f0      :     0.000163  f :     0.002008
      f+1     :     0.000160
      f-1     :     0.000424
      f+2     :     0.000335
      f-2     :     0.000361
      f+3     :     0.000289
      f-3     :     0.000277
  1 C s       :     3.081142  s :     3.081142
      pz      :     0.735138  p :     2.347299
      px      :     0.903628
      py      :     0.708534
      dz2     :     0.048416  d :     0.255160
      dxz     :     0.044830
      dyz     :     0.039526
      dx2y2   :     0.070339
      dxy     :     0.052050
      f0      :     0.001507  f :     0.024603
      f+1     :     0.002629
      f-1     :     0.003714
      f+2     :     0.004034
      f-2     :     0.003825
      f+3     :     0.003095
      f-3     :     0.005800
  2 O s       :     3.734362  s :     3.734362
      pz      :     1.690521  p :     4.511866
      px      :     1.237428
      py      :     1.583917
      dz2     :     0.003571  d :     0.025546
      dxz     :     0.003968
      dyz     :     0.005887
      dx2y2   :     0.005972
      dxy     :     0.006149
      f0      :     0.000184  f :     0.001228
      f+1     :     0.000086
      f-1     :     0.000190
      f+2     :     0.000121
      f-2     :     0.000248
      f+3     :     0.000235
      f-3     :     0.000165
  3 C s       :     3.154124  s :     3.154124
      pz      :     0.988622  p :     2.743200
      px      :     0.850329
      py      :     0.904250
      dz2     :     0.033921  d :     0.118086
      dxz     :     0.010762
      dyz     :     0.022528
      dx2y2   :     0.033310
      dxy     :     0.017564
      f0      :     0.000751  f :     0.006811
      f+1     :     0.000656
      f-1     :     0.000894
      f+2     :     0.000726
      f-2     :     0.000751
      f+3     :     0.001324
      f-3     :     0.001709
  4 C s       :     3.237207  s :     3.237207
      pz      :     1.040154  p :     2.879122
      px      :     0.907082
      py      :     0.931886
      dz2     :     0.018778  d :     0.092211
      dxz     :     0.015880
      dyz     :     0.017740
      dx2y2   :     0.016591
      dxy     :     0.023221
      f0      :     0.000641  f :     0.004861
      f+1     :     0.000544
      f-1     :     0.000391
      f+2     :     0.000514
      f-2     :     0.000412
      f+3     :     0.000979
      f-3     :     0.001380
  5 C s       :     3.242390  s :     3.242390
      pz      :     0.985230  p :     2.859800
      px      :     0.892524
      py      :     0.982045
      dz2     :     0.029632  d :     0.094655
      dxz     :     0.014380
      dyz     :     0.007314
      dx2y2   :     0.016808
      dxy     :     0.026520
      f0      :     0.000549  f :     0.004703
      f+1     :     0.000519
      f-1     :     0.000588
      f+2     :     0.000695
      f-2     :     0.000380
      f+3     :     0.000852
      f-3     :     0.001119
  6 C s       :     3.231708  s :     3.231708
      pz      :     0.987115  p :     2.861856
      px      :     1.001664
      py      :     0.873077
      dz2     :     0.027911  d :     0.094284
      dxz     :     0.006005
      dyz     :     0.017061
      dx2y2   :     0.029763
      dxy     :     0.013544
      f0      :     0.000573  f :     0.004691
      f+1     :     0.000252
      f-1     :     0.000815
      f+2     :     0.000416
      f-2     :     0.000643
      f+3     :     0.000837
      f-3     :     0.001155
  7 C s       :     3.247393  s :     3.247393
      pz      :     1.030512  p :     2.859084
      px      :     0.878220
      py      :     0.950352
      dz2     :     0.019422  d :     0.093868
      dxz     :     0.014954
      dyz     :     0.017722
      dx2y2   :     0.019221
      dxy     :     0.022549
      f0      :     0.000624  f :     0.004694
      f+1     :     0.000509
      f-1     :     0.000396
      f+2     :     0.000500
      f-2     :     0.000363
      f+3     :     0.000966
      f-3     :     0.001336
  8 C s       :     3.250784  s :     3.250784
      pz      :     0.987101  p :     2.879053
      px      :     0.916201
      py      :     0.975751
      dz2     :     0.030177  d :     0.094256
      dxz     :     0.014780
      dyz     :     0.007454
      dx2y2   :     0.014567
      dxy     :     0.027278
      f0      :     0.000565  f :     0.004806
      f+1     :     0.000536
      f-1     :     0.000609
      f+2     :     0.000680
      f-2     :     0.000401
      f+3     :     0.000852
      f-3     :     0.001163
  9 H s       :     0.705749  s :     0.705749
      pz      :     0.026495  p :     0.076900
      px      :     0.030013
      py      :     0.020392
      dz2     :     0.001212  d :     0.009468
      dxz     :     0.003020
      dyz     :     0.000359
      dx2y2   :     0.002499
      dxy     :     0.002378
 10 H s       :     0.845613  s :     0.845613
      pz      :     0.018434  p :     0.036608
      px      :     0.009118
      py      :     0.009057
      dz2     :     0.000701  d :     0.002734
      dxz     :     0.000958
      dyz     :     0.000937
      dx2y2   :     0.000066
      dxy     :     0.000072
 11 H s       :     0.855478  s :     0.855478
      pz      :     0.009478  p :     0.031628
      px      :     0.009876
      py      :     0.012274
      dz2     :     0.000534  d :     0.002374
      dxz     :     0.000261
      dyz     :     0.000415
      dx2y2   :     0.000661
      dxy     :     0.000502
 12 H s       :     0.857104  s :     0.857104
      pz      :     0.014235  p :     0.032117
      px      :     0.008803
      py      :     0.009079
      dz2     :     0.000649  d :     0.002445
      dxz     :     0.000854
      dyz     :     0.000788
      dx2y2   :     0.000090
      dxy     :     0.000065
 13 H s       :     0.864527  s :     0.864527
      pz      :     0.014800  p :     0.031665
      px      :     0.008600
      py      :     0.008265
      dz2     :     0.000631  d :     0.002370
      dxz     :     0.000845
      dyz     :     0.000795
      dx2y2   :     0.000058
      dxy     :     0.000041
 14 H s       :     0.864493  s :     0.864493
      pz      :     0.008548  p :     0.031637
      px      :     0.010111
      py      :     0.012978
      dz2     :     0.000252  d :     0.002336
      dxz     :     0.000175
      dyz     :     0.000542
      dx2y2   :     0.000848
      dxy     :     0.000520
 15 H s       :     0.862629  s :     0.862629
      pz      :     0.008557  p :     0.031475
      px      :     0.013918
      py      :     0.009000
      dz2     :     0.000283  d :     0.002333
      dxz     :     0.000643
      dyz     :     0.000059
      dx2y2   :     0.000420
      dxy     :     0.000928
 16 H s       :     0.867352  s :     0.867352
      pz      :     0.014445  p :     0.031290
      px      :     0.008203
      py      :     0.008642
      dz2     :     0.000632  d :     0.002367
      dxz     :     0.000746
      dyz     :     0.000884
      dx2y2   :     0.000053
      dxy     :     0.000052
 17 H s       :     0.862104  s :     0.862104
      pz      :     0.013993  p :     0.031445
      px      :     0.008457
      py      :     0.008994
      dz2     :     0.000615  d :     0.002368
      dxz     :     0.000833
      dyz     :     0.000772
      dx2y2   :     0.000079
      dxy     :     0.000068
 18 H s       :     0.863920  s :     0.863920
      pz      :     0.009547  p :     0.031646
      px      :     0.009620
      py      :     0.012479
      dz2     :     0.000531  d :     0.002331
      dxz     :     0.000255
      dyz     :     0.000413
      dx2y2   :     0.000636
      dxy     :     0.000497
 19 H s       :     0.845713  s :     0.845713
      pz      :     0.013818  p :     0.030259
      px      :     0.008180
      py      :     0.008261
      dz2     :     0.000612  d :     0.002337
      dxz     :     0.000835
      dyz     :     0.000780
      dx2y2   :     0.000063
      dxy     :     0.000047
 20 H s       :     0.847037  s :     0.847037
      pz      :     0.008319  p :     0.031700
      px      :     0.010388
      py      :     0.012993
      dz2     :     0.000262  d :     0.002356
      dxz     :     0.000181
      dyz     :     0.000529
      dx2y2   :     0.000866
      dxy     :     0.000518


                     *******************************
                     * LOEWDIN POPULATION ANALYSIS *
                     *******************************

----------------------
LOEWDIN ATOMIC CHARGES
----------------------
   0 O :    0.094348
   1 C :   -0.421075
   2 O :    0.348413
   3 C :   -0.079412
   4 C :   -0.013005
   5 C :   -0.023974
   6 C :   -0.026950
   7 C :   -0.023566
   8 C :   -0.006506
   9 H :   -0.090326
  10 H :    0.042201
  11 H :    0.021153
  12 H :    0.024836
  13 H :    0.019983
  14 H :    0.015882
  15 H :    0.014767
  16 H :    0.019398
  17 H :    0.020824
  18 H :    0.016702
  19 H :    0.026776
  20 H :    0.019530

-------------------------------
LOEWDIN REDUCED ORBITAL CHARGES
-------------------------------
  0 O s       :     3.390492  s :     3.390492
      pz      :     1.386812  p :     4.442001
      px      :     1.585478
      py      :     1.469711
      dz2     :     0.009081  d :     0.066870
      dxz     :     0.010270
      dyz     :     0.019696
      dx2y2   :     0.013066
      dxy     :     0.014756
      f0      :     0.000534  f :     0.006288
      f+1     :     0.000306
      f-1     :     0.000998
      f+2     :     0.001328
      f-2     :     0.001420
      f+3     :     0.000792
      f-3     :     0.000910
  1 C s       :     2.749273  s :     2.749273
      pz      :     0.790560  p :     2.589208
      px      :     0.948853
      py      :     0.849795
      dz2     :     0.146265  d :     0.928051
      dxz     :     0.159346
      dyz     :     0.165794
      dx2y2   :     0.240649
      dxy     :     0.215997
      f0      :     0.012336  f :     0.154543
      f+1     :     0.016680
      f-1     :     0.017128
      f+2     :     0.025950
      f-2     :     0.023503
      f+3     :     0.020606
      f-3     :     0.038339
  2 O s       :     3.223523  s :     3.223523
      pz      :     1.562006  p :     4.352138
      px      :     1.274593
      py      :     1.515539
      dz2     :     0.008341  d :     0.070612
      dxz     :     0.011415
      dyz     :     0.010167
      dx2y2   :     0.021819
      dxy     :     0.018870
      f0      :     0.000347  f :     0.005315
      f+1     :     0.000396
      f-1     :     0.000456
      f+2     :     0.000932
      f-2     :     0.001097
      f+3     :     0.001108
      f-3     :     0.000979
  3 C s       :     2.682378  s :     2.682378
      pz      :     0.984760  p :     2.867448
      px      :     0.927813
      py      :     0.954874
      dz2     :     0.117942  d :     0.478288
      dxz     :     0.052633
      dyz     :     0.077490
      dx2y2   :     0.132579
      dxy     :     0.097643
      f0      :     0.005714  f :     0.051299
      f+1     :     0.005266
      f-1     :     0.006554
      f+2     :     0.007461
      f-2     :     0.007116
      f+3     :     0.007937
      f-3     :     0.011249
  4 C s       :     2.684267  s :     2.684267
      pz      :     1.000941  p :     2.888766
      px      :     0.939405
      py      :     0.948419
      dz2     :     0.086681  d :     0.399007
      dxz     :     0.059380
      dyz     :     0.063721
      dx2y2   :     0.087175
      dxy     :     0.102049
      f0      :     0.005474  f :     0.040966
      f+1     :     0.004897
      f-1     :     0.003271
      f+2     :     0.005685
      f-2     :     0.005971
      f+3     :     0.006646
      f-3     :     0.009021
  5 C s       :     2.689229  s :     2.689229
      pz      :     0.985416  p :     2.893085
      px      :     0.939700
      py      :     0.967969
      dz2     :     0.113538  d :     0.401070
      dxz     :     0.057684
      dyz     :     0.041739
      dx2y2   :     0.084657
      dxy     :     0.103453
      f0      :     0.005156  f :     0.040589
      f+1     :     0.004945
      f-1     :     0.004685
      f+2     :     0.006962
      f-2     :     0.005098
      f+3     :     0.006460
      f-3     :     0.007284
  6 C s       :     2.690161  s :     2.690161
      pz      :     0.986745  p :     2.894702
      px      :     0.972556
      py      :     0.935401
      dz2     :     0.110088  d :     0.401489
      dxz     :     0.029584
      dyz     :     0.073189
      dx2y2   :     0.112093
      dxy     :     0.076534
      f0      :     0.005363  f :     0.040598
      f+1     :     0.003001
      f-1     :     0.006224
      f+2     :     0.005309
      f-2     :     0.006770
      f+3     :     0.006134
      f-3     :     0.007797
  7 C s       :     2.689590  s :     2.689590
      pz      :     0.998008  p :     2.892137
      px      :     0.934383
      py      :     0.959746
      dz2     :     0.086471  d :     0.401238
      dxz     :     0.057762
      dyz     :     0.066838
      dx2y2   :     0.092915
      dxy     :     0.097251
      f0      :     0.005458  f :     0.040601
      f+1     :     0.004797
      f-1     :     0.003256
      f+2     :     0.005886
      f-2     :     0.005718
      f+3     :     0.006374
      f-3     :     0.009111
  8 C s       :     2.687334  s :     2.687334
      pz      :     0.982009  p :     2.879943
      px      :     0.944165
      py      :     0.953769
      dz2     :     0.111129  d :     0.398886
      dxz     :     0.057920
      dyz     :     0.042966
      dx2y2   :     0.080958
      dxy     :     0.105913
      f0      :     0.005023  f :     0.040343
      f+1     :     0.004950
      f-1     :     0.004604
      f+2     :     0.006786
      f-2     :     0.005303
      f+3     :     0.006385
      f-3     :     0.007293
  9 H s       :     0.671915  s :     0.671915
      pz      :     0.098793  p :     0.322139
      px      :     0.141348
      py      :     0.081998
      dz2     :     0.012227  d :     0.096272
      dxz     :     0.029960
      dyz     :     0.003620
      dx2y2   :     0.021906
      dxy     :     0.028559
 10 H s       :     0.777655  s :     0.777655
      pz      :     0.071231  p :     0.148995
      px      :     0.036192
      py      :     0.041573
      dz2     :     0.010983  d :     0.031148
      dxz     :     0.009207
      dyz     :     0.009867
      dx2y2   :     0.000540
      dxy     :     0.000551
 11 H s       :     0.800349  s :     0.800349
      pz      :     0.047182  p :     0.148108
      px      :     0.044732
      py      :     0.056194
      dz2     :     0.006528  d :     0.030389
      dxz     :     0.003335
      dyz     :     0.006643
      dx2y2   :     0.007228
      dxy     :     0.006656
 12 H s       :     0.796643  s :     0.796643
      pz      :     0.069542  p :     0.147927
      px      :     0.039124
      py      :     0.039261
      dz2     :     0.010346  d :     0.030593
      dxz     :     0.009208
      dyz     :     0.009774
      dx2y2   :     0.000738
      dxy     :     0.000527
 13 H s       :     0.802417  s :     0.802417
      pz      :     0.068783  p :     0.147480
      px      :     0.039104
      py      :     0.039593
      dz2     :     0.010450  d :     0.030120
      dxz     :     0.009341
      dyz     :     0.009559
      dx2y2   :     0.000463
      dxy     :     0.000306
 14 H s       :     0.804795  s :     0.804795
      pz      :     0.041395  p :     0.149065
      px      :     0.047042
      py      :     0.060627
      dz2     :     0.003736  d :     0.030258
      dxz     :     0.002325
      dyz     :     0.007121
      dx2y2   :     0.009115
      dxy     :     0.007961
 15 H s       :     0.805974  s :     0.805974
      pz      :     0.041848  p :     0.149059
      px      :     0.066400
      py      :     0.040811
      dz2     :     0.004039  d :     0.030199
      dxz     :     0.008763
      dyz     :     0.000647
      dx2y2   :     0.007510
      dxy     :     0.009241
 16 H s       :     0.802872  s :     0.802872
      pz      :     0.068791  p :     0.147541
      px      :     0.038370
      py      :     0.040380
      dz2     :     0.010392  d :     0.030188
      dxz     :     0.009410
      dyz     :     0.009546
      dx2y2   :     0.000422
      dxy     :     0.000418
 17 H s       :     0.801705  s :     0.801705
      pz      :     0.068375  p :     0.147291
      px      :     0.038852
      py      :     0.040064
      dz2     :     0.010102  d :     0.030180
      dxz     :     0.009082
      dyz     :     0.009757
      dx2y2   :     0.000670
      dxy     :     0.000570
 18 H s       :     0.804171  s :     0.804171
      pz      :     0.047395  p :     0.148899
      px      :     0.044453
      py      :     0.057051
      dz2     :     0.006610  d :     0.030228
      dxz     :     0.003332
      dyz     :     0.006634
      dx2y2   :     0.007080
      dxy     :     0.006573
 19 H s       :     0.796354  s :     0.796354
      pz      :     0.069345  p :     0.146638
      px      :     0.038735
      py      :     0.038558
      dz2     :     0.010566  d :     0.030232
      dxz     :     0.009444
      dyz     :     0.009377
      dx2y2   :     0.000489
      dxy     :     0.000355
 20 H s       :     0.800880  s :     0.800880
      pz      :     0.041069  p :     0.149136
      px      :     0.048253
      py      :     0.059815
      dz2     :     0.003765  d :     0.030455
      dxz     :     0.002395
      dyz     :     0.007065
      dx2y2   :     0.009211
      dxy     :     0.008020


                      *****************************
                      * MAYER POPULATION ANALYSIS *
                      *****************************

  NA   - Mulliken gross atomic population
  ZA   - Total nuclear charge
  QA   - Mulliken gross atomic charge
  VA   - Mayer's total valence
  BVA  - Mayer's bonded valence
  FA   - Mayer's free valence

  ATOM       NA         ZA         QA         VA         BVA        FA
  0 O      8.3492     8.0000    -0.3492     2.1476     2.1476    -0.0000
  1 C      5.7082     6.0000     0.2918     4.3314     4.3314     0.0000
  2 O      8.2730     8.0000    -0.2730     2.1699     2.1699    -0.0000
  3 C      6.0222     6.0000    -0.0222     3.6380     3.6380     0.0000
  4 C      6.2134     6.0000    -0.2134     3.8057     3.8057     0.0000
  5 C      6.2015     6.0000    -0.2015     3.7958     3.7958     0.0000
  6 C      6.1925     6.0000    -0.1925     3.7802     3.7802     0.0000
  7 C      6.2050     6.0000    -0.2050     3.7882     3.7882     0.0000
  8 C      6.2289     6.0000    -0.2289     3.7628     3.7628     0.0000
  9 H      0.7921     1.0000     0.2079     1.0378     1.0378    -0.0000
 10 H      0.8850     1.0000     0.1150     1.0163     1.0163    -0.0000
 11 H      0.8895     1.0000     0.1105     1.0019     1.0019     0.0000
 12 H      0.8917     1.0000     0.1083     1.0094     1.0094     0.0000
 13 H      0.8986     1.0000     0.1014     0.9953     0.9953     0.0000
 14 H      0.8985     1.0000     0.1015     0.9972     0.9972    -0.0000
 15 H      0.8964     1.0000     0.1036     0.9968     0.9968    -0.0000
 16 H      0.9010     1.0000     0.0990     0.9960     0.9960     0.0000
 17 H      0.8959     1.0000     0.1041     0.9948     0.9948    -0.0000
 18 H      0.8979     1.0000     0.1021     0.9974     0.9974     0.0000
 19 H      0.8783     1.0000     0.1217     0.9953     0.9953    -0.0000
 20 H      0.8811     1.0000     0.1189     1.0108     1.0108     0.0000

  Mayer bond orders larger than 0.100000
B(  0-O ,  1-C ) :   2.0982 B(  1-C ,  2-O ) :   1.2263 B(  1-C ,  3-C ) :   0.9445 
B(  2-O ,  9-H ) :   0.9646 B(  3-C ,  4-C ) :   0.9192 B(  3-C ,  8-C ) :   0.8963 
B(  3-C , 10-H ) :   0.9829 B(  4-C ,  5-C ) :   0.8994 B(  4-C , 11-H ) :   1.0024 
B(  4-C , 12-H ) :   0.9964 B(  5-C ,  6-C ) :   0.9021 B(  5-C , 13-H ) :   1.0073 
B(  5-C , 14-H ) :   1.0074 B(  6-C ,  7-C ) :   0.9016 B(  6-C , 15-H ) :   1.0043 
B(  6-C , 16-H ) :   1.0047 B(  7-C ,  8-C ) :   0.8982 B(  7-C , 17-H ) :   1.0073 
B(  7-C , 18-H ) :   1.0054 B(  8-C , 19-H ) :   0.9965 B(  8-C , 20-H ) :   0.9964 


-------
TIMINGS
-------

Total SCF time: 0 days 0 hours 1 min 0 sec 

Total time                  ....      60.058 sec
Sum of individual times     ....      58.276 sec  ( 97.0%)

Fock matrix formation       ....      56.292 sec  ( 93.7%)
  Split-RI-J                ....       2.283 sec  (  4.1% of F)
  Chain of spheres X        ....      42.792 sec  ( 76.0% of F)
  XC integration            ....       7.027 sec  ( 12.5% of F)
    Basis function eval.    ....       0.871 sec  ( 12.4% of XC)
    Density eval.           ....       2.531 sec  ( 36.0% of XC)
    XC-Functional eval.     ....       0.267 sec  (  3.8% of XC)
    XC-Potential eval.      ....       2.839 sec  ( 40.4% of XC)
Diagonalization             ....       0.289 sec  (  0.5%)
Density matrix formation    ....       0.019 sec  (  0.0%)
Population analysis         ....       0.040 sec  (  0.1%)
Initial guess               ....       0.237 sec  (  0.4%)
Orbital Transformation      ....       0.000 sec  (  0.0%)
Orbital Orthonormalization  ....       0.000 sec  (  0.0%)
DIIS solution               ....       0.144 sec  (  0.2%)
SOSCF solution              ....       0.121 sec  (  0.2%)
Grid generation             ....       1.135 sec  (  1.9%)

Maximum memory used throughout the entire SCF-calculation: 95.6 MB

-------------------------   --------------------
FINAL SINGLE POINT ENERGY      -424.461079980103
-------------------------   --------------------


                            ***************************************
                            *     ORCA property calculations      *
                            ***************************************

                                    ---------------------
                                    Active property flags
                                    ---------------------
   (+) Dipole Moment


------------------------------------------------------------------------------
                       ORCA ELECTRIC PROPERTIES CALCULATION
------------------------------------------------------------------------------

Dipole Moment Calculation                       ... on
Quadrupole Moment Calculation                   ... off
Polarizability Calculation                      ... off
GBWName                                         ... /tmp/265186/Ac7_rdkit_conf_2_spc.gbw
Electron density                                ... /tmp/265186/Ac7_rdkit_conf_2_spc.scfp
The origin for moment calculation is the CENTER OF MASS  = (-0.157477, -0.016501  0.006535)

-------------
DIPOLE MOMENT
-------------
                                X             Y             Z
Electronic contribution:    -10.59657      -0.55048       0.05582
Nuclear contribution   :     11.02342       1.15505      -0.45744
                        -----------------------------------------
Total Dipole Moment    :      0.42685       0.60457      -0.40162
                        -----------------------------------------
Magnitude (a.u.)       :      0.84202
Magnitude (Debye)      :      2.14025



--------------------
Rotational spectrum 
--------------------
 
Rotational constants in cm-1:     0.107098     0.036261     0.029972 
Rotational constants in MHz :  3210.702742  1087.077735   898.552626 

 Dipole components along the rotational axes: 
x,y,z [a.u.] :     0.432709     0.610841    -0.385536 
x,y,z [Debye]:     1.099858     1.552634    -0.979954 

 

Timings for individual modules:

Sum of individual times         ...       61.548 sec (=   1.026 min)
GTO integral calculation        ...        1.236 sec (=   0.021 min)   2.0 %
SCF iterations                  ...       60.312 sec (=   1.005 min)  98.0 %
                             ****ORCA TERMINATED NORMALLY****
TOTAL RUN TIME: 0 days 0 hours 1 minutes 2 seconds 182 msec
