Job Start Time: Thu May  9 18:54:35 MDT 2024
SLURM Job ID: 265187
SLURM Job Name: Ac7_rdkit_conf_3_spc
SLURM Job Nodes: node03
SLURM Memory / CPU: 8000

                                 *****************
                                 * O   R   C   A *
                                 *****************

                                            #,                                       
                                            ###                                      
                                            ####                                     
                                            #####                                    
                                            ######                                   
                                           ########,                                 
                                     ,,################,,,,,                         
                               ,,#################################,,                 
                          ,,##########################################,,             
                       ,#########################################, ''#####,          
                    ,#############################################,,   '####,        
                  ,##################################################,,,,####,       
                ,###########''''           ''''###############################       
              ,#####''   ,,,,##########,,,,          '''####'''          '####       
            ,##' ,,,,###########################,,,                        '##       
           ' ,,###''''                  '''############,,,                           
         ,,##''                                '''############,,,,        ,,,,,,###''
      ,#''                                            '''#######################'''  
     '                                                          ''''####''''         
             ,#######,   #######,   ,#######,      ##                                
            ,#'     '#,  ##    ##  ,#'     '#,    #''#        ######   ,####,        
            ##       ##  ##   ,#'  ##            #'  '#       #        #'  '#        
            ##       ##  #######   ##           ,######,      #####,   #    #        
            '#,     ,#'  ##    ##  '#,     ,#' ,#      #,         ##   #,  ,#        
             '#######'   ##     ##  '#######'  #'      '#     #####' # '####'        



                  #######################################################
                  #                        -***-                        #
                  #          Department of theory and spectroscopy      #
                  #    Directorship and core code : Frank Neese         #
                  #        Max Planck Institute fuer Kohlenforschung    #
                  #                Kaiser Wilhelm Platz 1               #
                  #                 D-45470 Muelheim/Ruhr               #
                  #                      Germany                        #
                  #                                                     #
                  #                  All rights reserved                #
                  #                        -***-                        #
                  #######################################################


                         Program Version 5.0.3 -  RELEASE  -


 With contributions from (in alphabetic order):
   Daniel Aravena         : Magnetic Suceptibility
   Michael Atanasov       : Ab Initio Ligand Field Theory (pilot matlab implementation)
   Alexander A. Auer      : GIAO ZORA, VPT2 properties, NMR spectrum
   Ute Becker             : Parallelization
   Giovanni Bistoni       : ED, misc. LED, open-shell LED, HFLD
   Martin Brehm           : Molecular dynamics
   Dmytro Bykov           : SCF Hessian
   Vijay G. Chilkuri      : MRCI spin determinant printing, contributions to CSF-ICE
   Dipayan Datta          : RHF DLPNO-CCSD density
   Achintya Kumar Dutta   : EOM-CC, STEOM-CC
   Dmitry Ganyushin       : Spin-Orbit,Spin-Spin,Magnetic field MRCI
   Miquel Garcia          : C-PCM and meta-GGA Hessian, CC/C-PCM, Gaussian charge scheme
   Yang Guo               : DLPNO-NEVPT2, F12-NEVPT2, CIM, IAO-localization
   Andreas Hansen         : Spin unrestricted coupled pair/coupled cluster methods
   Benjamin Helmich-Paris : MC-RPA, TRAH-SCF, COSX integrals
   Lee Huntington         : MR-EOM, pCC
   Robert Izsak           : Overlap fitted RIJCOSX, COSX-SCS-MP3, EOM
   Marcus Kettner         : VPT2
   Christian Kollmar      : KDIIS, OOCD, Brueckner-CCSD(T), CCSD density, CASPT2, CASPT2-K
   Simone Kossmann        : Meta GGA functionals, TD-DFT gradient, OOMP2, MP2 Hessian
   Martin Krupicka        : Initial AUTO-CI
   Lucas Lang             : DCDCAS
   Marvin Lechner         : AUTO-CI (C++ implementation), FIC-MRCC
   Dagmar Lenk            : GEPOL surface, SMD
   Dimitrios Liakos       : Extrapolation schemes; Compound Job, initial MDCI parallelization
   Dimitrios Manganas     : Further ROCIS development; embedding schemes
   Dimitrios Pantazis     : SARC Basis sets
   Anastasios Papadopoulos: AUTO-CI, single reference methods and gradients
   Taras Petrenko         : DFT Hessian,TD-DFT gradient, ASA, ECA, R-Raman, ABS, FL, XAS/XES, NRVS
   Peter Pinski           : DLPNO-MP2, DLPNO-MP2 Gradient
   Christoph Reimann      : Effective Core Potentials
   Marius Retegan         : Local ZFS, SOC
   Christoph Riplinger    : Optimizer, TS searches, QM/MM, DLPNO-CCSD(T), (RO)-DLPNO pert. Triples
   Tobias Risthaus        : Range-separated hybrids, TD-DFT gradient, RPA, STAB
   Michael Roemelt        : Original ROCIS implementation
   Masaaki Saitow         : Open-shell DLPNO-CCSD energy and density
   Barbara Sandhoefer     : DKH picture change effects
   Avijit Sen             : IP-ROCIS
   Kantharuban Sivalingam : CASSCF convergence, NEVPT2, FIC-MRCI
   Bernardo de Souza      : ESD, SOC TD-DFT
   Georgi Stoychev        : AutoAux, RI-MP2 NMR, DLPNO-MP2 response
   Willem Van den Heuvel  : Paramagnetic NMR
   Boris Wezisla          : Elementary symmetry handling
   Frank Wennmohs         : Technical directorship


 We gratefully acknowledge several colleagues who have allowed us to
 interface, adapt or use parts of their codes:
   Stefan Grimme, W. Hujo, H. Kruse, P. Pracht,  : VdW corrections, initial TS optimization,
                  C. Bannwarth, S. Ehlert          DFT functionals, gCP, sTDA/sTD-DF
   Ed Valeev, F. Pavosevic, A. Kumar             : LibInt (2-el integral package), F12 methods
   Garnet Chan, S. Sharma, J. Yang, R. Olivares  : DMRG
   Ulf Ekstrom                                   : XCFun DFT Library
   Mihaly Kallay                                 : mrcc  (arbitrary order and MRCC methods)
   Jiri Pittner, Ondrej Demel                    : Mk-CCSD
   Frank Weinhold                                : gennbo (NPA and NBO analysis)
   Christopher J. Cramer and Donald G. Truhlar   : smd solvation model
   Lars Goerigk                                  : TD-DFT with DH, B97 family of functionals
   V. Asgeirsson, H. Jonsson                     : NEB implementation
   FAccTs GmbH                                   : IRC, NEB, NEB-TS, DLPNO-Multilevel, CI-OPT
                                                   MM, QMMM, 2- and 3-layer-ONIOM, Crystal-QMMM,
                                                   LR-CPCM, SF, NACMEs, symmetry and pop. for TD-DFT,
                                                   nearIR, NL-DFT gradient (VV10), updates on ESD,
                                                   ML-optimized integration grids
   S Lehtola, MJT Oliveira, MAL Marques          : LibXC Library
   Liviu Ungur et al                             : ANISO software


 Your calculation uses the libint2 library for the computation of 2-el integrals
 For citations please refer to: http://libint.valeyev.net

 Your ORCA version has been built with support for libXC version: 5.1.0
 For citations please refer to: https://tddft.org/programs/libxc/

 This ORCA versions uses:
   CBLAS   interface :  Fast vector & matrix operations
   LAPACKE interface :  Fast linear algebra routines
   SCALAPACK package :  Parallel linear algebra routines
   Shared memory     :  Shared parallel matrices
   BLAS/LAPACK       :  OpenBLAS 0.3.15  USE64BITINT DYNAMIC_ARCH NO_AFFINITY Zen SINGLE_THREADED
        Core in use  :  Zen
   Copyright (c) 2011-2014, The OpenBLAS Project


Your calculation utilizes the DFT-NL dispersion correction.
Cite in your paper:
Vydrov, O. A.; Van Voorhis, T. J. Chem. Phys. 2010, 133, 244103
Hujo, W.; Grimme, S. J. Chem. Theory Comput. 2011, 7, 3866 
   

Your calculation utilizes the SMD solvation module
Please cite in your paper:
A.V. Marenich, C.J. Cramer, D.G. Truhlar J. Phys. Chem. B, 113, (2009), 6378 

================================================================================

----- Orbital basis set information -----
Your calculation utilizes the basis: def2-TZVPP
   F. Weigend and R. Ahlrichs, Phys. Chem. Chem. Phys. 7, 3297 (2005).

----- AuxJ basis set information -----
Your calculation utilizes the auxiliary basis: def2/J
   F. Weigend, Phys. Chem. Chem. Phys. 8, 1057 (2006).

================================================================================
                                        WARNINGS
                       Please study these warnings very carefully!
================================================================================

Using LibXC functional ID 531 : wB97M-V exchange-correlation functional
[ 1]  N. Mardirossian and M. Head-Gordon, J. Chem. Phys. 144, 214110 (2016)
Using LibXC functional ID 531 : wB97M-V exchange-correlation functional
[ 1]  N. Mardirossian and M. Head-Gordon, J. Chem. Phys. 144, 214110 (2016)

WARNING: B97M-V or wB97M-V functional requested.
  ===> : libXC variant has now been activated.
         Any manually given DFX/HFX/RangeSep scaling parameters are IGNORED!

Your calculation utilizes LibXC
 by S Lehtola, C Steigemann, MJT Oliveira & MAL Marques
Please cite in your paper:
 S Lehtola, C Steigemann, MJT Oliveira & MAL Marques, SoftwareX, 7, (2018), 1.
   


INFO   : the flag for use of the SHARK integral package has been found!

================================================================================
                                       INPUT FILE
================================================================================
NAME = /tmp/265187/Ac7_rdkit_conf_3_spc.inp
|  1> # Ac7_rdkit_conf_3_spc
|  2> %maxcore 16000
|  3> %pal nprocs 8 end
|  4> ! wB97M-V def2-TZVPP def2/J RIJCOSX
|  5> %cpcm
|  6> smd true
|  7> SMDsolvent "ETHYL ETHANOATE"
|  8> end
|  9> * xyz 0 1
| 10>  O  -2.71522500  -0.00006000  -0.95020300
| 11>  C  -1.83475200  -0.00000300  -0.13536900
| 12>  O  -2.09007000   0.00006800   1.18999800
| 13>  C  -0.35920900  -0.00000700  -0.43398800
| 14>  C   0.31895300   1.26088800   0.11816600
| 15>  C   1.80812900   1.25891500  -0.21738700
| 16>  C   2.49184900   0.00000200   0.31086100
| 17>  C   1.80812200  -1.25893100  -0.21732700
| 18>  C   0.31894600  -1.26088100   0.11822500
| 19>  H  -3.05251800   0.00006000   1.29179900
| 20>  H  -0.28208400  -0.00003400  -1.52376700
| 21>  H  -0.16440300   2.15177900  -0.28854800
| 22>  H   0.18496000   1.28503300   1.20324500
| 23>  H   2.28180800   2.15133800   0.19554600
| 24>  H   1.93250500   1.30818700  -1.30425500
| 25>  H   2.44654100   0.00002800   1.40508400
| 26>  H   3.54848900  -0.00000700   0.03714300
| 27>  H   2.28179600  -2.15133700   0.19564700
| 28>  H   1.93249800  -1.30825500  -1.30419300
| 29>  H  -0.16441500  -2.15178700  -0.28844900
| 30>  H   0.18495300  -1.28497400   1.20330500
| 31> **                         ****END OF INPUT****
================================================================================

                       ****************************
                       * Single Point Calculation *
                       ****************************

---------------------------------
CARTESIAN COORDINATES (ANGSTROEM)
---------------------------------
  O     -2.715225   -0.000060   -0.950203
  C     -1.834752   -0.000003   -0.135369
  O     -2.090070    0.000068    1.189998
  C     -0.359209   -0.000007   -0.433988
  C      0.318953    1.260888    0.118166
  C      1.808129    1.258915   -0.217387
  C      2.491849    0.000002    0.310861
  C      1.808122   -1.258931   -0.217327
  C      0.318946   -1.260881    0.118225
  H     -3.052518    0.000060    1.291799
  H     -0.282084   -0.000034   -1.523767
  H     -0.164403    2.151779   -0.288548
  H      0.184960    1.285033    1.203245
  H      2.281808    2.151338    0.195546
  H      1.932505    1.308187   -1.304255
  H      2.446541    0.000028    1.405084
  H      3.548489   -0.000007    0.037143
  H      2.281796   -2.151337    0.195647
  H      1.932498   -1.308255   -1.304193
  H     -0.164415   -2.151787   -0.288449
  H      0.184953   -1.284974    1.203305

----------------------------
CARTESIAN COORDINATES (A.U.)
----------------------------
  NO LB      ZA    FRAG     MASS         X           Y           Z
   0 O     8.0000    0    15.999   -5.131032   -0.000113   -1.795623
   1 C     6.0000    0    12.011   -3.467179   -0.000006   -0.255810
   2 O     8.0000    0    15.999   -3.949660    0.000129    2.248770
   3 C     6.0000    0    12.011   -0.678807   -0.000013   -0.820118
   4 C     6.0000    0    12.011    0.602734    2.382733    0.223301
   5 C     6.0000    0    12.011    3.416869    2.379005   -0.410802
   6 C     6.0000    0    12.011    4.708912    0.000004    0.587442
   7 C     6.0000    0    12.011    3.416855   -2.379035   -0.410689
   8 C     6.0000    0    12.011    0.602721   -2.382720    0.223413
   9 H     1.0000    0     1.008   -5.768423    0.000113    2.441146
  10 H     1.0000    0     1.008   -0.533062   -0.000064   -2.879502
  11 H     1.0000    0     1.008   -0.310677    4.066273   -0.545277
  12 H     1.0000    0     1.008    0.349524    2.428360    2.273804
  13 H     1.0000    0     1.008    4.311992    4.065440    0.369528
  14 H     1.0000    0     1.008    3.651905    2.472115   -2.464685
  15 H     1.0000    0     1.008    4.623292    0.000053    2.655224
  16 H     1.0000    0     1.008    6.705672   -0.000013    0.070190
  17 H     1.0000    0     1.008    4.311970   -4.065438    0.369719
  18 H     1.0000    0     1.008    3.651892   -2.472244   -2.464568
  19 H     1.0000    0     1.008   -0.310699   -4.066288   -0.545090
  20 H     1.0000    0     1.008    0.349511   -2.428249    2.273917

--------------------------------
INTERNAL COORDINATES (ANGSTROEM)
--------------------------------
 O      0   0   0     0.000000000000     0.00000000     0.00000000
 C      1   0   0     1.199661266581     0.00000000     0.00000000
 O      2   1   0     1.349735148410   121.87886851     0.00000000
 C      2   1   3     1.505456891454   125.77633440   179.99970684
 C      4   2   1     1.534481651563   111.21013620   118.18985577
 C      5   4   2     1.526513959161   110.54725904   181.14622299
 C      6   5   4     1.526886023734   111.21394476   303.52425899
 C      7   6   5     1.526884891654   111.07645127    55.72667047
 C      8   7   6     1.526513709791   111.21402209   304.27333409
 H      3   2   1     0.967816922961   106.94175291     0.00000000
 H      4   2   1     1.092504707173   105.48908282     0.00000000
 H      5   4   2     1.092124569091   109.91942372   303.45438213
 H      5   4   2     1.093587463953   108.72482471    60.62816549
 H      6   5   4     1.091468858218   109.82500565   180.99052649
 H      6   5   4     1.095070394442   109.20274520    64.16100743
 H      7   6   5     1.095160622589   109.09424868   295.43520525
 H      7   6   5     1.091517124559   110.28737546   178.31711805
 H      8   7   6     1.091468300863   110.42113812   182.08422226
 H      8   7   6     1.095070750366   109.24519851    64.88506639
 H      9   8   7     1.092124122723   110.54554070   178.41625378
 H      9   8   7     1.093587309316   109.73456943   296.56252376

---------------------------
INTERNAL COORDINATES (A.U.)
---------------------------
 O      0   0   0     0.000000000000     0.00000000     0.00000000
 C      1   0   0     2.267031247311     0.00000000     0.00000000
 O      2   1   0     2.550629783823   121.87886851     0.00000000
 C      2   1   3     2.844901231272   125.77633440   179.99970684
 C      4   2   1     2.899750078982   111.21013620   118.18985577
 C      5   4   2     2.884693322423   110.54725904   181.14622299
 C      6   5   4     2.885396422568   111.21394476   303.52425899
 C      7   6   5     2.885394283249   111.07645127    55.72667047
 C      8   7   6     2.884692851181   111.21402209   304.27333409
 H      3   2   1     1.828908932170   106.94175291     0.00000000
 H      4   2   1     2.064534696577   105.48908282     0.00000000
 H      5   4   2     2.063816339709   109.91942372   303.45438213
 H      5   4   2     2.066580810361   108.72482471    60.62816549
 H      6   5   4     2.062577225735   109.82500565   180.99052649
 H      6   5   4     2.069383142861   109.20274520    64.16100743
 H      7   6   5     2.069553649347   109.09424868   295.43520525
 H      7   6   5     2.062668435901   110.28737546   178.31711805
 H      8   7   6     2.062576172487   110.42113812   182.08422226
 H      8   7   6     2.069383815460   109.24519851    64.88506639
 H      9   8   7     2.063815496195   110.54554070   178.41625378
 H      9   8   7     2.066580518140   109.73456943   296.56252376

---------------------
BASIS SET INFORMATION
---------------------
There are 3 groups of distinct atoms

 Group   1 Type O   : 11s6p2d1f contracted to 5s3p2d1f pattern {62111/411/11/1}
 Group   2 Type C   : 11s6p2d1f contracted to 5s3p2d1f pattern {62111/411/11/1}
 Group   3 Type H   : 5s2p1d contracted to 3s2p1d pattern {311/11/1}

Atom   0O    basis set group =>   1
Atom   1C    basis set group =>   2
Atom   2O    basis set group =>   1
Atom   3C    basis set group =>   2
Atom   4C    basis set group =>   2
Atom   5C    basis set group =>   2
Atom   6C    basis set group =>   2
Atom   7C    basis set group =>   2
Atom   8C    basis set group =>   2
Atom   9H    basis set group =>   3
Atom  10H    basis set group =>   3
Atom  11H    basis set group =>   3
Atom  12H    basis set group =>   3
Atom  13H    basis set group =>   3
Atom  14H    basis set group =>   3
Atom  15H    basis set group =>   3
Atom  16H    basis set group =>   3
Atom  17H    basis set group =>   3
Atom  18H    basis set group =>   3
Atom  19H    basis set group =>   3
Atom  20H    basis set group =>   3
---------------------------------
AUXILIARY/J BASIS SET INFORMATION
---------------------------------
There are 3 groups of distinct atoms

 Group   1 Type O   : 12s5p4d2f1g contracted to 6s4p3d1f1g pattern {711111/2111/211/2/1}
 Group   2 Type C   : 12s5p4d2f1g contracted to 6s4p3d1f1g pattern {711111/2111/211/2/1}
 Group   3 Type H   : 5s2p1d contracted to 3s1p1d pattern {311/2/1}

Atom   0O    basis set group =>   1
Atom   1C    basis set group =>   2
Atom   2O    basis set group =>   1
Atom   3C    basis set group =>   2
Atom   4C    basis set group =>   2
Atom   5C    basis set group =>   2
Atom   6C    basis set group =>   2
Atom   7C    basis set group =>   2
Atom   8C    basis set group =>   2
Atom   9H    basis set group =>   3
Atom  10H    basis set group =>   3
Atom  11H    basis set group =>   3
Atom  12H    basis set group =>   3
Atom  13H    basis set group =>   3
Atom  14H    basis set group =>   3
Atom  15H    basis set group =>   3
Atom  16H    basis set group =>   3
Atom  17H    basis set group =>   3
Atom  18H    basis set group =>   3
Atom  19H    basis set group =>   3
Atom  20H    basis set group =>   3


           ************************************************************
           *        Program running with 8 parallel MPI-processes     *
           *              working on a common directory               *
           ************************************************************
------------------------------------------------------------------------------
                           ORCA GTO INTEGRAL CALCULATION
                           -- RI-GTO INTEGRALS CHOSEN --
------------------------------------------------------------------------------
------------------------------------------------------------------------------
                   ___                                                        
                  /   \      - P O W E R E D   B Y -                         
                 /     \                                                     
                 |  |  |   _    _      __       _____    __    __             
                 |  |  |  | |  | |    /  \     |  _  \  |  |  /  |          
                  \  \/   | |  | |   /    \    | | | |  |  | /  /          
                 / \  \   | |__| |  /  /\  \   | |_| |  |  |/  /          
                |  |  |   |  __  | /  /__\  \  |    /   |      \           
                |  |  |   | |  | | |   __   |  |    \   |  |\   \          
                \     /   | |  | | |  |  |  |  | |\  \  |  | \   \       
                 \___/    |_|  |_| |__|  |__|  |_| \__\ |__|  \__/        
                                                                              
                      - O R C A' S   B I G   F R I E N D -                    
                                      &                                       
                       - I N T E G R A L  F E E D E R -                       
                                                                              
 v1 FN, 2020, v2 2021                                                         
------------------------------------------------------------------------------


Reading SHARK input file /tmp/265187/Ac7_rdkit_conf_3_spc.SHARKINP.tmp ... ok
----------------------
SHARK INTEGRAL PACKAGE
----------------------

Number of atoms                             ...     21
Number of basis functions                   ...    447
Number of shells                            ...    171
Maximum angular momentum                    ...      3
Integral batch strategy                     ... SHARK/LIBINT Hybrid
RI-J (if used) integral strategy            ... SPLIT-RIJ (Revised 2003 algorithm where possible)
Printlevel                                  ...      1
Contraction scheme used                     ... SEGMENTED contraction
Coulomb Range Separation                    ... NOT USED
Exchange Range Separation                   ... Long Range
   Mu parameter                             ...  0.300000
   Scaling (regular/separated)              ...  0.150000  0.850000
Finite Nucleus Model                        ... NOT USED
Auxiliary Coulomb fitting basis             ... AVAILABLE
   # of basis functions in Aux-J            ...    573
   # of shells in Aux-J                     ...    195
   Maximum angular momentum in Aux-J        ...      4
Auxiliary J/K fitting basis                 ... NOT available
Auxiliary Correlation fitting basis         ... NOT available
Auxiliary 'external' fitting basis          ... NOT available
Integral threshold                          ...     1.000000e-10
Primitive cut-off                           ...     1.000000e-11
Primitive pair pre-selection threshold      ...     1.000000e-11

Calculating pre-screening integrals         ... done (  0.0 sec) Dimension = 171
Organizing shell pair data                  ... done (  0.7 sec)
Shell pair information
Total number of shell pairs                 ...     14706
Shell pairs after pre-screening             ...     13042
Total number of primitive shell pairs       ...     38460
Primitive shell pairs kept                  ...     26204
          la=0 lb=0:   2895 shell pairs
          la=1 lb=0:   3717 shell pairs
          la=1 lb=1:   1228 shell pairs
          la=2 lb=0:   2098 shell pairs
          la=2 lb=1:   1354 shell pairs
          la=2 lb=2:    402 shell pairs
          la=3 lb=0:    648 shell pairs
          la=3 lb=1:    420 shell pairs
          la=3 lb=2:    239 shell pairs
          la=3 lb=3:     41 shell pairs

Calculating one electron integrals          ... done (  0.0 sec)
Calculating RI/J V-Matrix + Cholesky decomp.... done (  0.0 sec)
Calculating Nuclear repulsion               ... done (  0.0 sec) ENN=    476.831087771698 Eh

SHARK setup successfully completed in   0.9 seconds

Maximum memory used throughout the entire GTOINT-calculation: 25.5 MB


           ************************************************************
           *        Program running with 8 parallel MPI-processes     *
           *              working on a common directory               *
           ************************************************************
-------------------------------------------------------------------------------
                                 ORCA SCF
-------------------------------------------------------------------------------

------------
SCF SETTINGS
------------
Hamiltonian:
 Density Functional     Method          .... DFT(GTOs)
  Functional kind                       .... Exchange-Correlation
  Functional name                       .... wB97M-V exchange-correlation functional
  Functional family                     .... Hybrid MGGA
  Functional refs                              
    [ 0] N. Mardirossian and M. Head-Gordon, J. Chem. Phys. 144, 214110 (2016)
  Fraction of HF Exchange (short range) .... 0.1500
  Fraction of HF Exchange (long range)  .... 1.0000
  Range separation parameter mu         .... 0.3000
  Functional external parameters         .... 0
   Density functional embedding theory  .... OFF
 Long-range corrected/Screened/Range-Separated Hybrid DFT is turned on
   Amount of maximum screened exact exchange              ....  0.850000
   Range separation parameter mu (erf(mu*r12)/r12)        ....  0.300000
   NL short-range parameter             ....  6.000000
   NL long-range parameter              ....  0.010000
 RI-approximation to the Coulomb term is turned on
   Number of AuxJ basis functions       .... 573
   RIJ-COSX (HFX calculated with COS-X)).... on


General Settings:
 Integral files         IntName         .... /tmp/265187/Ac7_rdkit_conf_3_spc
 Hartree-Fock type      HFTyp           .... RHF
 Total Charge           Charge          ....    0
 Multiplicity           Mult            ....    1
 Number of Electrons    NEL             ....   70
 Basis Dimension        Dim             ....  447
 Nuclear Repulsion      ENuc            ....    476.8310877717 Eh

Convergence Acceleration:
 DIIS                   CNVDIIS         .... on
   Start iteration      DIISMaxIt       ....    12
   Startup error        DIISStart       ....  0.200000
   # of expansion vecs  DIISMaxEq       ....     5
   Bias factor          DIISBfac        ....   1.050
   Max. coefficient     DIISMaxC        ....  10.000
 Trust-Rad. Augm. Hess. CNVTRAH         .... auto
   Auto Start mean grad. ratio tolernc. ....  1.125000
   Auto Start start iteration           ....    20
   Auto Start num. interpolation iter.  ....    10
   Max. Number of Micro iterations      ....    16
   Max. Number of Macro iterations      .... Maxiter - #DIIS iter
   Number of Davidson start vectors     ....     2
   Converg. threshold I  (grad. norm)   ....   5.000e-05
   Converg. threshold II (energy diff.) ....   1.000e-06
   Grad. Scal. Fac. for Micro threshold ....   0.100
   Minimum threshold for Micro iter.    ....   0.010
   NR start threshold (gradient norm)   ....   0.001
   Initial trust radius                 ....   0.400
   Minimum AH scaling param. (alpha)    ....   1.000
   Maximum AH scaling param. (alpha)    .... 1000.000
   Orbital update algorithm             .... Taylor
   White noise on init. David. guess    .... on
   Maximum white noise                  ....   0.010
   Quad. conv. algorithm                .... NR
 SOSCF                  CNVSOSCF        .... on
   Start iteration      SOSCFMaxIt      ....   150
   Startup grad/error   SOSCFStart      ....  0.003300
 Level Shifting         CNVShift        .... on
   Level shift para.    LevelShift      ....    0.2500
   Turn off err/grad.   ShiftErr        ....    0.0010
 Zerner damping         CNVZerner       .... off
 Static damping         CNVDamp         .... on
   Fraction old density DampFac         ....    0.7000
   Max. Damping (<1)    DampMax         ....    0.9800
   Min. Damping (>=0)   DampMin         ....    0.0000
   Turn off err/grad.   DampErr         ....    0.1000
 Fernandez-Rico         CNVRico         .... off

SCF Procedure:
 Maximum # iterations   MaxIter         ....   125
 SCF integral mode      SCFMode         .... Direct
   Integral package                     .... SHARK and LIBINT hybrid scheme
 Reset frequency        DirectResetFreq ....    20
 Integral Threshold     Thresh          ....  1.000e-10 Eh
 Primitive CutOff       TCut            ....  1.000e-11 Eh

Convergence Tolerance:
 Convergence Check Mode ConvCheckMode   .... Total+1el-Energy
 Convergence forced     ConvForced      .... 0
 Energy Change          TolE            ....  1.000e-06 Eh
 1-El. energy change                    ....  1.000e-03 Eh
 Orbital Gradient       TolG            ....  5.000e-05
 Orbital Rotation angle TolX            ....  5.000e-05
 DIIS Error             TolErr          ....  1.000e-06


Diagonalization of the overlap matrix:
Smallest eigenvalue                        ... 5.808e-05
Time for diagonalization                   ...    0.025 sec
Threshold for overlap eigenvalues          ... 1.000e-08
Number of eigenvalues below threshold      ... 0
Time for construction of square roots      ...    0.015 sec
Total time needed                          ...    0.042 sec

Time for model grid setup =    0.092 sec

------------------------------
INITIAL GUESS: MODEL POTENTIAL
------------------------------
Loading Hartree-Fock densities                     ... done
Calculating cut-offs                               ... done
Initializing the effective Hamiltonian             ... done
Setting up the integral package (SHARK)            ... done
Starting the Coulomb interaction                   ... done (   0.1 sec)
Reading the grid                                   ... done
Mapping shells                                     ... done
Starting the XC term evaluation                    ... done (   0.1 sec)
  promolecular density results
     # of electrons  =     70.003640397
     EX              =    -55.704678358
     EC              =     -2.338551411
     EX+EC           =    -58.043229769
Transforming the Hamiltonian                       ... done (   0.5 sec)
Diagonalizing the Hamiltonian                      ... done (   0.3 sec)
Back transforming the eigenvectors                 ... done (   0.0 sec)
Now organizing SCF variables                       ... done
                      ------------------
                      INITIAL GUESS DONE (   1.3 sec)
                      ------------------
-------------------
DFT GRID GENERATION
-------------------

General Integration Accuracy     IntAcc      ... 4.388
Radial Grid Type                 RadialGrid  ... OptM3 with GC (2021)
Angular Grid (max. ang.)         AngularGrid ... 4 (Lebedev-302)
Angular grid pruning method      GridPruning ... 4 (adaptive)
Weight generation scheme         WeightScheme... Becke
Basis function cutoff            BFCut       ... 1.0000e-10
Integration weight cutoff        WCut        ... 1.0000e-14
Angular grids for H and He will be reduced by one unit
Partially contracted basis set               ... off
Rotationally invariant grid construction     ... off

Total number of grid points                  ...    92056
Total number of batches                      ...     1451
Average number of points per batch           ...       63
Average number of grid points per atom       ...     4384
Time for grid setup =    0.472 sec

--------------------
COSX GRID GENERATION
--------------------

GRIDX 1
-------
General Integration Accuracy     IntAcc      ... 3.816
Radial Grid Type                 RadialGrid  ... OptM3 with GC (2021)
Angular Grid (max. ang.)         AngularGrid ... 1 (Lebedev-50)
Angular grid pruning method      GridPruning ... 4 (adaptive)
Weight generation scheme         WeightScheme... Becke
Basis function cutoff            BFCut       ... 1.0000e-10
Integration weight cutoff        WCut        ... 1.0000e-14
Angular grids for H and He will be reduced by one unit
Partially contracted basis set               ... on
Rotationally invariant grid construction     ... off

Total number of grid points                  ...    11739
Total number of batches                      ...      197
Average number of points per batch           ...       59
Average number of grid points per atom       ...      559
UseSFitting                                  ... on

GRIDX 2
-------
General Integration Accuracy     IntAcc      ... 4.020
Radial Grid Type                 RadialGrid  ... OptM3 with GC (2021)
Angular Grid (max. ang.)         AngularGrid ... 2 (Lebedev-110)
Angular grid pruning method      GridPruning ... 4 (adaptive)
Weight generation scheme         WeightScheme... Becke
Basis function cutoff            BFCut       ... 1.0000e-10
Integration weight cutoff        WCut        ... 1.0000e-14
Angular grids for H and He will be reduced by one unit
Partially contracted basis set               ... on
Rotationally invariant grid construction     ... off

Total number of grid points                  ...    24908
Total number of batches                      ...      399
Average number of points per batch           ...       62
Average number of grid points per atom       ...     1186
UseSFitting                                  ... on

GRIDX 3
-------
General Integration Accuracy     IntAcc      ... 4.338
Radial Grid Type                 RadialGrid  ... OptM3 with GC (2021)
Angular Grid (max. ang.)         AngularGrid ... 3 (Lebedev-194)
Angular grid pruning method      GridPruning ... 4 (adaptive)
Weight generation scheme         WeightScheme... Becke
Basis function cutoff            BFCut       ... 1.0000e-10
Integration weight cutoff        WCut        ... 1.0000e-14
Angular grids for H and He will be reduced by one unit
Partially contracted basis set               ... on
Rotationally invariant grid construction     ... off

Total number of grid points                  ...    54496
Total number of batches                      ...      863
Average number of points per batch           ...       63
Average number of grid points per atom       ...     2595
UseSFitting                                  ... on

Time for X-Grid setup             =    0.480 sec


--------------------
CPCM SOLVATION MODEL
--------------------
CPCM parameters:
  Epsilon                                         ...       5.9867
  Refrac                                          ...       1.3723
  Rsolv                                           ...       1.3000
  Surface type                                    ... GAUSSIAN VDW
  Epsilon function type                           ...         CPCM
Solvent:                                     ... ETHYL ETHANOATE
SMD-CDS solvent descriptors:
  Soln                                       ...    1.3723
  Soln25                                     ...    1.3704
  Sola                                       ...    0.0000
  Solb                                       ...    0.4500
  Solg                                       ...   33.6700
  Solc                                       ...    0.0000
  Solh                                       ...    0.0000
Radii:
 Radius for O  used is    4.3350 Bohr (=   2.2940 Ang.)
 Radius for C  used is    3.4960 Bohr (=   1.8500 Ang.)
 Radius for H  used is    2.2677 Bohr (=   1.2000 Ang.)
Calculating surface                               ...        done! (  0.0s)
GEPOL surface points                              ...         1111
GEPOL Volume                                      ...    1177.6990
GEPOL Surface-area                                ...     662.0010
Calculating surface distance matrix               ...        done! (  0.0s)
Performing Cholesky decomposition & store         ...        done! (  0.1s)
Overall time for CPCM initialization              ...                 0.1s
--------------
SCF ITERATIONS
--------------
ITER       Energy         Delta-E        Max-DP      RMS-DP      [F,P]     Damp
               ***  Starting incremental Fock matrix formation  ***
  0   -424.4010625598   0.000000000000 0.08575683  0.00083624  0.2841197 0.7000
  1   -424.5334809624  -0.132418402547 0.09269049  0.00069333  0.1438981 0.7000
                               ***Turning on DIIS***
  2   -424.5970480001  -0.063567037771 0.16092387  0.00139765  0.0597579 0.0000
  3   -424.7003874499  -0.103339449741 0.06875989  0.00039390  0.0632958 0.0000
  4   -424.7170181496  -0.016630699711 0.01099802  0.00010406  0.0084350 0.0000
  5   -424.7173721945  -0.000354044931 0.00944776  0.00005021  0.0065717 0.0000
                      *** Initiating the SOSCF procedure ***
                           *** Shutting down DIIS ***
                      *** Re-Reading the Fockian *** 
                      *** Removing any level shift *** 
ITER      Energy       Delta-E        Grad      Rot      Max-DP    RMS-DP
  6   -424.71745023  -0.0000780307  0.000799  0.000799  0.003423  0.000023
               *** Restarting incremental Fock matrix formation ***
  7   -424.71742846   0.0000217687  0.000210  0.000427  0.005244  0.000033
  8   -424.71743107  -0.0000026092  0.000334  0.000766  0.002848  0.000019
  9   -424.71743187  -0.0000008056  0.000104  0.000160  0.000889  0.000011
                 **** Energy Check signals convergence ****
              ***Rediagonalizing the Fockian in SOSCF/NRSCF***

               *****************************************************
               *                     SUCCESS                       *
               *           SCF CONVERGED AFTER  10 CYCLES          *
               *****************************************************

Old exchange energy                            =    -17.902692989 Eh
New exchange energy                            =    -17.902712165 Eh
Exchange energy change after final integration =     -0.000019177 Eh
Total energy after final integration           =   -424.717451196 Eh
Final COS-X integration done in                =     9.846 sec

------------------
NL GRID GENERATION
------------------

General Integration Accuracy     IntAcc      ... 4.004
Radial Grid Type                 RadialGrid  ... OptM3 with GC (2021)
Angular Grid (max. ang.)         AngularGrid ... 2 (Lebedev-110)
Angular grid pruning method      GridPruning ... 4 (adaptive)
Weight generation scheme         WeightScheme... Becke
Basis function cutoff            BFCut       ... 1.0000e-10
Integration weight cutoff        WCut        ... 1.0000e-14
Angular grids for H and He will be reduced by one unit
Partially contracted basis set               ... off
Rotationally invariant grid construction     ... off

Total number of grid points                  ...    28076
Total number of batches                      ...      449
Average number of points per batch           ...       62
Average number of grid points per atom       ...     1337
Final grid set up in    0.1 sec

-------------------------------------------------------------------------------
                    post-SCF DFT-NL dispersion correction                      
-------------------------------------------------------------------------------

SCF Energy:   -424.717451196 
NL    Energy:  0.263928772 
SC+NL Energy: -424.453522424 
NL done in:    0.3 sec
-------------------------------------------------------------------------------

SMD CDS free energy correction energy :                -4.19732     Kcal/mol
Total Energy after SMD CDS correction =              -424.460211285 Eh

----------------
TOTAL SCF ENERGY
----------------

Total Energy       :         -424.46021129 Eh          -11550.14955 eV

Components:
Nuclear Repulsion  :          476.83108777 Eh           12975.23355 eV
Electronic Energy  :         -901.29129906 Eh          -24525.38309 eV
One Electron Energy:        -1521.14501955 Eh          -41392.46033 eV
Two Electron Energy:          619.85372050 Eh           16867.07724 eV
Max COSX asymmetry :            0.00000142 Eh               0.00004 eV
CPCM Dielectric    :           -0.00672321 Eh              -0.18295 eV
SMD CDS (Gcds)     :           -0.00668886 Eh              -0.18201 eV

Virial components:
Potential Energy   :         -847.70599496 Eh          -23067.25284 eV
Kinetic Energy     :          423.24578367 Eh           11517.10329 eV
Virial Ratio       :            2.00286932


DFT components:
N(Alpha)           :       35.000018419374 electrons
N(Beta)            :       35.000018419374 electrons
N(Total)           :       70.000036838749 electrons
NL Energy, E(C,NL) :        0.263928772364 Eh       
E(XC)              :      -41.769272741491 Eh       
DFET-embed. en.    :        0.000000000000 Eh       
CPCM Solvation Model Properties:
Surface-charge          :           -0.03492881
Charge-correction       :            0.00014897 Eh               0.00405 eV
Free-energy (cav+disp)  :           -0.00668886 Eh              -0.18201 eV

---------------
SCF CONVERGENCE
---------------

  Last Energy change         ...   -1.4798e-07  Tolerance :   1.0000e-06
  Last MAX-Density change    ...    1.9984e-15  Tolerance :   1.0000e-05
  Last RMS-Density change    ...    1.2845e-17  Tolerance :   1.0000e-06
  Last Orbital Gradient      ...    3.3490e-05  Tolerance :   5.0000e-05
  Last Orbital Rotation      ...    4.7095e-05  Tolerance :   5.0000e-05

             **** THE GBW FILE WAS UPDATED (/tmp/265187/Ac7_rdkit_conf_3_spc.gbw) ****
             **** DENSITY /tmp/265187/Ac7_rdkit_conf_3_spc.scfp WAS UPDATED ****
             **** ENERGY FILE WAS UPDATED (/tmp/265187/Ac7_rdkit_conf_3_spc.en.tmp) ****
             **** THE GBW FILE WAS UPDATED (/tmp/265187/Ac7_rdkit_conf_3_spc.gbw) ****
             **** DENSITY /tmp/265187/Ac7_rdkit_conf_3_spc.scfp WAS UPDATED ****
----------------
ORBITAL ENERGIES
----------------

  NO   OCC          E(Eh)            E(eV) 
   0   2.0000     -19.375503      -527.2342 
   1   2.0000     -19.321125      -525.7545 
   2   2.0000     -10.474781      -285.0333 
   3   2.0000     -10.352491      -281.7056 
   4   2.0000     -10.336949      -281.2827 
   5   2.0000     -10.336943      -281.2825 
   6   2.0000     -10.331019      -281.1213 
   7   2.0000     -10.331019      -281.1213 
   8   2.0000     -10.329016      -281.0668 
   9   2.0000      -1.239684       -33.7335 
  10   2.0000      -1.148316       -31.2473 
  11   2.0000      -0.963978       -26.2312 
  12   2.0000      -0.882215       -24.0063 
  13   2.0000      -0.863019       -23.4839 
  14   2.0000      -0.768242       -20.9049 
  15   2.0000      -0.726075       -19.7575 
  16   2.0000      -0.706125       -19.2146 
  17   2.0000      -0.671484       -18.2720 
  18   2.0000      -0.608853       -16.5677 
  19   2.0000      -0.603046       -16.4097 
  20   2.0000      -0.566841       -15.4245 
  21   2.0000      -0.565170       -15.3791 
  22   2.0000      -0.540486       -14.7074 
  23   2.0000      -0.540430       -14.7058 
  24   2.0000      -0.523615       -14.2483 
  25   2.0000      -0.489553       -13.3214 
  26   2.0000      -0.478636       -13.0243 
  27   2.0000      -0.469457       -12.7746 
  28   2.0000      -0.443760       -12.0753 
  29   2.0000      -0.441290       -12.0081 
  30   2.0000      -0.424855       -11.5609 
  31   2.0000      -0.419951       -11.4274 
  32   2.0000      -0.411053       -11.1853 
  33   2.0000      -0.392396       -10.6776 
  34   2.0000      -0.370555       -10.0833 
  35   0.0000       0.097680         2.6580 
  36   0.0000       0.099893         2.7182 
  37   0.0000       0.113959         3.1010 
  38   0.0000       0.121552         3.3076 
  39   0.0000       0.131806         3.5866 
  40   0.0000       0.150974         4.1082 
  41   0.0000       0.166915         4.5420 
  42   0.0000       0.170508         4.6398 
  43   0.0000       0.179396         4.8816 
  44   0.0000       0.185308         5.0425 
  45   0.0000       0.186122         5.0646 
  46   0.0000       0.200868         5.4659 
  47   0.0000       0.206708         5.6248 
  48   0.0000       0.214132         5.8268 
  49   0.0000       0.233460         6.3528 
  50   0.0000       0.266929         7.2635 
  51   0.0000       0.269085         7.3222 
  52   0.0000       0.281458         7.6589 
  53   0.0000       0.291025         7.9192 
  54   0.0000       0.293818         7.9952 
  55   0.0000       0.298877         8.1329 
  56   0.0000       0.311349         8.4722 
  57   0.0000       0.326030         8.8717 
  58   0.0000       0.330394         8.9905 
  59   0.0000       0.336346         9.1525 
  60   0.0000       0.352944         9.6041 
  61   0.0000       0.359900         9.7934 
  62   0.0000       0.383535        10.4365 
  63   0.0000       0.385314        10.4849 
  64   0.0000       0.404138        10.9972 
  65   0.0000       0.409556        11.1446 
  66   0.0000       0.430324        11.7097 
  67   0.0000       0.432327        11.7642 
  68   0.0000       0.451395        12.2831 
  69   0.0000       0.462016        12.5721 
  70   0.0000       0.471591        12.8327 
  71   0.0000       0.478020        13.0076 
  72   0.0000       0.485269        13.2049 
  73   0.0000       0.495520        13.4838 
  74   0.0000       0.496493        13.5103 
  75   0.0000       0.499331        13.5875 
  76   0.0000       0.500544        13.6205 
  77   0.0000       0.504242        13.7211 
  78   0.0000       0.507483        13.8093 
  79   0.0000       0.518167        14.1000 
  80   0.0000       0.523926        14.2568 
  81   0.0000       0.532214        14.4823 
  82   0.0000       0.545639        14.8476 
  83   0.0000       0.547866        14.9082 
  84   0.0000       0.560417        15.2497 
  85   0.0000       0.565282        15.3821 
  86   0.0000       0.566705        15.4208 
  87   0.0000       0.569500        15.4969 
  88   0.0000       0.600347        16.3363 
  89   0.0000       0.604864        16.4592 
  90   0.0000       0.612692        16.6722 
  91   0.0000       0.635195        17.2845 
  92   0.0000       0.656330        17.8597 
  93   0.0000       0.671664        18.2769 
  94   0.0000       0.672494        18.2995 
  95   0.0000       0.681320        18.5397 
  96   0.0000       0.711184        19.3523 
  97   0.0000       0.712210        19.3802 
  98   0.0000       0.733801        19.9678 
  99   0.0000       0.775831        21.1114 
 100   0.0000       0.794102        21.6086 
 101   0.0000       0.820804        22.3352 
 102   0.0000       0.823486        22.4082 
 103   0.0000       0.844529        22.9808 
 104   0.0000       0.848203        23.0808 
 105   0.0000       0.853942        23.2369 
 106   0.0000       0.857000        23.3202 
 107   0.0000       0.863037        23.4844 
 108   0.0000       0.872364        23.7382 
 109   0.0000       0.900376        24.5005 
 110   0.0000       0.923345        25.1255 
 111   0.0000       0.927841        25.2478 
 112   0.0000       0.956056        26.0156 
 113   0.0000       0.966818        26.3085 
 114   0.0000       0.975992        26.5581 
 115   0.0000       0.978837        26.6355 
 116   0.0000       0.990032        26.9401 
 117   0.0000       1.004701        27.3393 
 118   0.0000       1.021883        27.8069 
 119   0.0000       1.038258        28.2524 
 120   0.0000       1.050310        28.5804 
 121   0.0000       1.067359        29.0443 
 122   0.0000       1.082924        29.4679 
 123   0.0000       1.099496        29.9188 
 124   0.0000       1.108511        30.1641 
 125   0.0000       1.131086        30.7784 
 126   0.0000       1.145575        31.1727 
 127   0.0000       1.147200        31.2169 
 128   0.0000       1.163291        31.6548 
 129   0.0000       1.166112        31.7315 
 130   0.0000       1.191156        32.4130 
 131   0.0000       1.208516        32.8854 
 132   0.0000       1.218216        33.1493 
 133   0.0000       1.224826        33.3292 
 134   0.0000       1.233037        33.5527 
 135   0.0000       1.245986        33.9050 
 136   0.0000       1.257924        34.2298 
 137   0.0000       1.263655        34.3858 
 138   0.0000       1.271053        34.5871 
 139   0.0000       1.283580        34.9280 
 140   0.0000       1.291224        35.1360 
 141   0.0000       1.311745        35.6944 
 142   0.0000       1.321788        35.9677 
 143   0.0000       1.328490        36.1500 
 144   0.0000       1.357997        36.9530 
 145   0.0000       1.364285        37.1241 
 146   0.0000       1.364864        37.1398 
 147   0.0000       1.391484        37.8642 
 148   0.0000       1.422536        38.7092 
 149   0.0000       1.424593        38.7652 
 150   0.0000       1.436919        39.1006 
 151   0.0000       1.454537        39.5800 
 152   0.0000       1.469437        39.9854 
 153   0.0000       1.471013        40.0283 
 154   0.0000       1.483431        40.3662 
 155   0.0000       1.486402        40.4471 
 156   0.0000       1.506296        40.9884 
 157   0.0000       1.521524        41.4028 
 158   0.0000       1.534666        41.7604 
 159   0.0000       1.547327        42.1049 
 160   0.0000       1.548249        42.1300 
 161   0.0000       1.571524        42.7633 
 162   0.0000       1.593989        43.3747 
 163   0.0000       1.603512        43.6338 
 164   0.0000       1.615502        43.9600 
 165   0.0000       1.618950        44.0539 
 166   0.0000       1.626345        44.2551 
 167   0.0000       1.636178        44.5227 
 168   0.0000       1.638801        44.5940 
 169   0.0000       1.691364        46.0244 
 170   0.0000       1.696133        46.1541 
 171   0.0000       1.701875        46.3104 
 172   0.0000       1.714383        46.6507 
 173   0.0000       1.717017        46.7224 
 174   0.0000       1.737520        47.2803 
 175   0.0000       1.763843        47.9966 
 176   0.0000       1.769509        48.1508 
 177   0.0000       1.782174        48.4954 
 178   0.0000       1.788240        48.6605 
 179   0.0000       1.807600        49.1873 
 180   0.0000       1.818282        49.4780 
 181   0.0000       1.848819        50.3089 
 182   0.0000       1.906782        51.8862 
 183   0.0000       1.914345        52.0920 
 184   0.0000       1.945661        52.9441 
 185   0.0000       1.956081        53.2277 
 186   0.0000       1.966705        53.5168 
 187   0.0000       1.988322        54.1050 
 188   0.0000       2.064206        56.1699 
 189   0.0000       2.072769        56.4029 
 190   0.0000       2.113458        57.5101 
 191   0.0000       2.136030        58.1243 
 192   0.0000       2.148960        58.4762 
 193   0.0000       2.174581        59.1734 
 194   0.0000       2.175383        59.1952 
 195   0.0000       2.210835        60.1599 
 196   0.0000       2.220180        60.4142 
 197   0.0000       2.235283        60.8251 
 198   0.0000       2.271834        61.8197 
 199   0.0000       2.319182        63.1082 
 200   0.0000       2.333967        63.5105 
 201   0.0000       2.354094        64.0582 
 202   0.0000       2.360470        64.2317 
 203   0.0000       2.396872        65.2222 
 204   0.0000       2.434809        66.2545 
 205   0.0000       2.450869        66.6915 
 206   0.0000       2.479486        67.4702 
 207   0.0000       2.510697        68.3195 
 208   0.0000       2.542665        69.1894 
 209   0.0000       2.554393        69.5086 
 210   0.0000       2.566933        69.8498 
 211   0.0000       2.578489        70.1643 
 212   0.0000       2.600292        70.7575 
 213   0.0000       2.607067        70.9419 
 214   0.0000       2.610082        71.0239 
 215   0.0000       2.618604        71.2558 
 216   0.0000       2.664865        72.5147 
 217   0.0000       2.688475        73.1571 
 218   0.0000       2.698488        73.4296 
 219   0.0000       2.719311        73.9962 
 220   0.0000       2.726855        74.2015 
 221   0.0000       2.768367        75.3311 
 222   0.0000       2.773806        75.4791 
 223   0.0000       2.779279        75.6280 
 224   0.0000       2.787881        75.8621 
 225   0.0000       2.837663        77.2167 
 226   0.0000       2.859068        77.7992 
 227   0.0000       2.870814        78.1188 
 228   0.0000       2.882023        78.4238 
 229   0.0000       2.903712        79.0140 
 230   0.0000       2.916766        79.3692 
 231   0.0000       2.943572        80.0987 
 232   0.0000       2.964938        80.6801 
 233   0.0000       2.972329        80.8812 
 234   0.0000       2.992643        81.4339 
 235   0.0000       2.994799        81.4926 
 236   0.0000       3.008169        81.8564 
 237   0.0000       3.023481        82.2731 
 238   0.0000       3.029808        82.4453 
 239   0.0000       3.033020        82.5327 
 240   0.0000       3.068887        83.5087 
 241   0.0000       3.077966        83.7557 
 242   0.0000       3.084019        83.9204 
 243   0.0000       3.089925        84.0811 
 244   0.0000       3.107772        84.5668 
 245   0.0000       3.118626        84.8621 
 246   0.0000       3.141859        85.4943 
 247   0.0000       3.142402        85.5091 
 248   0.0000       3.149801        85.7105 
 249   0.0000       3.168257        86.2127 
 250   0.0000       3.191205        86.8371 
 251   0.0000       3.197434        87.0066 
 252   0.0000       3.224902        87.7541 
 253   0.0000       3.226831        87.8065 
 254   0.0000       3.240908        88.1896 
 255   0.0000       3.243351        88.2561 
 256   0.0000       3.249370        88.4198 
 257   0.0000       3.253153        88.5228 
 258   0.0000       3.257381        88.6379 
 259   0.0000       3.258939        88.6802 
 260   0.0000       3.277973        89.1982 
 261   0.0000       3.303532        89.8937 
 262   0.0000       3.304493        89.9198 
 263   0.0000       3.325360        90.4876 
 264   0.0000       3.327947        90.5580 
 265   0.0000       3.353150        91.2439 
 266   0.0000       3.372155        91.7610 
 267   0.0000       3.376815        91.8878 
 268   0.0000       3.406141        92.6858 
 269   0.0000       3.407413        92.7204 
 270   0.0000       3.410994        92.8179 
 271   0.0000       3.424347        93.1812 
 272   0.0000       3.432436        93.4013 
 273   0.0000       3.445757        93.7638 
 274   0.0000       3.450672        93.8976 
 275   0.0000       3.500143        95.2437 
 276   0.0000       3.503747        95.3418 
 277   0.0000       3.513578        95.6093 
 278   0.0000       3.533522        96.1520 
 279   0.0000       3.537997        96.2738 
 280   0.0000       3.556382        96.7741 
 281   0.0000       3.599230        97.9400 
 282   0.0000       3.603769        98.0635 
 283   0.0000       3.611300        98.2685 
 284   0.0000       3.639308        99.0306 
 285   0.0000       3.643306        99.1394 
 286   0.0000       3.644739        99.1784 
 287   0.0000       3.669741        99.8587 
 288   0.0000       3.677819       100.0786 
 289   0.0000       3.707538       100.8872 
 290   0.0000       3.732102       101.5557 
 291   0.0000       3.738747       101.7365 
 292   0.0000       3.738949       101.7420 
 293   0.0000       3.743012       101.8525 
 294   0.0000       3.754587       102.1675 
 295   0.0000       3.756711       102.2253 
 296   0.0000       3.774485       102.7090 
 297   0.0000       3.779593       102.8480 
 298   0.0000       3.785028       102.9959 
 299   0.0000       3.829677       104.2108 
 300   0.0000       3.856241       104.9337 
 301   0.0000       3.870057       105.3096 
 302   0.0000       3.896829       106.0381 
 303   0.0000       3.910556       106.4116 
 304   0.0000       3.915066       106.5344 
 305   0.0000       3.920846       106.6917 
 306   0.0000       3.922594       106.7392 
 307   0.0000       3.942245       107.2740 
 308   0.0000       3.967677       107.9660 
 309   0.0000       3.972174       108.0884 
 310   0.0000       3.980531       108.3157 
 311   0.0000       3.989212       108.5520 
 312   0.0000       3.997443       108.7759 
 313   0.0000       4.016105       109.2838 
 314   0.0000       4.025129       109.5293 
 315   0.0000       4.047944       110.1502 
 316   0.0000       4.052376       110.2708 
 317   0.0000       4.085741       111.1787 
 318   0.0000       4.087084       111.2152 
 319   0.0000       4.115694       111.9937 
 320   0.0000       4.117529       112.0437 
 321   0.0000       4.120811       112.1330 
 322   0.0000       4.127035       112.3023 
 323   0.0000       4.135126       112.5225 
 324   0.0000       4.157652       113.1355 
 325   0.0000       4.160468       113.2121 
 326   0.0000       4.207588       114.4943 
 327   0.0000       4.214689       114.6875 
 328   0.0000       4.221283       114.8669 
 329   0.0000       4.231465       115.1440 
 330   0.0000       4.241023       115.4041 
 331   0.0000       4.248659       115.6119 
 332   0.0000       4.259887       115.9174 
 333   0.0000       4.276907       116.3806 
 334   0.0000       4.277929       116.4084 
 335   0.0000       4.300054       117.0104 
 336   0.0000       4.333237       117.9134 
 337   0.0000       4.349523       118.3565 
 338   0.0000       4.361859       118.6922 
 339   0.0000       4.373090       118.9978 
 340   0.0000       4.378677       119.1499 
 341   0.0000       4.405555       119.8812 
 342   0.0000       4.416611       120.1821 
 343   0.0000       4.427741       120.4850 
 344   0.0000       4.435120       120.6857 
 345   0.0000       4.445916       120.9795 
 346   0.0000       4.459346       121.3450 
 347   0.0000       4.485088       122.0454 
 348   0.0000       4.492695       122.2524 
 349   0.0000       4.521383       123.0331 
 350   0.0000       4.523319       123.0858 
 351   0.0000       4.562258       124.1454 
 352   0.0000       4.592830       124.9773 
 353   0.0000       4.612675       125.5173 
 354   0.0000       4.622509       125.7849 
 355   0.0000       4.622777       125.7922 
 356   0.0000       4.647138       126.4551 
 357   0.0000       4.647857       126.4746 
 358   0.0000       4.665643       126.9586 
 359   0.0000       4.695369       127.7675 
 360   0.0000       4.713949       128.2731 
 361   0.0000       4.722519       128.5063 
 362   0.0000       4.727853       128.6514 
 363   0.0000       4.767330       129.7256 
 364   0.0000       4.771297       129.8336 
 365   0.0000       4.828149       131.3806 
 366   0.0000       4.857761       132.1864 
 367   0.0000       4.875386       132.6660 
 368   0.0000       4.885082       132.9298 
 369   0.0000       4.885265       132.9348 
 370   0.0000       4.918662       133.8436 
 371   0.0000       4.963026       135.0508 
 372   0.0000       4.963540       135.0648 
 373   0.0000       4.977834       135.4538 
 374   0.0000       4.998900       136.0270 
 375   0.0000       5.004859       136.1891 
 376   0.0000       5.010106       136.3319 
 377   0.0000       5.019284       136.5817 
 378   0.0000       5.039381       137.1285 
 379   0.0000       5.047393       137.3466 
 380   0.0000       5.097776       138.7175 
 381   0.0000       5.106131       138.9449 
 382   0.0000       5.108771       139.0167 
 383   0.0000       5.121130       139.3530 
 384   0.0000       5.130931       139.6197 
 385   0.0000       5.162755       140.4857 
 386   0.0000       5.208867       141.7405 
 387   0.0000       5.229989       142.3152 
 388   0.0000       5.252014       142.9146 
 389   0.0000       5.287271       143.8740 
 390   0.0000       5.316536       144.6703 
 391   0.0000       5.364073       145.9638 
 392   0.0000       5.369145       146.1019 
 393   0.0000       5.372574       146.1952 
 394   0.0000       5.455547       148.4530 
 395   0.0000       5.463667       148.6739 
 396   0.0000       5.480696       149.1373 
 397   0.0000       5.493908       149.4968 
 398   0.0000       5.501356       149.6995 
 399   0.0000       5.507916       149.8780 
 400   0.0000       5.572333       151.6309 
 401   0.0000       5.572477       151.6348 
 402   0.0000       5.588851       152.0804 
 403   0.0000       5.608259       152.6085 
 404   0.0000       5.608900       152.6259 
 405   0.0000       5.614721       152.7843 
 406   0.0000       5.627854       153.1417 
 407   0.0000       5.630011       153.2004 
 408   0.0000       5.645622       153.6252 
 409   0.0000       5.650641       153.7618 
 410   0.0000       5.673954       154.3962 
 411   0.0000       5.715957       155.5391 
 412   0.0000       5.721287       155.6841 
 413   0.0000       5.750901       156.4900 
 414   0.0000       5.759813       156.7325 
 415   0.0000       5.779303       157.2628 
 416   0.0000       5.792517       157.6224 
 417   0.0000       5.813407       158.1908 
 418   0.0000       5.845138       159.0543 
 419   0.0000       5.853513       159.2822 
 420   0.0000       6.069517       165.1600 
 421   0.0000       6.135120       166.9451 
 422   0.0000       6.302627       171.5032 
 423   0.0000       6.466579       175.9645 
 424   0.0000       6.474798       176.1882 
 425   0.0000       6.596213       179.4921 
 426   0.0000       6.604370       179.7141 
 427   0.0000       6.656684       181.1376 
 428   0.0000       6.704554       182.4402 
 429   0.0000       6.815199       185.4510 
 430   0.0000       6.849060       186.3724 
 431   0.0000       6.978994       189.9081 
 432   0.0000       6.989468       190.1931 
 433   0.0000       7.093557       193.0255 
 434   0.0000       7.234871       196.8708 
 435   0.0000       7.387381       201.0209 
 436   0.0000       7.576402       206.1644 
 437   0.0000       7.615660       207.2327 
 438   0.0000      23.487901       639.1383 
 439   0.0000      23.709328       645.1636 
 440   0.0000      23.774886       646.9475 
 441   0.0000      23.797532       647.5638 
 442   0.0000      23.811785       647.9516 
 443   0.0000      23.815062       648.0408 
 444   0.0000      23.819651       648.1657 
 445   0.0000      44.336970      1206.4703 
 446   0.0000      44.426701      1208.9120 

                    ********************************
                    * MULLIKEN POPULATION ANALYSIS *
                    ********************************

-----------------------
MULLIKEN ATOMIC CHARGES
-----------------------
   0 O :   -0.347878
   1 C :    0.264860
   2 O :   -0.269339
   3 C :    0.019436
   4 C :   -0.223156
   5 C :   -0.206101
   6 C :   -0.190349
   7 C :   -0.205823
   8 C :   -0.223208
   9 H :    0.204451
  10 H :    0.095043
  11 H :    0.117988
  12 H :    0.115939
  13 H :    0.102485
  14 H :    0.103588
  15 H :    0.099014
  16 H :    0.103262
  17 H :    0.102444
  18 H :    0.103369
  19 H :    0.117965
  20 H :    0.116010
Sum of atomic charges:    0.0000000

--------------------------------
MULLIKEN REDUCED ORBITAL CHARGES
--------------------------------
  0 O s       :     3.776088  s :     3.776088
      pz      :     1.587284  p :     4.538659
      px      :     1.541187
      py      :     1.410188
      dz2     :     0.006447  d :     0.031123
      dxz     :     0.009110
      dyz     :     0.005411
      dx2y2   :     0.004043
      dxy     :     0.006111
      f0      :     0.000281  f :     0.002008
      f+1     :     0.000558
      f-1     :     0.000066
      f+2     :     0.000374
      f-2     :     0.000483
      f+3     :     0.000096
      f-3     :     0.000150
  1 C s       :     3.119369  s :     3.119369
      pz      :     0.702365  p :     2.342323
      px      :     0.915196
      py      :     0.724762
      dz2     :     0.075785  d :     0.248996
      dxz     :     0.052199
      dyz     :     0.059676
      dx2y2   :     0.026319
      dxy     :     0.035017
      f0      :     0.004731  f :     0.024452
      f+1     :     0.007142
      f-1     :     0.003235
      f+2     :     0.002953
      f-2     :     0.002771
      f+3     :     0.001487
      f-3     :     0.002133
  2 O s       :     3.732371  s :     3.732371
      pz      :     1.421154  p :     4.510124
      px      :     1.334020
      py      :     1.754950
      dz2     :     0.012069  d :     0.025621
      dxz     :     0.004632
      dyz     :     0.005135
      dx2y2   :     0.003205
      dxy     :     0.000581
      f0      :     0.000448  f :     0.001223
      f+1     :     0.000260
      f-1     :     0.000266
      f+2     :     0.000051
      f-2     :     0.000040
      f+3     :     0.000105
      f-3     :     0.000052
  3 C s       :     3.143598  s :     3.143598
      pz      :     1.000690  p :     2.715197
      px      :     0.821301
      py      :     0.893206
      dz2     :     0.033355  d :     0.115066
      dxz     :     0.010335
      dyz     :     0.018765
      dx2y2   :     0.033837
      dxy     :     0.018774
      f0      :     0.000707  f :     0.006703
      f+1     :     0.000709
      f-1     :     0.000934
      f+2     :     0.000966
      f-2     :     0.000569
      f+3     :     0.001267
      f-3     :     0.001551
  4 C s       :     3.242272  s :     3.242272
      pz      :     1.019503  p :     2.882812
      px      :     0.908028
      py      :     0.955282
      dz2     :     0.025529  d :     0.093286
      dxz     :     0.015599
      dyz     :     0.009837
      dx2y2   :     0.016560
      dxy     :     0.025761
      f0      :     0.000605  f :     0.004786
      f+1     :     0.000550
      f-1     :     0.000490
      f+2     :     0.000630
      f-2     :     0.000326
      f+3     :     0.000902
      f-3     :     0.001282
  5 C s       :     3.244880  s :     3.244880
      pz      :     1.011548  p :     2.862078
      px      :     0.885037
      py      :     0.965493
      dz2     :     0.025758  d :     0.094446
      dxz     :     0.014963
      dyz     :     0.010660
      dx2y2   :     0.018339
      dxy     :     0.024727
      f0      :     0.000599  f :     0.004696
      f+1     :     0.000524
      f-1     :     0.000474
      f+2     :     0.000631
      f-2     :     0.000298
      f+3     :     0.000911
      f-3     :     0.001259
  6 C s       :     3.231536  s :     3.231536
      pz      :     0.988514  p :     2.860164
      px      :     1.004717
      py      :     0.866933
      dz2     :     0.029307  d :     0.093960
      dxz     :     0.005243
      dyz     :     0.015499
      dx2y2   :     0.030658
      dxy     :     0.013254
      f0      :     0.000549  f :     0.004688
      f+1     :     0.000255
      f-1     :     0.000831
      f+2     :     0.000425
      f-2     :     0.000580
      f+3     :     0.000861
      f-3     :     0.001188
  7 C s       :     3.244821  s :     3.244821
      pz      :     1.011443  p :     2.861929
      px      :     0.885057
      py      :     0.965429
      dz2     :     0.025709  d :     0.094378
      dxz     :     0.014959
      dyz     :     0.010643
      dx2y2   :     0.018363
      dxy     :     0.024704
      f0      :     0.000599  f :     0.004696
      f+1     :     0.000524
      f-1     :     0.000474
      f+2     :     0.000631
      f-2     :     0.000298
      f+3     :     0.000911
      f-3     :     0.001259
  8 C s       :     3.242282  s :     3.242282
      pz      :     1.019523  p :     2.882776
      px      :     0.908024
      py      :     0.955229
      dz2     :     0.025581  d :     0.093364
      dxz     :     0.015621
      dyz     :     0.009834
      dx2y2   :     0.016571
      dxy     :     0.025758
      f0      :     0.000606  f :     0.004786
      f+1     :     0.000550
      f-1     :     0.000490
      f+2     :     0.000630
      f-2     :     0.000326
      f+3     :     0.000902
      f-3     :     0.001282
  9 H s       :     0.708160  s :     0.708160
      pz      :     0.015680  p :     0.077857
      px      :     0.034157
      py      :     0.028021
      dz2     :     0.001184  d :     0.009531
      dxz     :     0.002143
      dyz     :     0.000049
      dx2y2   :     0.003072
      dxy     :     0.003083
 10 H s       :     0.865913  s :     0.865913
      pz      :     0.019143  p :     0.036241
      px      :     0.008199
      py      :     0.008899
      dz2     :     0.000679  d :     0.002803
      dxz     :     0.001024
      dyz     :     0.001047
      dx2y2   :     0.000026
      dxy     :     0.000026
 11 H s       :     0.848710  s :     0.848710
      pz      :     0.008760  p :     0.030989
      px      :     0.009931
      py      :     0.012298
      dz2     :     0.000401  d :     0.002313
      dxz     :     0.000194
      dyz     :     0.000462
      dx2y2   :     0.000732
      dxy     :     0.000523
 12 H s       :     0.849723  s :     0.849723
      pz      :     0.014777  p :     0.031921
      px      :     0.008615
      py      :     0.008529
      dz2     :     0.000627  d :     0.002416
      dxz     :     0.000872
      dyz     :     0.000835
      dx2y2   :     0.000063
      dxy     :     0.000020
 13 H s       :     0.863636  s :     0.863636
      pz      :     0.008887  p :     0.031549
      px      :     0.009862
      py      :     0.012800
      dz2     :     0.000400  d :     0.002330
      dxz     :     0.000195
      dyz     :     0.000465
      dx2y2   :     0.000747
      dxy     :     0.000523
 14 H s       :     0.862417  s :     0.862417
      pz      :     0.014620  p :     0.031624
      px      :     0.008605
      py      :     0.008399
      dz2     :     0.000601  d :     0.002370
      dxz     :     0.000865
      dyz     :     0.000832
      dx2y2   :     0.000053
      dxy     :     0.000019
 15 H s       :     0.867349  s :     0.867349
      pz      :     0.014647  p :     0.031270
      px      :     0.008170
      py      :     0.008453
      dz2     :     0.000600  d :     0.002367
      dxz     :     0.000768
      dyz     :     0.000947
      dx2y2   :     0.000032
      dxy     :     0.000020
 16 H s       :     0.862867  s :     0.862867
      pz      :     0.008547  p :     0.031537
      px      :     0.014019
      py      :     0.008970
      dz2     :     0.000285  d :     0.002335
      dxz     :     0.000651
      dyz     :     0.000037
      dx2y2   :     0.000406
      dxy     :     0.000955
 17 H s       :     0.863661  s :     0.863661
      pz      :     0.008878  p :     0.031565
      px      :     0.009862
      py      :     0.012825
      dz2     :     0.000400  d :     0.002330
      dxz     :     0.000194
      dyz     :     0.000465
      dx2y2   :     0.000748
      dxy     :     0.000523
 18 H s       :     0.862628  s :     0.862628
      pz      :     0.014637  p :     0.031633
      px      :     0.008604
      py      :     0.008391
      dz2     :     0.000602  d :     0.002370
      dxz     :     0.000865
      dyz     :     0.000831
      dx2y2   :     0.000053
      dxy     :     0.000019
 19 H s       :     0.848747  s :     0.848747
      pz      :     0.008762  p :     0.030975
      px      :     0.009918
      py      :     0.012294
      dz2     :     0.000401  d :     0.002313
      dxz     :     0.000194
      dyz     :     0.000463
      dx2y2   :     0.000733
      dxy     :     0.000523
 20 H s       :     0.849622  s :     0.849622
      pz      :     0.014800  p :     0.031952
      px      :     0.008623
      py      :     0.008529
      dz2     :     0.000626  d :     0.002416
      dxz     :     0.000872
      dyz     :     0.000835
      dx2y2   :     0.000063
      dxy     :     0.000020


                     *******************************
                     * LOEWDIN POPULATION ANALYSIS *
                     *******************************

----------------------
LOEWDIN ATOMIC CHARGES
----------------------
   0 O :    0.087748
   1 C :   -0.424900
   2 O :    0.353395
   3 C :   -0.077325
   4 C :   -0.008856
   5 C :   -0.023136
   6 C :   -0.026433
   7 C :   -0.023133
   8 C :   -0.008856
   9 H :   -0.089620
  10 H :    0.040673
  11 H :    0.022116
  12 H :    0.023614
  13 H :    0.016534
  14 H :    0.020779
  15 H :    0.019418
  16 H :    0.014939
  17 H :    0.016534
  18 H :    0.020775
  19 H :    0.022117
  20 H :    0.023617

-------------------------------
LOEWDIN REDUCED ORBITAL CHARGES
-------------------------------
  0 O s       :     3.394040  s :     3.394040
      pz      :     1.569314  p :     4.445376
      px      :     1.552674
      py      :     1.323388
      dz2     :     0.016128  d :     0.066590
      dxz     :     0.025237
      dyz     :     0.006710
      dx2y2   :     0.011598
      dxy     :     0.006918
      f0      :     0.000959  f :     0.006246
      f+1     :     0.002098
      f-1     :     0.000179
      f+2     :     0.001509
      f-2     :     0.000791
      f+3     :     0.000432
      f-3     :     0.000279
  1 C s       :     2.750685  s :     2.750685
      pz      :     0.883830  p :     2.591157
      px      :     1.012496
      py      :     0.694831
      dz2     :     0.313134  d :     0.928488
      dxz     :     0.234075
      dyz     :     0.166838
      dx2y2   :     0.109696
      dxy     :     0.104746
      f0      :     0.032547  f :     0.154569
      f+1     :     0.048689
      f-1     :     0.015901
      f+2     :     0.019519
      f-2     :     0.020882
      f+3     :     0.008359
      f-3     :     0.008672
  2 O s       :     3.221815  s :     3.221815
      pz      :     1.418356  p :     4.348699
      px      :     1.359244
      py      :     1.571099
      dz2     :     0.031550  d :     0.070747
      dxz     :     0.017083
      dyz     :     0.009309
      dx2y2   :     0.012098
      dxy     :     0.000707
      f0      :     0.002067  f :     0.005344
      f+1     :     0.001569
      f-1     :     0.000728
      f+2     :     0.000203
      f-2     :     0.000027
      f+3     :     0.000529
      f-3     :     0.000221
  3 C s       :     2.683183  s :     2.683183
      pz      :     0.990358  p :     2.866247
      px      :     0.927730
      py      :     0.948159
      dz2     :     0.128843  d :     0.476769
      dxz     :     0.050920
      dyz     :     0.069415
      dx2y2   :     0.134345
      dxy     :     0.093246
      f0      :     0.005862  f :     0.051126
      f+1     :     0.005664
      f-1     :     0.006593
      f+2     :     0.007911
      f-2     :     0.006333
      f+3     :     0.008082
      f-3     :     0.010681
  4 C s       :     2.686783  s :     2.686783
      pz      :     0.994595  p :     2.883255
      px      :     0.940073
      py      :     0.948587
      dz2     :     0.103110  d :     0.398339
      dxz     :     0.059658
      dyz     :     0.045817
      dx2y2   :     0.087749
      dxy     :     0.102004
      f0      :     0.005548  f :     0.040479
      f+1     :     0.004848
      f-1     :     0.003411
      f+2     :     0.006495
      f-2     :     0.005661
      f+3     :     0.006277
      f-3     :     0.008239
  5 C s       :     2.689416  s :     2.689416
      pz      :     0.993425  p :     2.892271
      px      :     0.935833
      py      :     0.963013
      dz2     :     0.104298  d :     0.400866
      dxz     :     0.058411
      dyz     :     0.046998
      dx2y2   :     0.091941
      dxy     :     0.099218
      f0      :     0.005658  f :     0.040582
      f+1     :     0.004793
      f-1     :     0.003387
      f+2     :     0.006640
      f-2     :     0.005413
      f+3     :     0.006289
      f-3     :     0.008403
  6 C s       :     2.690140  s :     2.690140
      pz      :     0.987944  p :     2.894550
      px      :     0.973727
      py      :     0.932879
      dz2     :     0.115584  d :     0.401180
      dxz     :     0.027025
      dyz     :     0.066784
      dx2y2   :     0.116527
      dxy     :     0.075259
      f0      :     0.005252  f :     0.040562
      f+1     :     0.002867
      f-1     :     0.006257
      f+2     :     0.005279
      f-2     :     0.006840
      f+3     :     0.006329
      f-3     :     0.007738
  7 C s       :     2.689416  s :     2.689416
      pz      :     0.993425  p :     2.892268
      px      :     0.935833
      py      :     0.963010
      dz2     :     0.104293  d :     0.400867
      dxz     :     0.058411
      dyz     :     0.047002
      dx2y2   :     0.091943
      dxy     :     0.099217
      f0      :     0.005658  f :     0.040582
      f+1     :     0.004793
      f-1     :     0.003387
      f+2     :     0.006640
      f-2     :     0.005413
      f+3     :     0.006289
      f-3     :     0.008403
  8 C s       :     2.686782  s :     2.686782
      pz      :     0.994594  p :     2.883254
      px      :     0.940072
      py      :     0.948589
      dz2     :     0.103115  d :     0.398340
      dxz     :     0.059659
      dyz     :     0.045814
      dx2y2   :     0.087749
      dxy     :     0.102004
      f0      :     0.005548  f :     0.040479
      f+1     :     0.004848
      f-1     :     0.003412
      f+2     :     0.006495
      f-2     :     0.005661
      f+3     :     0.006277
      f-3     :     0.008239
  9 H s       :     0.670908  s :     0.670908
      pz      :     0.066698  p :     0.322395
      px      :     0.163370
      py      :     0.092328
      dz2     :     0.009912  d :     0.096317
      dxz     :     0.028890
      dyz     :     0.000498
      dx2y2   :     0.024281
      dxy     :     0.032736
 10 H s       :     0.781653  s :     0.781653
      pz      :     0.073099  p :     0.146089
      px      :     0.033739
      py      :     0.039250
      dz2     :     0.011301  d :     0.031585
      dxz     :     0.009881
      dyz     :     0.010090
      dx2y2   :     0.000257
      dxy     :     0.000056
 11 H s       :     0.799656  s :     0.799656
      pz      :     0.043828  p :     0.148010
      px      :     0.045679
      py      :     0.058503
      dz2     :     0.005115  d :     0.030218
      dxz     :     0.002576
      dyz     :     0.006875
      dx2y2   :     0.008196
      dxy     :     0.007456
 12 H s       :     0.797805  s :     0.797805
      pz      :     0.070866  p :     0.148072
      px      :     0.039431
      py      :     0.037774
      dz2     :     0.010570  d :     0.030509
      dxz     :     0.009682
      dyz     :     0.009798
      dx2y2   :     0.000366
      dxy     :     0.000093
 13 H s       :     0.804258  s :     0.804258
      pz      :     0.044062  p :     0.148964
      px      :     0.045418
      py      :     0.059485
      dz2     :     0.005213  d :     0.030244
      dxz     :     0.002598
      dyz     :     0.006823
      dx2y2   :     0.008216
      dxy     :     0.007394
 14 H s       :     0.801668  s :     0.801668
      pz      :     0.069619  p :     0.147378
      px      :     0.038997
      py      :     0.038761
      dz2     :     0.010320  d :     0.030176
      dxz     :     0.009531
      dyz     :     0.009910
      dx2y2   :     0.000332
      dxy     :     0.000083
 15 H s       :     0.802841  s :     0.802841
      pz      :     0.069758  p :     0.147550
      px      :     0.038470
      py      :     0.039322
      dz2     :     0.010475  d :     0.030191
      dxz     :     0.009718
      dyz     :     0.009784
      dx2y2   :     0.000182
      dxy     :     0.000033
 16 H s       :     0.805780  s :     0.805780
      pz      :     0.041716  p :     0.149070
      px      :     0.066854
      py      :     0.040500
      dz2     :     0.004057  d :     0.030211
      dxz     :     0.008922
      dyz     :     0.000402
      dx2y2   :     0.007493
      dxy     :     0.009337
 17 H s       :     0.804257  s :     0.804257
      pz      :     0.044063  p :     0.148965
      px      :     0.045418
      py      :     0.059484
      dz2     :     0.005214  d :     0.030244
      dxz     :     0.002598
      dyz     :     0.006823
      dx2y2   :     0.008216
      dxy     :     0.007393
 18 H s       :     0.801671  s :     0.801671
      pz      :     0.069619  p :     0.147378
      px      :     0.038997
      py      :     0.038762
      dz2     :     0.010320  d :     0.030176
      dxz     :     0.009531
      dyz     :     0.009911
      dx2y2   :     0.000332
      dxy     :     0.000083
 19 H s       :     0.799656  s :     0.799656
      pz      :     0.043827  p :     0.148009
      px      :     0.045679
      py      :     0.058503
      dz2     :     0.005115  d :     0.030218
      dxz     :     0.002576
      dyz     :     0.006875
      dx2y2   :     0.008196
      dxy     :     0.007456
 20 H s       :     0.797803  s :     0.797803
      pz      :     0.070867  p :     0.148072
      px      :     0.039432
      py      :     0.037774
      dz2     :     0.010570  d :     0.030509
      dxz     :     0.009682
      dyz     :     0.009798
      dx2y2   :     0.000366
      dxy     :     0.000093


                      *****************************
                      * MAYER POPULATION ANALYSIS *
                      *****************************

  NA   - Mulliken gross atomic population
  ZA   - Total nuclear charge
  QA   - Mulliken gross atomic charge
  VA   - Mayer's total valence
  BVA  - Mayer's bonded valence
  FA   - Mayer's free valence

  ATOM       NA         ZA         QA         VA         BVA        FA
  0 O      8.3479     8.0000    -0.3479     2.1553     2.1553    -0.0000
  1 C      5.7351     6.0000     0.2649     4.2999     4.2999    -0.0000
  2 O      8.2693     8.0000    -0.2693     2.1415     2.1415     0.0000
  3 C      5.9806     6.0000     0.0194     3.6663     3.6663     0.0000
  4 C      6.2232     6.0000    -0.2232     3.7821     3.7821     0.0000
  5 C      6.2061     6.0000    -0.2061     3.7965     3.7965     0.0000
  6 C      6.1903     6.0000    -0.1903     3.7768     3.7768    -0.0000
  7 C      6.2058     6.0000    -0.2058     3.7964     3.7964    -0.0000
  8 C      6.2232     6.0000    -0.2232     3.7821     3.7821     0.0000
  9 H      0.7955     1.0000     0.2045     1.0404     1.0404    -0.0000
 10 H      0.9050     1.0000     0.0950     1.0285     1.0285     0.0000
 11 H      0.8820     1.0000     0.1180     0.9969     0.9969     0.0000
 12 H      0.8841     1.0000     0.1159     1.0095     1.0095     0.0000
 13 H      0.8975     1.0000     0.1025     0.9970     0.9970     0.0000
 14 H      0.8964     1.0000     0.1036     0.9947     0.9947     0.0000
 15 H      0.9010     1.0000     0.0990     0.9962     0.9962    -0.0000
 16 H      0.8967     1.0000     0.1033     0.9967     0.9967    -0.0000
 17 H      0.8976     1.0000     0.1024     0.9970     0.9970    -0.0000
 18 H      0.8966     1.0000     0.1034     0.9948     0.9948     0.0000
 19 H      0.8820     1.0000     0.1180     0.9969     0.9969    -0.0000
 20 H      0.8840     1.0000     0.1160     1.0096     1.0096     0.0000

  Mayer bond orders larger than 0.100000
B(  0-O ,  1-C ) :   2.1197 B(  1-C ,  2-O ) :   1.2005 B(  1-C ,  3-C ) :   0.9262 
B(  2-O ,  9-H ) :   0.9671 B(  3-C ,  4-C ) :   0.9105 B(  3-C ,  8-C ) :   0.9105 
B(  3-C , 10-H ) :   1.0078 B(  4-C ,  5-C ) :   0.8985 B(  4-C , 11-H ) :   0.9952 
B(  4-C , 12-H ) :   0.9970 B(  5-C ,  6-C ) :   0.9017 B(  5-C , 13-H ) :   1.0052 
B(  5-C , 14-H ) :   1.0068 B(  6-C ,  7-C ) :   0.9016 B(  6-C , 15-H ) :   1.0049 
B(  6-C , 16-H ) :   1.0041 B(  7-C ,  8-C ) :   0.8985 B(  7-C , 17-H ) :   1.0052 
B(  7-C , 18-H ) :   1.0068 B(  8-C , 19-H ) :   0.9952 B(  8-C , 20-H ) :   0.9971 


-------
TIMINGS
-------

Total SCF time: 0 days 0 hours 1 min 1 sec 

Total time                  ....      61.330 sec
Sum of individual times     ....      59.593 sec  ( 97.2%)

Fock matrix formation       ....      56.613 sec  ( 92.3%)
  Split-RI-J                ....       2.289 sec  (  4.0% of F)
  Chain of spheres X        ....      43.027 sec  ( 76.0% of F)
  XC integration            ....       7.128 sec  ( 12.6% of F)
    Basis function eval.    ....       0.868 sec  ( 12.2% of XC)
    Density eval.           ....       2.535 sec  ( 35.6% of XC)
    XC-Functional eval.     ....       0.264 sec  (  3.7% of XC)
    XC-Potential eval.      ....       2.975 sec  ( 41.7% of XC)
Diagonalization             ....       0.286 sec  (  0.5%)
Density matrix formation    ....       0.019 sec  (  0.0%)
Population analysis         ....       0.037 sec  (  0.1%)
Initial guess               ....       1.244 sec  (  2.0%)
Orbital Transformation      ....       0.000 sec  (  0.0%)
Orbital Orthonormalization  ....       0.000 sec  (  0.0%)
DIIS solution               ....       0.141 sec  (  0.2%)
SOSCF solution              ....       0.122 sec  (  0.2%)
Grid generation             ....       1.132 sec  (  1.8%)

Maximum memory used throughout the entire SCF-calculation: 95.7 MB

-------------------------   --------------------
FINAL SINGLE POINT ENERGY      -424.460211285110
-------------------------   --------------------


                            ***************************************
                            *     ORCA property calculations      *
                            ***************************************

                                    ---------------------
                                    Active property flags
                                    ---------------------
   (+) Dipole Moment


------------------------------------------------------------------------------
                       ORCA ELECTRIC PROPERTIES CALCULATION
------------------------------------------------------------------------------

Dipole Moment Calculation                       ... on
Quadrupole Moment Calculation                   ... off
Polarizability Calculation                      ... off
GBWName                                         ... /tmp/265187/Ac7_rdkit_conf_3_spc.gbw
Electron density                                ... /tmp/265187/Ac7_rdkit_conf_3_spc.scfp
The origin for moment calculation is the CENTER OF MASS  = (-0.161978, -0.000001 -0.012108)

-------------
DIPOLE MOMENT
-------------
                                X             Y             Z
Electronic contribution:    -10.61082       0.00000      -0.26210
Nuclear contribution   :     11.33849       0.00003       0.84757
                        -----------------------------------------
Total Dipole Moment    :      0.72767       0.00004       0.58547
                        -----------------------------------------
Magnitude (a.u.)       :      0.93396
Magnitude (Debye)      :      2.37393



--------------------
Rotational spectrum 
--------------------
 
Rotational constants in cm-1:     0.107722     0.034715     0.031656 
Rotational constants in MHz :  3229.426943  1040.719170   949.018875 

 Dipole components along the rotational axes: 
x,y,z [a.u.] :     0.733020    -0.000040     0.578756 
x,y,z [Debye]:     1.863189    -0.000101     1.471080 

 

Timings for individual modules:

Sum of individual times         ...       62.810 sec (=   1.047 min)
GTO integral calculation        ...        1.191 sec (=   0.020 min)   1.9 %
SCF iterations                  ...       61.620 sec (=   1.027 min)  98.1 %
                             ****ORCA TERMINATED NORMALLY****
TOTAL RUN TIME: 0 days 0 hours 1 minutes 3 seconds 480 msec
