Job Start Time: Mon Jan 29 12:53:41 MST 2024
SLURM Job ID: 229701
SLURM Job Name: Ac3_rdkit_conf_1_AD_EA
 Entering Gaussian System, Link 0=/opt/apps/Gaussian/G16C/g16/g16
 Initial command:
 /opt/apps/Gaussian/G16C/g16/l1.exe "/tmp/Gau-70508.inp" -scrdir="/tmp/"
 Entering Link 1 = /opt/apps/Gaussian/G16C/g16/l1.exe PID=     70509.
  
 Copyright (c) 1988-2019, Gaussian, Inc.  All Rights Reserved.
  
 This is part of the Gaussian(R) 16 program.  It is based on
 the Gaussian(R) 09 system (copyright 2009, Gaussian, Inc.),
 the Gaussian(R) 03 system (copyright 2003, Gaussian, Inc.),
 the Gaussian(R) 98 system (copyright 1998, Gaussian, Inc.),
 the Gaussian(R) 94 system (copyright 1995, Gaussian, Inc.),
 the Gaussian 92(TM) system (copyright 1992, Gaussian, Inc.),
 the Gaussian 90(TM) system (copyright 1990, Gaussian, Inc.),
 the Gaussian 88(TM) system (copyright 1988, Gaussian, Inc.),
 the Gaussian 86(TM) system (copyright 1986, Carnegie Mellon
 University), and the Gaussian 82(TM) system (copyright 1983,
 Carnegie Mellon University). Gaussian is a federally registered
 trademark of Gaussian, Inc.
  
 This software contains proprietary and confidential information,
 including trade secrets, belonging to Gaussian, Inc.
  
 This software is provided under written license and may be
 used, copied, transmitted, or stored only in accord with that
 written license.
  
 The following legend is applicable only to US Government
 contracts under FAR:
  
                    RESTRICTED RIGHTS LEGEND
  
 Use, reproduction and disclosure by the US Government is
 subject to restrictions as set forth in subparagraphs (a)
 and (c) of the Commercial Computer Software - Restricted
 Rights clause in FAR 52.227-19.
  
 Gaussian, Inc.
 340 Quinnipiac St., Bldg. 40, Wallingford CT 06492
  
  
 ---------------------------------------------------------------
 Warning -- This program may not be used in any manner that
 competes with the business of Gaussian, Inc. or will provide
 assistance to any competitor of Gaussian, Inc.  The licensee
 of this program is prohibited from giving any competitor of
 Gaussian, Inc. access to this program.  By using this program,
 the user acknowledges that Gaussian, Inc. is engaged in the
 business of creating and licensing software in the field of
 computational chemistry and represents and warrants to the
 licensee that it is not a competitor of Gaussian, Inc. and that
 it will not use this program in any manner prohibited above.
 ---------------------------------------------------------------
  

 Cite this work as:
 Gaussian 16, Revision C.01,
 M. J. Frisch, G. W. Trucks, H. B. Schlegel, G. E. Scuseria, 
 M. A. Robb, J. R. Cheeseman, G. Scalmani, V. Barone, 
 G. A. Petersson, H. Nakatsuji, X. Li, M. Caricato, A. V. Marenich, 
 J. Bloino, B. G. Janesko, R. Gomperts, B. Mennucci, H. P. Hratchian, 
 J. V. Ortiz, A. F. Izmaylov, J. L. Sonnenberg, D. Williams-Young, 
 F. Ding, F. Lipparini, F. Egidi, J. Goings, B. Peng, A. Petrone, 
 T. Henderson, D. Ranasinghe, V. G. Zakrzewski, J. Gao, N. Rega, 
 G. Zheng, W. Liang, M. Hada, M. Ehara, K. Toyota, R. Fukuda, 
 J. Hasegawa, M. Ishida, T. Nakajima, Y. Honda, O. Kitao, H. Nakai, 
 T. Vreven, K. Throssell, J. A. Montgomery, Jr., J. E. Peralta, 
 F. Ogliaro, M. J. Bearpark, J. J. Heyd, E. N. Brothers, K. N. Kudin, 
 V. N. Staroverov, T. A. Keith, R. Kobayashi, J. Normand, 
 K. Raghavachari, A. P. Rendell, J. C. Burant, S. S. Iyengar, 
 J. Tomasi, M. Cossi, J. M. Millam, M. Klene, C. Adamo, R. Cammi, 
 J. W. Ochterski, R. L. Martin, K. Morokuma, O. Farkas, 
 J. B. Foresman, and D. J. Fox, Gaussian, Inc., Wallingford CT, 2019.
 
 ******************************************
 Gaussian 16:  AS64L-G16RevC.01  3-Jul-2019
                29-Jan-2024 
 ******************************************
 %nprocshared=8
 Will use up to    8 processors via shared memory.
 %mem=16GB
 ---------------------------------
 # m062x/def2tzvp opt freq=noraman
 ---------------------------------
 1/18=20,19=15,26=3,38=1/1,3;
 2/9=110,12=2,17=6,18=5,40=1/2;
 3/5=44,7=101,11=2,25=1,30=1,71=1,74=-55/1,2,3;
 4//1;
 5/5=2,38=5/2;
 6/7=2,8=2,9=2,10=2,28=1/1;
 7//1,2,3,16;
 1/18=20,19=15,26=3/3(2);
 2/9=110/2;
 99//99;
 2/9=110/2;
 3/5=44,7=101,11=2,25=1,30=1,71=1,74=-55/1,2,3;
 4/5=5,16=3,69=1/1;
 5/5=2,38=5/2;
 7//1,2,3,16;
 1/18=20,19=15,26=3/3(-5);
 2/9=110/2;
 6/7=2,8=2,9=2,10=2,19=2,28=1/1;
 99/9=1/99;
 ----------------------
 Ac3_rdkit_conf_1_AD_EA
 ----------------------
 Symbolic Z-matrix:
 Charge = -1 Multiplicity = 2
 O                    -0.67005   3.85444  -0.0003 
 C                     0.26848   3.10948  -0.00007 
 O                     1.54143   3.53322  -0.00003 
 C                     0.1568    1.62291   0.00021 
 C                    -1.12163   1.06904  -0.00005 
 C                    -1.26496  -0.3033    0.00047 
 C                    -2.62736  -0.94335  -0.00004 
 F                    -3.60801  -0.04189   0.00244 
 F                    -2.79498  -1.72592   1.07261 
 F                    -2.79629  -1.72136  -1.0758 
 C                    -0.14962  -1.13603   0.00125 
 C                     1.11228  -0.57431   0.00159 
 C                     2.34455  -1.4386    0.0001 
 F                     2.04785  -2.73844   0.02113 
 F                     3.11698  -1.18412   1.06229 
 F                     3.09329  -1.21392  -1.08566 
 C                     1.27525   0.80632   0.00099 
 H                     1.5225    4.50103  -0.00015 
 H                    -1.98077   1.72609  -0.00046 
 H                    -0.27125  -2.21142   0.00197 
 H                     2.26616   1.24093   0.00151 
 

 GradGradGradGradGradGradGradGradGradGradGradGradGradGradGradGradGradGrad
 Berny optimization.
 Initialization pass.
                           ----------------------------
                           !    Initial Parameters    !
                           ! (Angstroms and Degrees)  !
 --------------------------                            --------------------------
 ! Name  Definition              Value          Derivative Info.                !
 --------------------------------------------------------------------------------
 ! R1    R(1,2)                  1.1982         estimate D2E/DX2                !
 ! R2    R(2,3)                  1.3416         estimate D2E/DX2                !
 ! R3    R(2,4)                  1.4908         estimate D2E/DX2                !
 ! R4    R(3,18)                 0.968          estimate D2E/DX2                !
 ! R5    R(4,5)                  1.3932         estimate D2E/DX2                !
 ! R6    R(4,17)                 1.3848         estimate D2E/DX2                !
 ! R7    R(5,6)                  1.3798         estimate D2E/DX2                !
 ! R8    R(5,19)                 1.0816         estimate D2E/DX2                !
 ! R9    R(6,7)                  1.5053         estimate D2E/DX2                !
 ! R10   R(6,11)                 1.3919         estimate D2E/DX2                !
 ! R11   R(7,8)                  1.332          estimate D2E/DX2                !
 ! R12   R(7,9)                  1.3383         estimate D2E/DX2                !
 ! R13   R(7,10)                 1.3383         estimate D2E/DX2                !
 ! R14   R(11,12)                1.3813         estimate D2E/DX2                !
 ! R15   R(11,20)                1.0823         estimate D2E/DX2                !
 ! R16   R(12,13)                1.5052         estimate D2E/DX2                !
 ! R17   R(12,17)                1.3902         estimate D2E/DX2                !
 ! R18   R(13,14)                1.3334         estimate D2E/DX2                !
 ! R19   R(13,15)                1.3378         estimate D2E/DX2                !
 ! R20   R(13,16)                1.3379         estimate D2E/DX2                !
 ! R21   R(17,21)                1.082          estimate D2E/DX2                !
 ! A1    A(1,2,3)              123.1481         estimate D2E/DX2                !
 ! A2    A(1,2,4)              124.1444         estimate D2E/DX2                !
 ! A3    A(3,2,4)              112.7075         estimate D2E/DX2                !
 ! A4    A(2,3,18)             107.2907         estimate D2E/DX2                !
 ! A5    A(2,4,5)              117.7206         estimate D2E/DX2                !
 ! A6    A(2,4,17)             121.8373         estimate D2E/DX2                !
 ! A7    A(5,4,17)             120.442          estimate D2E/DX2                !
 ! A8    A(4,5,6)              119.3869         estimate D2E/DX2                !
 ! A9    A(4,5,19)             119.1682         estimate D2E/DX2                !
 ! A10   A(6,5,19)             121.4449         estimate D2E/DX2                !
 ! A11   A(5,6,7)              121.1266         estimate D2E/DX2                !
 ! A12   A(5,6,11)             120.7831         estimate D2E/DX2                !
 ! A13   A(7,6,11)             118.0903         estimate D2E/DX2                !
 ! A14   A(6,7,8)              112.245          estimate D2E/DX2                !
 ! A15   A(6,7,9)              111.2066         estimate D2E/DX2                !
 ! A16   A(6,7,10)             111.2055         estimate D2E/DX2                !
 ! A17   A(8,7,9)              107.5793         estimate D2E/DX2                !
 ! A18   A(8,7,10)             107.5771         estimate D2E/DX2                !
 ! A19   A(9,7,10)             106.7685         estimate D2E/DX2                !
 ! A20   A(6,11,12)            119.2586         estimate D2E/DX2                !
 ! A21   A(6,11,20)            120.293          estimate D2E/DX2                !
 ! A22   A(12,11,20)           120.4484         estimate D2E/DX2                !
 ! A23   A(11,12,13)           120.9593         estimate D2E/DX2                !
 ! A24   A(11,12,17)           120.7278         estimate D2E/DX2                !
 ! A25   A(13,12,17)           118.3128         estimate D2E/DX2                !
 ! A26   A(12,13,14)           112.183          estimate D2E/DX2                !
 ! A27   A(12,13,15)           111.2661         estimate D2E/DX2                !
 ! A28   A(12,13,16)           111.2572         estimate D2E/DX2                !
 ! A29   A(14,13,15)           107.5405         estimate D2E/DX2                !
 ! A30   A(14,13,16)           107.5194         estimate D2E/DX2                !
 ! A31   A(15,13,16)           106.8149         estimate D2E/DX2                !
 ! A32   A(4,17,12)            119.4016         estimate D2E/DX2                !
 ! A33   A(4,17,21)            120.1845         estimate D2E/DX2                !
 ! A34   A(12,17,21)           120.4139         estimate D2E/DX2                !
 ! D1    D(1,2,3,18)             0.0034         estimate D2E/DX2                !
 ! D2    D(4,2,3,18)          -179.9958         estimate D2E/DX2                !
 ! D3    D(1,2,4,5)              0.0122         estimate D2E/DX2                !
 ! D4    D(1,2,4,17)          -179.9747         estimate D2E/DX2                !
 ! D5    D(3,2,4,5)           -179.9887         estimate D2E/DX2                !
 ! D6    D(3,2,4,17)             0.0245         estimate D2E/DX2                !
 ! D7    D(2,4,5,6)           -179.9872         estimate D2E/DX2                !
 ! D8    D(2,4,5,19)             0.0007         estimate D2E/DX2                !
 ! D9    D(17,4,5,6)            -0.0002         estimate D2E/DX2                !
 ! D10   D(17,4,5,19)          179.9877         estimate D2E/DX2                !
 ! D11   D(2,4,17,12)          179.9829         estimate D2E/DX2                !
 ! D12   D(2,4,17,21)            0.0059         estimate D2E/DX2                !
 ! D13   D(5,4,17,12)           -0.0036         estimate D2E/DX2                !
 ! D14   D(5,4,17,21)         -179.9806         estimate D2E/DX2                !
 ! D15   D(4,5,6,7)           -179.9888         estimate D2E/DX2                !
 ! D16   D(4,5,6,11)            -0.0001         estimate D2E/DX2                !
 ! D17   D(19,5,6,7)             0.0235         estimate D2E/DX2                !
 ! D18   D(19,5,6,11)         -179.9878         estimate D2E/DX2                !
 ! D19   D(5,6,7,8)             -0.1602         estimate D2E/DX2                !
 ! D20   D(5,6,7,9)           -120.7383         estimate D2E/DX2                !
 ! D21   D(5,6,7,10)           120.4143         estimate D2E/DX2                !
 ! D22   D(11,6,7,8)           179.8508         estimate D2E/DX2                !
 ! D23   D(11,6,7,9)            59.2727         estimate D2E/DX2                !
 ! D24   D(11,6,7,10)          -59.5747         estimate D2E/DX2                !
 ! D25   D(5,6,11,12)            0.0043         estimate D2E/DX2                !
 ! D26   D(5,6,11,20)          179.9805         estimate D2E/DX2                !
 ! D27   D(7,6,11,12)          179.9933         estimate D2E/DX2                !
 ! D28   D(7,6,11,20)           -0.0305         estimate D2E/DX2                !
 ! D29   D(6,11,12,13)        -179.8966         estimate D2E/DX2                !
 ! D30   D(6,11,12,17)          -0.0082         estimate D2E/DX2                !
 ! D31   D(20,11,12,13)          0.1273         estimate D2E/DX2                !
 ! D32   D(20,11,12,17)       -179.9843         estimate D2E/DX2                !
 ! D33   D(11,12,13,14)         -1.0499         estimate D2E/DX2                !
 ! D34   D(11,12,13,15)       -121.5771         estimate D2E/DX2                !
 ! D35   D(11,12,13,16)        119.444          estimate D2E/DX2                !
 ! D36   D(17,12,13,14)        179.0591         estimate D2E/DX2                !
 ! D37   D(17,12,13,15)         58.5319         estimate D2E/DX2                !
 ! D38   D(17,12,13,16)        -60.4471         estimate D2E/DX2                !
 ! D39   D(11,12,17,4)           0.0079         estimate D2E/DX2                !
 ! D40   D(11,12,17,21)        179.9848         estimate D2E/DX2                !
 ! D41   D(13,12,17,4)         179.8992         estimate D2E/DX2                !
 ! D42   D(13,12,17,21)         -0.1239         estimate D2E/DX2                !
 --------------------------------------------------------------------------------
 Trust Radius=3.00D-01 FncErr=1.00D-07 GrdErr=1.00D-06 EigMax=2.50D+02 EigMin=1.00D-04
 Number of steps in this run=    107 maximum allowed number of steps=    126.
 GradGradGradGradGradGradGradGradGradGradGradGradGradGradGradGradGradGrad

                          Input orientation:                          
 ---------------------------------------------------------------------
 Center     Atomic      Atomic             Coordinates (Angstroms)
 Number     Number       Type             X           Y           Z
 ---------------------------------------------------------------------
      1          8           0       -0.670054    3.854440   -0.000298
      2          6           0        0.268476    3.109484   -0.000070
      3          8           0        1.541432    3.533217   -0.000025
      4          6           0        0.156797    1.622910    0.000214
      5          6           0       -1.121626    1.069042   -0.000049
      6          6           0       -1.264958   -0.303300    0.000469
      7          6           0       -2.627355   -0.943352   -0.000042
      8          9           0       -3.608006   -0.041886    0.002441
      9          9           0       -2.794981   -1.725924    1.072605
     10          9           0       -2.796293   -1.721364   -1.075801
     11          6           0       -0.149622   -1.136028    0.001246
     12          6           0        1.112276   -0.574307    0.001587
     13          6           0        2.344553   -1.438597    0.000096
     14          9           0        2.047851   -2.738436    0.021133
     15          9           0        3.116982   -1.184121    1.062286
     16          9           0        3.093293   -1.213924   -1.085657
     17          6           0        1.275245    0.806318    0.000992
     18          1           0        1.522502    4.501026   -0.000151
     19          1           0       -1.980774    1.726087   -0.000457
     20          1           0       -0.271248   -2.211422    0.001967
     21          1           0        2.266165    1.240928    0.001511
 ---------------------------------------------------------------------
                    Distance matrix (angstroms):
                    1          2          3          4          5
     1  O    0.000000
     2  C    1.198248   0.000000
     3  O    2.234693   1.341628   0.000000
     4  C    2.379792   1.490763   2.359340   0.000000
     5  C    2.821765   2.468965   3.628228   1.393246   0.000000
     6  C    4.200085   3.741459   4.753387   2.394091   1.379807
     7  C    5.181683   4.981096   6.117063   3.786450   2.513354
     8  F    4.879849   4.995823   6.268818   4.116466   2.723280
     9  F    6.066869   5.823794   6.900259   4.591046   3.429656
    10  F    6.063595   5.821263   6.898099   4.589414   3.427553
    11  C    5.017532   4.266050   4.966036   2.775902   2.409798
    12  C    4.773940   3.779195   4.129883   2.395977   2.773250
    13  C    6.091313   4.999514   5.036262   3.762858   4.278160
    14  F    7.131163   6.112675   6.292101   4.753721   4.954081
    15  F    6.392012   5.260953   5.085680   4.215461   4.916411
    16  F    6.405396   5.277305   5.110990   4.224897   4.914877
    17  C    3.615970   2.513595   2.739860   1.384828   2.411227
    18  H    2.285908   1.873225   0.967994   3.185703   4.332427
    19  H    2.499575   2.640627   3.958744   2.140060   1.081593
    20  H    6.078958   5.348210   6.023843   3.858151   3.388892
    21  H    3.930882   2.735373   2.404128   2.143676   3.392149
                    6          7          8          9         10
     6  C    0.000000
     7  C    1.505255   0.000000
     8  F    2.357587   1.332037   0.000000
     9  F    2.348256   1.338316   2.154587   0.000000
    10  F    2.348244   1.338320   2.154560   2.148411   0.000000
    11  C    1.391909   2.485214   3.627336   2.914397   2.916765
    12  C    2.392632   3.757797   4.750214   4.211883   4.213480
    13  C    3.783843   4.996512   6.114227   5.258103   5.259830
    14  F    4.111571   5.008026   6.265816   5.058043   5.069855
    15  F    4.593985   5.846701   6.903147   5.936747   6.310853
    16  F    4.582931   5.829029   6.889488   6.292218   5.911414
    17  C    2.771982   4.276872   4.956369   4.911959   4.911831
    18  H    5.554411   6.845624   6.852749   7.652867   7.650304
    19  H    2.151931   2.746629   2.402836   3.705506   3.702209
    20  H    2.151370   2.675677   3.980055   2.784098   2.788834
    21  H    3.854020   5.358882   6.012612   5.963611   5.963577
                   11         12         13         14         15
    11  C    0.000000
    12  C    1.381274   0.000000
    13  C    2.512461   1.505160   0.000000
    14  F    2.719742   2.357782   1.333438   0.000000
    15  F    3.434941   2.348574   1.337779   2.154747   0.000000
    16  F    3.421100   2.348539   1.337890   2.154546   2.148280
    17  C    2.408932   1.390210   2.486577   3.628031   2.912076
    18  H    5.879828   5.091885   5.996240   7.258530   5.999336
    19  H    3.397767   3.854708   5.359448   6.013506   5.965388
    20  H    1.082250   2.143428   2.727577   2.378304   3.695907
    21  H    3.389092   2.150939   2.680672   3.985396   2.780287
                   16         17         18         19         20
    16  F    0.000000
    17  C    2.927026   0.000000
    18  H    6.025476   3.702972   0.000000
    19  H    5.963848   3.383436   4.469142   0.000000
    20  H    3.673971   3.390929   6.947985   4.292606   0.000000
    21  H    2.809337   1.082039   3.343842   4.274561   4.284529
                   21
    21  H    0.000000
 Stoichiometry    C9H4F6O2(1-,2)
 Framework group  C1[X(C9H4F6O2)]
 Deg. of freedom    57
 Full point group                 C1      NOp   1
 Largest Abelian subgroup         C1      NOp   1
 Largest concise Abelian subgroup C1      NOp   1
                         Standard orientation:                         
 ---------------------------------------------------------------------
 Center     Atomic      Atomic             Coordinates (Angstroms)
 Number     Number       Type             X           Y           Z
 ---------------------------------------------------------------------
      1          8           0        0.670054    3.854440    0.000298
      2          6           0       -0.268476    3.109484    0.000070
      3          8           0       -1.541432    3.533217    0.000025
      4          6           0       -0.156797    1.622910   -0.000214
      5          6           0        1.121626    1.069042    0.000049
      6          6           0        1.264958   -0.303300   -0.000469
      7          6           0        2.627355   -0.943352    0.000042
      8          9           0        3.608006   -0.041886   -0.002441
      9          9           0        2.794981   -1.725924   -1.072605
     10          9           0        2.796293   -1.721364    1.075801
     11          6           0        0.149622   -1.136028   -0.001246
     12          6           0       -1.112276   -0.574307   -0.001587
     13          6           0       -2.344553   -1.438597   -0.000096
     14          9           0       -2.047851   -2.738436   -0.021133
     15          9           0       -3.116982   -1.184121   -1.062286
     16          9           0       -3.093293   -1.213924    1.085657
     17          6           0       -1.275245    0.806318   -0.000992
     18          1           0       -1.522502    4.501026    0.000151
     19          1           0        1.980774    1.726087    0.000457
     20          1           0        0.271248   -2.211422   -0.001967
     21          1           0       -2.266165    1.240928   -0.001511
 ---------------------------------------------------------------------
 Rotational constants (GHZ):           0.4640807           0.3732519           0.2228687
 Standard basis: def2TZVP (5D, 7F)
 There are   636 symmetry adapted cartesian basis functions of A   symmetry.
 There are   551 symmetry adapted basis functions of A   symmetry.
   551 basis functions,   899 primitive gaussians,   636 cartesian basis functions
    65 alpha electrons       64 beta electrons
       nuclear repulsion energy      1277.6550863679 Hartrees.
 NAtoms=   21 NActive=   21 NUniq=   21 SFac= 1.00D+00 NAtFMM=   60 NAOKFM=F Big=F
 Integral buffers will be    131072 words long.
 Raffenetti 2 integral format.
 Two-electron integral symmetry is turned on.
 One-electron integrals computed using PRISM.
   1 Symmetry operations used in ECPInt.
 ECPInt:  NShTT=   20706 NPrTT=   66816 LenC2=   18048 LenP2D=   41666.
 LDataN:  DoStor=T MaxTD1= 6 Len=  172
 NBasis=   551 RedAO= T EigKep=  6.56D-06  NBF=   551
 NBsUse=   551 1.00D-06 EigRej= -1.00D+00 NBFU=   551
 ExpMin= 9.52D-02 ExpMax= 3.55D+04 ExpMxC= 1.21D+03 IAcc=3 IRadAn=         5 AccDes= 0.00D+00
 Harris functional with IExCor= 1009 and IRadAn=       5 diagonalized for initial guess.
 HarFok:  IExCor= 1009 AccDes= 0.00D+00 IRadAn=         5 IDoV= 1 UseB2=F ITyADJ=14
 ICtDFT=  3500011 ScaDFX=  1.000000  1.000000  1.000000  1.000000
 FoFCou: FMM=F IPFlag=           0 FMFlag=      100000 FMFlg1=           0
         NFxFlg=           0 DoJE=T BraDBF=F KetDBF=T FulRan=T
         wScrn=  0.000000 ICntrl=       500 IOpCl=  0 I1Cent=   200000004 NGrid=           0
         NMat0=    1 NMatS0=      1 NMatT0=    0 NMatD0=    1 NMtDS0=    0 NMtDT0=    0
 Petite list used in FoFCou.
 Initial guess <Sx>= 0.0000 <Sy>= 0.0000 <Sz>= 0.5000 <S**2>= 0.7500 S= 0.5000
 Requested convergence on RMS density matrix=1.00D-08 within 128 cycles.
 Requested convergence on MAX density matrix=1.00D-06.
 Requested convergence on             energy=1.00D-06.
 No special actions if energy rises.
 Integral accuracy reduced to 1.0D-05 until final iterations.
 Problem detected with inexpensive integrals.
 Switching to full accuracy and repeating last cycle.
 SCF Done:  E(UM062X) =  -1095.02480973     A.U. after   23 cycles
            NFock= 23  Conv=0.47D-08     -V/T= 2.0035
 <Sx>= 0.0000 <Sy>= 0.0000 <Sz>= 0.5000 <S**2>= 0.7613 S= 0.5057
 <L.S>=  0.00000000000    
 Annihilation of the first spin contaminant:
 S**2 before annihilation     0.7613,   after     0.7501

 **********************************************************************

            Population analysis using the SCF Density.

 **********************************************************************

 Orbital symmetries:
 Alpha Orbitals:
       Occupied  (A) (A) (A) (A) (A) (A) (A) (A) (A) (A) (A) (A)
                 (A) (A) (A) (A) (A) (A) (A) (A) (A) (A) (A) (A)
                 (A) (A) (A) (A) (A) (A) (A) (A) (A) (A) (A) (A)
                 (A) (A) (A) (A) (A) (A) (A) (A) (A) (A) (A) (A)
                 (A) (A) (A) (A) (A) (A) (A) (A) (A) (A) (A) (A)
                 (A) (A) (A) (A) (A)
       Virtual   (A) (A) (A) (A) (A) (A) (A) (A) (A) (A) (A) (A)
                 (A) (A) (A) (A) (A) (A) (A) (A) (A) (A) (A) (A)
                 (A) (A) (A) (A) (A) (A) (A) (A) (A) (A) (A) (A)
                 (A) (A) (A) (A) (A) (A) (A) (A) (A) (A) (A) (A)
                 (A) (A) (A) (A) (A) (A) (A) (A) (A) (A) (A) (A)
                 (A) (A) (A) (A) (A) (A) (A) (A) (A) (A) (A) (A)
                 (A) (A) (A) (A) (A) (A) (A) (A) (A) (A) (A) (A)
                 (A) (A) (A) (A) (A) (A) (A) (A) (A) (A) (A) (A)
                 (A) (A) (A) (A) (A) (A) (A) (A) (A) (A) (A) (A)
                 (A) (A) (A) (A) (A) (A) (A) (A) (A) (A) (A) (A)
                 (A) (A) (A) (A) (A) (A) (A) (A) (A) (A) (A) (A)
                 (A) (A) (A) (A) (A) (A) (A) (A) (A) (A) (A) (A)
                 (A) (A) (A) (A) (A) (A) (A) (A) (A) (A) (A) (A)
                 (A) (A) (A) (A) (A) (A) (A) (A) (A) (A) (A) (A)
                 (A) (A) (A) (A) (A) (A) (A) (A) (A) (A) (A) (A)
                 (A) (A) (A) (A) (A) (A) (A) (A) (A) (A) (A) (A)
                 (A) (A) (A) (A) (A) (A) (A) (A) (A) (A) (A) (A)
                 (A) (A) (A) (A) (A) (A) (A) (A) (A) (A) (A) (A)
                 (A) (A) (A) (A) (A) (A) (A) (A) (A) (A) (A) (A)
                 (A) (A) (A) (A) (A) (A) (A) (A) (A) (A) (A) (A)
                 (A) (A) (A) (A) (A) (A) (A) (A) (A) (A) (A) (A)
                 (A) (A) (A) (A) (A) (A) (A) (A) (A) (A) (A) (A)
                 (A) (A) (A) (A) (A) (A) (A) (A) (A) (A) (A) (A)
                 (A) (A) (A) (A) (A) (A) (A) (A) (A) (A) (A) (A)
                 (A) (A) (A) (A) (A) (A) (A) (A) (A) (A) (A) (A)
                 (A) (A) (A) (A) (A) (A) (A) (A) (A) (A) (A) (A)
                 (A) (A) (A) (A) (A) (A) (A) (A) (A) (A) (A) (A)
                 (A) (A) (A) (A) (A) (A) (A) (A) (A) (A) (A) (A)
                 (A) (A) (A) (A) (A) (A) (A) (A) (A) (A) (A) (A)
                 (A) (A) (A) (A) (A) (A) (A) (A) (A) (A) (A) (A)
                 (A) (A) (A) (A) (A) (A) (A) (A) (A) (A) (A) (A)
                 (A) (A) (A) (A) (A) (A) (A) (A) (A) (A) (A) (A)
                 (A) (A) (A) (A) (A) (A) (A) (A) (A) (A) (A) (A)
                 (A) (A) (A) (A) (A) (A) (A) (A) (A) (A) (A) (A)
                 (A) (A) (A) (A) (A) (A) (A) (A) (A) (A) (A) (A)
                 (A) (A) (A) (A) (A) (A) (A) (A) (A) (A) (A) (A)
                 (A) (A) (A) (A) (A) (A) (A) (A) (A) (A) (A) (A)
                 (A) (A) (A) (A) (A) (A) (A) (A) (A) (A) (A) (A)
                 (A) (A) (A) (A) (A) (A) (A) (A) (A) (A) (A) (A)
                 (A) (A) (A) (A) (A) (A) (A) (A) (A) (A) (A) (A)
                 (A) (A) (A) (A) (A) (A)
 Beta  Orbitals:
       Occupied  (A) (A) (A) (A) (A) (A) (A) (A) (A) (A) (A) (A)
                 (A) (A) (A) (A) (A) (A) (A) (A) (A) (A) (A) (A)
                 (A) (A) (A) (A) (A) (A) (A) (A) (A) (A) (A) (A)
                 (A) (A) (A) (A) (A) (A) (A) (A) (A) (A) (A) (A)
                 (A) (A) (A) (A) (A) (A) (A) (A) (A) (A) (A) (A)
                 (A) (A) (A) (A)
       Virtual   (A) (A) (A) (A) (A) (A) (A) (A) (A) (A) (A) (A)
                 (A) (A) (A) (A) (A) (A) (A) (A) (A) (A) (A) (A)
                 (A) (A) (A) (A) (A) (A) (A) (A) (A) (A) (A) (A)
                 (A) (A) (A) (A) (A) (A) (A) (A) (A) (A) (A) (A)
                 (A) (A) (A) (A) (A) (A) (A) (A) (A) (A) (A) (A)
                 (A) (A) (A) (A) (A) (A) (A) (A) (A) (A) (A) (A)
                 (A) (A) (A) (A) (A) (A) (A) (A) (A) (A) (A) (A)
                 (A) (A) (A) (A) (A) (A) (A) (A) (A) (A) (A) (A)
                 (A) (A) (A) (A) (A) (A) (A) (A) (A) (A) (A) (A)
                 (A) (A) (A) (A) (A) (A) (A) (A) (A) (A) (A) (A)
                 (A) (A) (A) (A) (A) (A) (A) (A) (A) (A) (A) (A)
                 (A) (A) (A) (A) (A) (A) (A) (A) (A) (A) (A) (A)
                 (A) (A) (A) (A) (A) (A) (A) (A) (A) (A) (A) (A)
                 (A) (A) (A) (A) (A) (A) (A) (A) (A) (A) (A) (A)
                 (A) (A) (A) (A) (A) (A) (A) (A) (A) (A) (A) (A)
                 (A) (A) (A) (A) (A) (A) (A) (A) (A) (A) (A) (A)
                 (A) (A) (A) (A) (A) (A) (A) (A) (A) (A) (A) (A)
                 (A) (A) (A) (A) (A) (A) (A) (A) (A) (A) (A) (A)
                 (A) (A) (A) (A) (A) (A) (A) (A) (A) (A) (A) (A)
                 (A) (A) (A) (A) (A) (A) (A) (A) (A) (A) (A) (A)
                 (A) (A) (A) (A) (A) (A) (A) (A) (A) (A) (A) (A)
                 (A) (A) (A) (A) (A) (A) (A) (A) (A) (A) (A) (A)
                 (A) (A) (A) (A) (A) (A) (A) (A) (A) (A) (A) (A)
                 (A) (A) (A) (A) (A) (A) (A) (A) (A) (A) (A) (A)
                 (A) (A) (A) (A) (A) (A) (A) (A) (A) (A) (A) (A)
                 (A) (A) (A) (A) (A) (A) (A) (A) (A) (A) (A) (A)
                 (A) (A) (A) (A) (A) (A) (A) (A) (A) (A) (A) (A)
                 (A) (A) (A) (A) (A) (A) (A) (A) (A) (A) (A) (A)
                 (A) (A) (A) (A) (A) (A) (A) (A) (A) (A) (A) (A)
                 (A) (A) (A) (A) (A) (A) (A) (A) (A) (A) (A) (A)
                 (A) (A) (A) (A) (A) (A) (A) (A) (A) (A) (A) (A)
                 (A) (A) (A) (A) (A) (A) (A) (A) (A) (A) (A) (A)
                 (A) (A) (A) (A) (A) (A) (A) (A) (A) (A) (A) (A)
                 (A) (A) (A) (A) (A) (A) (A) (A) (A) (A) (A) (A)
                 (A) (A) (A) (A) (A) (A) (A) (A) (A) (A) (A) (A)
                 (A) (A) (A) (A) (A) (A) (A) (A) (A) (A) (A) (A)
                 (A) (A) (A) (A) (A) (A) (A) (A) (A) (A) (A) (A)
                 (A) (A) (A) (A) (A) (A) (A) (A) (A) (A) (A) (A)
                 (A) (A) (A) (A) (A) (A) (A) (A) (A) (A) (A) (A)
                 (A) (A) (A) (A) (A) (A) (A) (A) (A) (A) (A) (A)
                 (A) (A) (A) (A) (A) (A) (A)
 The electronic state is 2-A.
 Alpha  occ. eigenvalues --  -25.15964 -25.15606 -25.15437 -25.15425 -25.15252
 Alpha  occ. eigenvalues --  -25.15249 -19.52304 -19.44561 -10.66438 -10.66157
 Alpha  occ. eigenvalues --  -10.49885 -10.41499 -10.41233 -10.40097 -10.39509
 Alpha  occ. eigenvalues --  -10.38632 -10.38205  -1.34670  -1.34431  -1.25560
 Alpha  occ. eigenvalues --   -1.25286  -1.25076  -1.24886  -1.08703  -0.98703
 Alpha  occ. eigenvalues --   -0.83823  -0.76262  -0.73795  -0.68433  -0.67065
 Alpha  occ. eigenvalues --   -0.61069  -0.59497  -0.58472  -0.57131  -0.56986
 Alpha  occ. eigenvalues --   -0.56949  -0.56532  -0.51171  -0.48068  -0.45960
 Alpha  occ. eigenvalues --   -0.45526  -0.45282  -0.45279  -0.44006  -0.42739
 Alpha  occ. eigenvalues --   -0.41601  -0.41328  -0.41137  -0.41098  -0.40266
 Alpha  occ. eigenvalues --   -0.39372  -0.39320  -0.39167  -0.36850  -0.35722
 Alpha  occ. eigenvalues --   -0.33705  -0.32438  -0.30590  -0.28229  -0.27365
 Alpha  occ. eigenvalues --   -0.26171  -0.20199  -0.18906  -0.18339   0.00807
 Alpha virt. eigenvalues --    0.14650   0.18584   0.21153   0.23026   0.24977
 Alpha virt. eigenvalues --    0.25667   0.27613   0.28328   0.29348   0.30508
 Alpha virt. eigenvalues --    0.31819   0.32268   0.32372   0.33619   0.33807
 Alpha virt. eigenvalues --    0.35691   0.36021   0.38368   0.38572   0.39165
 Alpha virt. eigenvalues --    0.40001   0.41052   0.41179   0.42034   0.42591
 Alpha virt. eigenvalues --    0.42954   0.43260   0.44191   0.45459   0.46196
 Alpha virt. eigenvalues --    0.46320   0.46565   0.46809   0.47431   0.48223
 Alpha virt. eigenvalues --    0.51300   0.51469   0.51881   0.54884   0.55295
 Alpha virt. eigenvalues --    0.55407   0.55482   0.56065   0.56725   0.58333
 Alpha virt. eigenvalues --    0.60093   0.60716   0.62527   0.63498   0.63694
 Alpha virt. eigenvalues --    0.64946   0.66045   0.66911   0.66975   0.67468
 Alpha virt. eigenvalues --    0.68862   0.69122   0.70638   0.71102   0.72043
 Alpha virt. eigenvalues --    0.72333   0.74939   0.76897   0.77967   0.78558
 Alpha virt. eigenvalues --    0.79173   0.79557   0.81262   0.81481   0.83008
 Alpha virt. eigenvalues --    0.84346   0.84865   0.85839   0.86194   0.87611
 Alpha virt. eigenvalues --    0.88414   0.89927   0.90690   0.90838   0.91290
 Alpha virt. eigenvalues --    0.92527   0.92962   0.93198   0.94086   0.94657
 Alpha virt. eigenvalues --    0.95800   0.95947   0.97243   0.98368   0.99260
 Alpha virt. eigenvalues --    1.00484   1.00724   1.01068   1.03310   1.03986
 Alpha virt. eigenvalues --    1.05615   1.07426   1.08830   1.09305   1.09872
 Alpha virt. eigenvalues --    1.11488   1.11569   1.11956   1.12913   1.14333
 Alpha virt. eigenvalues --    1.14986   1.17574   1.18061   1.19086   1.19388
 Alpha virt. eigenvalues --    1.21315   1.21541   1.24142   1.25707   1.27025
 Alpha virt. eigenvalues --    1.29870   1.30212   1.31859   1.33372   1.37941
 Alpha virt. eigenvalues --    1.38970   1.39272   1.42631   1.42706   1.44837
 Alpha virt. eigenvalues --    1.46872   1.49254   1.49959   1.51639   1.51814
 Alpha virt. eigenvalues --    1.52293   1.53783   1.54739   1.55817   1.56485
 Alpha virt. eigenvalues --    1.58426   1.60417   1.62564   1.66290   1.67714
 Alpha virt. eigenvalues --    1.68260   1.69853   1.72210   1.75734   1.75781
 Alpha virt. eigenvalues --    1.77178   1.79810   1.79964   1.80158   1.82569
 Alpha virt. eigenvalues --    1.84668   1.85832   1.86830   1.86985   1.91400
 Alpha virt. eigenvalues --    1.92454   1.93014   1.96110   1.97187   2.01476
 Alpha virt. eigenvalues --    2.02087   2.05270   2.05704   2.06010   2.06645
 Alpha virt. eigenvalues --    2.08089   2.09364   2.11409   2.12039   2.12233
 Alpha virt. eigenvalues --    2.13013   2.13993   2.14828   2.16492   2.17320
 Alpha virt. eigenvalues --    2.19866   2.19944   2.22339   2.24071   2.24787
 Alpha virt. eigenvalues --    2.26497   2.28025   2.28793   2.29858   2.30431
 Alpha virt. eigenvalues --    2.30669   2.31220   2.35197   2.35514   2.37608
 Alpha virt. eigenvalues --    2.39672   2.41647   2.43752   2.44187   2.47329
 Alpha virt. eigenvalues --    2.48608   2.49453   2.50259   2.50448   2.52899
 Alpha virt. eigenvalues --    2.54600   2.56246   2.56705   2.57718   2.59057
 Alpha virt. eigenvalues --    2.59801   2.63974   2.64684   2.65344   2.66462
 Alpha virt. eigenvalues --    2.67313   2.69234   2.70332   2.74321   2.76498
 Alpha virt. eigenvalues --    2.77515   2.77712   2.78537   2.78761   2.78976
 Alpha virt. eigenvalues --    2.81019   2.81266   2.84919   2.87098   2.87914
 Alpha virt. eigenvalues --    2.87971   2.89612   2.90458   2.93444   2.95857
 Alpha virt. eigenvalues --    2.96170   2.98220   2.98422   2.99402   3.00425
 Alpha virt. eigenvalues --    3.02906   3.03184   3.03879   3.04865   3.05196
 Alpha virt. eigenvalues --    3.07655   3.08100   3.10047   3.12005   3.12829
 Alpha virt. eigenvalues --    3.13632   3.14932   3.15278   3.15565   3.16588
 Alpha virt. eigenvalues --    3.18732   3.20713   3.20966   3.21971   3.22117
 Alpha virt. eigenvalues --    3.26351   3.28042   3.28841   3.29477   3.30870
 Alpha virt. eigenvalues --    3.31293   3.31982   3.32277   3.33743   3.33971
 Alpha virt. eigenvalues --    3.34169   3.35722   3.36227   3.36847   3.39754
 Alpha virt. eigenvalues --    3.40041   3.40065   3.42564   3.42925   3.44926
 Alpha virt. eigenvalues --    3.45029   3.45936   3.46431   3.47343   3.47707
 Alpha virt. eigenvalues --    3.50453   3.50643   3.52064   3.53496   3.54873
 Alpha virt. eigenvalues --    3.55322   3.55939   3.57071   3.57179   3.57789
 Alpha virt. eigenvalues --    3.59852   3.61404   3.64331   3.64359   3.65912
 Alpha virt. eigenvalues --    3.69520   3.71063   3.73969   3.75409   3.76557
 Alpha virt. eigenvalues --    3.77226   3.78607   3.80997   3.85838   3.86929
 Alpha virt. eigenvalues --    3.87232   3.88109   3.92145   3.92682   3.92878
 Alpha virt. eigenvalues --    3.93425   3.96452   3.98526   4.00899   4.01569
 Alpha virt. eigenvalues --    4.02071   4.04149   4.05920   4.07684   4.08220
 Alpha virt. eigenvalues --    4.09233   4.12138   4.12372   4.14159   4.14769
 Alpha virt. eigenvalues --    4.16115   4.16580   4.18935   4.18959   4.20274
 Alpha virt. eigenvalues --    4.21309   4.23208   4.23838   4.26418   4.29885
 Alpha virt. eigenvalues --    4.33713   4.34503   4.36119   4.36649   4.40265
 Alpha virt. eigenvalues --    4.44144   4.45332   4.46364   4.48184   4.49246
 Alpha virt. eigenvalues --    4.52947   4.58000   4.58475   4.69453   4.72633
 Alpha virt. eigenvalues --    4.74961   4.78489   4.79901   4.81990   4.84793
 Alpha virt. eigenvalues --    4.90860   4.99282   5.06041   5.07458   5.15075
 Alpha virt. eigenvalues --    5.18855   5.32199   5.32597   5.34987   5.35282
 Alpha virt. eigenvalues --    5.36744   5.38965   5.40901   5.45159   5.45540
 Alpha virt. eigenvalues --    5.49731   5.49876   5.54438   5.54626   5.60919
 Alpha virt. eigenvalues --    5.67604   5.68227   5.70963   5.77103   5.84571
 Alpha virt. eigenvalues --    5.99997   6.06442   6.11502   6.33309   6.45120
 Alpha virt. eigenvalues --    6.47254   6.57604   6.59961   6.68547   6.84573
 Alpha virt. eigenvalues --    6.88164   6.95185   6.95423   6.97531   6.97994
 Alpha virt. eigenvalues --    6.99692   7.00062   7.00230   7.00392   7.00874
 Alpha virt. eigenvalues --    7.01061   7.01163   7.01412   7.01533   7.01732
 Alpha virt. eigenvalues --    7.01881   7.02152   7.02328   7.02925   7.03404
 Alpha virt. eigenvalues --    7.04165   7.09386   7.11982   7.12594   7.13145
 Alpha virt. eigenvalues --    7.13468   7.15823   7.16873   7.19528   7.19822
 Alpha virt. eigenvalues --    7.21980   7.22761   7.27119   7.27826   7.28375
 Alpha virt. eigenvalues --    7.32845   7.49997   7.50230   7.50546   7.51232
 Alpha virt. eigenvalues --    7.54183   7.55452   7.56174   7.64123   7.64470
 Alpha virt. eigenvalues --    7.71633   7.71886   7.74639   7.75297   8.41899
 Alpha virt. eigenvalues --    8.42129   8.44874   8.45116   8.45787   8.46235
 Alpha virt. eigenvalues --    8.58994   8.59537   8.60999   8.61947   8.68537
 Alpha virt. eigenvalues --    8.71511   8.81410   8.81756   8.88714   8.89196
 Alpha virt. eigenvalues --    8.91605   8.92215   9.01242   9.02187   9.06377
 Alpha virt. eigenvalues --    9.07370   9.10534   9.10807   9.12007   9.12289
 Alpha virt. eigenvalues --    9.19308   9.21487   9.26289   9.28074  22.42679
 Alpha virt. eigenvalues --   23.05319  23.07633  23.14443  23.21924  23.32623
 Alpha virt. eigenvalues --   23.33225  23.54050  23.75711  44.14606  44.24015
 Alpha virt. eigenvalues --   57.39481  57.46848  57.53696  57.55617  57.66901
 Alpha virt. eigenvalues --   57.73252
  Beta  occ. eigenvalues --  -25.15966 -25.15601 -25.15432 -25.15420 -25.15248
  Beta  occ. eigenvalues --  -25.15246 -19.52251 -19.44304 -10.66437 -10.66158
  Beta  occ. eigenvalues --  -10.49824 -10.41545 -10.41250 -10.40068 -10.39420
  Beta  occ. eigenvalues --  -10.38385 -10.38068  -1.34668  -1.34421  -1.25561
  Beta  occ. eigenvalues --   -1.25278  -1.25068  -1.24876  -1.08377  -0.98102
  Beta  occ. eigenvalues --   -0.83431  -0.76095  -0.73356  -0.68130  -0.66894
  Beta  occ. eigenvalues --   -0.60444  -0.59301  -0.58285  -0.57141  -0.56931
  Beta  occ. eigenvalues --   -0.56897  -0.56419  -0.50764  -0.47889  -0.45879
  Beta  occ. eigenvalues --   -0.45503  -0.45264  -0.45236  -0.43737  -0.42384
  Beta  occ. eigenvalues --   -0.41339  -0.41297  -0.41073  -0.41058  -0.39940
  Beta  occ. eigenvalues --   -0.39374  -0.39137  -0.37979  -0.36444  -0.35509
  Beta  occ. eigenvalues --   -0.33528  -0.32068  -0.29515  -0.27880  -0.27039
  Beta  occ. eigenvalues --   -0.24286  -0.19754  -0.17542  -0.15737
  Beta virt. eigenvalues --    0.14443   0.14796   0.18661   0.22869   0.24393
  Beta virt. eigenvalues --    0.24816   0.25483   0.27455   0.28242   0.29002
  Beta virt. eigenvalues --    0.30092   0.32166   0.32450   0.32821   0.33294
  Beta virt. eigenvalues --    0.33660   0.35425   0.35802   0.38249   0.38299
  Beta virt. eigenvalues --    0.38921   0.39923   0.41158   0.41188   0.42070
  Beta virt. eigenvalues --    0.42460   0.42968   0.43303   0.44250   0.45497
  Beta virt. eigenvalues --    0.45851   0.46239   0.46285   0.46846   0.47411
  Beta virt. eigenvalues --    0.48531   0.51376   0.51611   0.51902   0.54927
  Beta virt. eigenvalues --    0.55072   0.55230   0.55424   0.55839   0.56796
  Beta virt. eigenvalues --    0.58426   0.60085   0.60622   0.62624   0.63642
  Beta virt. eigenvalues --    0.63918   0.64760   0.65892   0.66805   0.67087
  Beta virt. eigenvalues --    0.67599   0.68823   0.69360   0.70499   0.71187
  Beta virt. eigenvalues --    0.72098   0.72469   0.74723   0.76865   0.77783
  Beta virt. eigenvalues --    0.78739   0.78999   0.79705   0.80916   0.81541
  Beta virt. eigenvalues --    0.82968   0.84219   0.84728   0.85844   0.86222
  Beta virt. eigenvalues --    0.87322   0.88288   0.90077   0.90671   0.91067
  Beta virt. eigenvalues --    0.91404   0.92388   0.92867   0.93233   0.94237
  Beta virt. eigenvalues --    0.94404   0.95496   0.96137   0.98001   0.98217
  Beta virt. eigenvalues --    0.99067   1.00599   1.00770   1.00932   1.03148
  Beta virt. eigenvalues --    1.04138   1.05256   1.07376   1.08904   1.09238
  Beta virt. eigenvalues --    1.09811   1.11512   1.11775   1.11860   1.12765
  Beta virt. eigenvalues --    1.14085   1.14718   1.17534   1.17867   1.18711
  Beta virt. eigenvalues --    1.19016   1.21479   1.21575   1.24428   1.25924
  Beta virt. eigenvalues --    1.27247   1.30268   1.30628   1.31965   1.33402
  Beta virt. eigenvalues --    1.37970   1.39197   1.39420   1.42666   1.43216
  Beta virt. eigenvalues --    1.45168   1.47221   1.49309   1.50418   1.51746
  Beta virt. eigenvalues --    1.52358   1.52653   1.53964   1.55126   1.56535
  Beta virt. eigenvalues --    1.56761   1.58793   1.60757   1.63881   1.66593
  Beta virt. eigenvalues --    1.68530   1.68623   1.69964   1.73338   1.76052
  Beta virt. eigenvalues --    1.76112   1.77324   1.80239   1.80294   1.80371
  Beta virt. eigenvalues --    1.82676   1.85048   1.86724   1.87246   1.87309
  Beta virt. eigenvalues --    1.92819   1.93224   1.93355   1.96419   1.97410
  Beta virt. eigenvalues --    2.02275   2.02497   2.05506   2.06141   2.06203
  Beta virt. eigenvalues --    2.06698   2.08278   2.09646   2.11537   2.12202
  Beta virt. eigenvalues --    2.12474   2.13177   2.14471   2.15254   2.16716
  Beta virt. eigenvalues --    2.17558   2.20281   2.20328   2.22837   2.24377
  Beta virt. eigenvalues --    2.25118   2.26675   2.28435   2.29424   2.30399
  Beta virt. eigenvalues --    2.30464   2.30679   2.31609   2.35605   2.36075
  Beta virt. eigenvalues --    2.37836   2.39889   2.41910   2.44011   2.44502
  Beta virt. eigenvalues --    2.47693   2.48772   2.49696   2.50446   2.50582
  Beta virt. eigenvalues --    2.53431   2.54838   2.56379   2.56805   2.57951
  Beta virt. eigenvalues --    2.59348   2.60247   2.64212   2.65056   2.65631
  Beta virt. eigenvalues --    2.67224   2.67480   2.69488   2.70594   2.74462
  Beta virt. eigenvalues --    2.77222   2.77916   2.78171   2.79118   2.79148
  Beta virt. eigenvalues --    2.80008   2.81583   2.82908   2.86734   2.88274
  Beta virt. eigenvalues --    2.88336   2.89585   2.89993   2.91375   2.93801
  Beta virt. eigenvalues --    2.97046   2.97397   2.98905   2.99330   2.99862
  Beta virt. eigenvalues --    3.01357   3.03422   3.03949   3.04555   3.05407
  Beta virt. eigenvalues --    3.05677   3.07926   3.08645   3.10504   3.12483
  Beta virt. eigenvalues --    3.13882   3.14790   3.15177   3.16055   3.16346
  Beta virt. eigenvalues --    3.17027   3.19197   3.21275   3.21573   3.22649
  Beta virt. eigenvalues --    3.22800   3.27021   3.28888   3.29757   3.30058
  Beta virt. eigenvalues --    3.31323   3.31660   3.32336   3.32893   3.34326
  Beta virt. eigenvalues --    3.34505   3.34551   3.36324   3.36968   3.37331
  Beta virt. eigenvalues --    3.40524   3.40730   3.41010   3.43384   3.43407
  Beta virt. eigenvalues --    3.45607   3.46522   3.46960   3.47379   3.48313
  Beta virt. eigenvalues --    3.48633   3.51171   3.51463   3.52393   3.54316
  Beta virt. eigenvalues --    3.55508   3.56491   3.56898   3.57761   3.58361
  Beta virt. eigenvalues --    3.58807   3.60949   3.62105   3.65143   3.65674
  Beta virt. eigenvalues --    3.66683   3.70649   3.71438   3.75695   3.75798
  Beta virt. eigenvalues --    3.77636   3.77831   3.79327   3.81551   3.86619
  Beta virt. eigenvalues --    3.88006   3.88362   3.88979   3.92409   3.93054
  Beta virt. eigenvalues --    3.93208   3.94358   3.96985   3.98954   4.01363
  Beta virt. eigenvalues --    4.02092   4.02539   4.04890   4.06369   4.08198
  Beta virt. eigenvalues --    4.08871   4.09626   4.12460   4.12629   4.14585
  Beta virt. eigenvalues --    4.15151   4.16686   4.16770   4.19346   4.20667
  Beta virt. eigenvalues --    4.21298   4.21946   4.23766   4.24489   4.26948
  Beta virt. eigenvalues --    4.30451   4.33938   4.35035   4.37760   4.38630
  Beta virt. eigenvalues --    4.40724   4.45903   4.46069   4.47830   4.49181
  Beta virt. eigenvalues --    4.50736   4.53550   4.58824   4.59512   4.70289
  Beta virt. eigenvalues --    4.73403   4.76565   4.80738   4.80975   4.83694
  Beta virt. eigenvalues --    4.85584   4.92022   5.00560   5.07020   5.08930
  Beta virt. eigenvalues --    5.15706   5.20058   5.32436   5.34628   5.35829
  Beta virt. eigenvalues --    5.36344   5.37664   5.39367   5.41804   5.45443
  Beta virt. eigenvalues --    5.46573   5.49825   5.51185   5.54631   5.55614
  Beta virt. eigenvalues --    5.61658   5.67870   5.68887   5.71135   5.77735
  Beta virt. eigenvalues --    5.85445   6.00658   6.07038   6.11970   6.34060
  Beta virt. eigenvalues --    6.45509   6.48180   6.57923   6.60847   6.69947
  Beta virt. eigenvalues --    6.84926   6.88379   6.95184   6.95424   6.98340
  Beta virt. eigenvalues --    6.98650   6.99691   7.00064   7.00233   7.00393
  Beta virt. eigenvalues --    7.00875   7.01062   7.01165   7.01415   7.01539
  Beta virt. eigenvalues --    7.01737   7.01885   7.02158   7.02333   7.02929
  Beta virt. eigenvalues --    7.03408   7.04172   7.09565   7.11994   7.12597
  Beta virt. eigenvalues --    7.13147   7.13472   7.15826   7.16876   7.19526
  Beta virt. eigenvalues --    7.19823   7.21982   7.22764   7.27603   7.27835
  Beta virt. eigenvalues --    7.28378   7.33051   7.49995   7.50242   7.50556
  Beta virt. eigenvalues --    7.51241   7.54526   7.55480   7.56284   7.64125
  Beta virt. eigenvalues --    7.64482   7.71637   7.71900   7.74648   7.75308
  Beta virt. eigenvalues --    8.41900   8.42132   8.44873   8.45121   8.45787
  Beta virt. eigenvalues --    8.46244   8.59000   8.59548   8.61006   8.61954
  Beta virt. eigenvalues --    8.68540   8.71517   8.81408   8.81771   8.88720
  Beta virt. eigenvalues --    8.89212   8.91610   8.92224   9.01245   9.02193
  Beta virt. eigenvalues --    9.06380   9.07380   9.10537   9.10820   9.12009
  Beta virt. eigenvalues --    9.12296   9.19314   9.21494   9.26296   9.28081
  Beta virt. eigenvalues --   22.42843  23.05451  23.07858  23.14645  23.22037
  Beta virt. eigenvalues --   23.32679  23.33514  23.54367  23.76197  44.14595
  Beta virt. eigenvalues --   44.23969  57.39482  57.46848  57.53695  57.55614
  Beta virt. eigenvalues --   57.66900  57.73251
          Condensed to atoms (all electrons):
               1          2          3          4          5          6
     1  O    7.950692   0.740247  -0.094784  -0.265881   0.053137  -0.001649
     2  C    0.740247   4.637919   0.394644   0.091537  -0.038874  -0.025886
     3  O   -0.094784   0.394644   8.049122  -0.247155   0.014883  -0.000972
     4  C   -0.265881   0.091537  -0.247155   6.327249   0.097105   0.001981
     5  C    0.053137  -0.038874   0.014883   0.097105   5.387602   0.394379
     6  C   -0.001649  -0.025886  -0.000972   0.001981   0.394379   5.469448
     7  C   -0.000524  -0.002893  -0.000016   0.003054  -0.042899   0.425782
     8  F   -0.000003  -0.000113  -0.000000  -0.000383   0.014930  -0.103749
     9  F   -0.000000  -0.000018  -0.000000  -0.000338   0.004275  -0.113432
    10  F   -0.000000  -0.000018  -0.000000  -0.000339   0.004279  -0.113598
    11  C    0.001299   0.026385   0.001089  -0.085038   0.016103   0.125330
    12  C   -0.000898  -0.018323  -0.003314   0.040963  -0.117804   0.083931
    13  C   -0.000023  -0.002772  -0.000455   0.007929  -0.001259   0.006964
    14  F   -0.000000  -0.000005  -0.000000  -0.001457   0.000356  -0.000387
    15  F   -0.000000  -0.000097  -0.000001  -0.001129   0.000119  -0.000521
    16  F   -0.000000  -0.000096  -0.000001  -0.001240   0.000134  -0.000550
    17  C    0.009657  -0.012687   0.037492   0.088709   0.062334  -0.094383
    18  H    0.007343  -0.049200   0.285206   0.046747  -0.002251   0.000223
    19  H    0.024407  -0.003642   0.001440  -0.029903   0.394019  -0.035069
    20  H    0.000003   0.000395   0.000002  -0.000677   0.010248  -0.054911
    21  H    0.000340  -0.008497   0.015830  -0.020605   0.007833  -0.000705
               7          8          9         10         11         12
     1  O   -0.000524  -0.000003  -0.000000  -0.000000   0.001299  -0.000898
     2  C   -0.002893  -0.000113  -0.000018  -0.000018   0.026385  -0.018323
     3  O   -0.000016  -0.000000  -0.000000  -0.000000   0.001089  -0.003314
     4  C    0.003054  -0.000383  -0.000338  -0.000339  -0.085038   0.040963
     5  C   -0.042899   0.014930   0.004275   0.004279   0.016103  -0.117804
     6  C    0.425782  -0.103749  -0.113432  -0.113598   0.125330   0.083931
     7  C    4.112775   0.345882   0.358907   0.358999  -0.051783   0.003997
     8  F    0.345882   9.028148  -0.050778  -0.050810   0.005827  -0.001649
     9  F    0.358907  -0.050778   9.047070  -0.055813   0.009288  -0.001758
    10  F    0.358999  -0.050810  -0.055813   9.047137   0.009351  -0.001733
    11  C   -0.051783   0.005827   0.009288   0.009351   5.759590   0.168898
    12  C    0.003997  -0.001649  -0.001758  -0.001733   0.168898   5.474338
    13  C   -0.000893  -0.000002  -0.000057  -0.000058  -0.056439   0.421635
    14  F   -0.000242  -0.000000   0.000000   0.000001   0.014648  -0.099388
    15  F   -0.000019  -0.000000  -0.000000  -0.000000   0.003855  -0.112411
    16  F   -0.000020  -0.000000  -0.000000  -0.000000   0.003777  -0.113993
    17  C    0.002918   0.000443   0.000100   0.000093  -0.013453   0.342597
    18  H    0.000004   0.000000   0.000000   0.000000  -0.000114   0.000257
    19  H   -0.013729   0.007870  -0.000066  -0.000069   0.006945   0.000798
    20  H    0.000627   0.000297   0.003551   0.003467   0.414119  -0.028990
    21  H    0.000122   0.000001   0.000000   0.000000   0.011678  -0.064681
              13         14         15         16         17         18
     1  O   -0.000023  -0.000000  -0.000000  -0.000000   0.009657   0.007343
     2  C   -0.002772  -0.000005  -0.000097  -0.000096  -0.012687  -0.049200
     3  O   -0.000455  -0.000000  -0.000001  -0.000001   0.037492   0.285206
     4  C    0.007929  -0.001457  -0.001129  -0.001240   0.088709   0.046747
     5  C   -0.001259   0.000356   0.000119   0.000134   0.062334  -0.002251
     6  C    0.006964  -0.000387  -0.000521  -0.000550  -0.094383   0.000223
     7  C   -0.000893  -0.000242  -0.000019  -0.000020   0.002918   0.000004
     8  F   -0.000002  -0.000000  -0.000000  -0.000000   0.000443   0.000000
     9  F   -0.000057   0.000000  -0.000000  -0.000000   0.000100   0.000000
    10  F   -0.000058   0.000001  -0.000000  -0.000000   0.000093   0.000000
    11  C   -0.056439   0.014648   0.003855   0.003777  -0.013453  -0.000114
    12  C    0.421635  -0.099388  -0.112411  -0.113993   0.342597   0.000257
    13  C    4.120870   0.341937   0.361532   0.362258  -0.046401   0.000015
    14  F    0.341937   9.031985  -0.051012  -0.051261   0.004348   0.000000
    15  F    0.361532  -0.051012   9.044030  -0.055461   0.006182  -0.000000
    16  F    0.362258  -0.051261  -0.055461   9.044608   0.007156  -0.000000
    17  C   -0.046401   0.004348   0.006182   0.007156   5.515727  -0.006523
    18  H    0.000015   0.000000  -0.000000  -0.000000  -0.006523   0.420540
    19  H    0.000097   0.000001   0.000000   0.000000   0.005984  -0.000234
    20  H   -0.015239   0.008333   0.000044   0.000032   0.008035  -0.000000
    21  H   -0.000622   0.000312   0.003553   0.003107   0.406914  -0.000937
              19         20         21
     1  O    0.024407   0.000003   0.000340
     2  C   -0.003642   0.000395  -0.008497
     3  O    0.001440   0.000002   0.015830
     4  C   -0.029903  -0.000677  -0.020605
     5  C    0.394019   0.010248   0.007833
     6  C   -0.035069  -0.054911  -0.000705
     7  C   -0.013729   0.000627   0.000122
     8  F    0.007870   0.000297   0.000001
     9  F   -0.000066   0.003551   0.000000
    10  F   -0.000069   0.003467   0.000000
    11  C    0.006945   0.414119   0.011678
    12  C    0.000798  -0.028990  -0.064681
    13  C    0.000097  -0.015239  -0.000622
    14  F    0.000001   0.008333   0.000312
    15  F    0.000000   0.000044   0.003553
    16  F    0.000000   0.000032   0.003107
    17  C    0.005984   0.008035   0.406914
    18  H   -0.000234  -0.000000  -0.000937
    19  H    0.480410  -0.000208  -0.000376
    20  H   -0.000208   0.514687  -0.000224
    21  H   -0.000376  -0.000224   0.506076
          Atomic-Atomic Spin Densities.
               1          2          3          4          5          6
     1  O    0.198464  -0.066987   0.008287  -0.029008   0.010014   0.000309
     2  C   -0.066987   0.119157  -0.023314   0.116677  -0.020554  -0.000654
     3  O    0.008287  -0.023314   0.038969  -0.020017   0.001534   0.000099
     4  C   -0.029008   0.116677  -0.020017   0.540481  -0.155319  -0.026738
     5  C    0.010014  -0.020554   0.001534  -0.155319   0.114405   0.089852
     6  C    0.000309  -0.000654   0.000099  -0.026738   0.089852  -0.009272
     7  C    0.000016   0.000038   0.000001   0.000354  -0.005055   0.005435
     8  F   -0.000001   0.000009  -0.000000   0.000175  -0.000966  -0.000392
     9  F   -0.000000   0.000001  -0.000000   0.000067  -0.000191   0.000561
    10  F   -0.000000   0.000001  -0.000000   0.000062  -0.000156   0.000587
    11  C   -0.000278   0.000524  -0.000159   0.042003  -0.038117  -0.097863
    12  C    0.000114  -0.001220   0.000234  -0.025995   0.020294   0.006616
    13  C    0.000001   0.000101  -0.000004   0.001750  -0.000866   0.000542
    14  F   -0.000000   0.000000  -0.000000  -0.000008   0.000017  -0.000083
    15  F   -0.000000   0.000008  -0.000001   0.000336  -0.000020  -0.000118
    16  F   -0.000000   0.000007  -0.000001   0.000317  -0.000022  -0.000108
    17  C    0.002802  -0.022468   0.008251  -0.203247   0.036778   0.021498
    18  H    0.000019  -0.000407   0.000857  -0.000027  -0.000070  -0.000007
    19  H   -0.000731   0.000900  -0.000065  -0.002998  -0.001309   0.004675
    20  H   -0.000000  -0.000020   0.000000  -0.001270   0.002915  -0.001295
    21  H   -0.000015   0.000547   0.000062  -0.003363   0.000063  -0.000290
               7          8          9         10         11         12
     1  O    0.000016  -0.000001  -0.000000  -0.000000  -0.000278   0.000114
     2  C    0.000038   0.000009   0.000001   0.000001   0.000524  -0.001220
     3  O    0.000001  -0.000000  -0.000000  -0.000000  -0.000159   0.000234
     4  C    0.000354   0.000175   0.000067   0.000062   0.042003  -0.025995
     5  C   -0.005055  -0.000966  -0.000191  -0.000156  -0.038117   0.020294
     6  C    0.005435  -0.000392   0.000561   0.000587  -0.097863   0.006616
     7  C    0.005676  -0.002315  -0.001568  -0.001590  -0.005266   0.000397
     8  F   -0.002315   0.002086   0.000465   0.000469   0.000562  -0.000032
     9  F   -0.001568   0.000465   0.000454   0.000247   0.000722   0.000009
    10  F   -0.001590   0.000469   0.000247   0.000472   0.000660   0.000015
    11  C   -0.005266   0.000562   0.000722   0.000660   0.639526  -0.074858
    12  C    0.000397  -0.000032   0.000009   0.000015  -0.074858  -0.076278
    13  C    0.000012  -0.000000   0.000001   0.000001  -0.004039  -0.002437
    14  F   -0.000003  -0.000000  -0.000000  -0.000000  -0.000774   0.002508
    15  F   -0.000000   0.000000   0.000000  -0.000000   0.001618  -0.000006
    16  F   -0.000000   0.000000  -0.000000   0.000000   0.001604  -0.000075
    17  C   -0.000089  -0.000005  -0.000025  -0.000022  -0.047339   0.097634
    18  H   -0.000000  -0.000000  -0.000000  -0.000000   0.000008   0.000020
    19  H   -0.001057   0.000093   0.000020   0.000021   0.000824   0.000094
    20  H   -0.000762   0.000007   0.000003   0.000006   0.000426  -0.001002
    21  H    0.000009  -0.000000  -0.000000  -0.000000   0.002053   0.003833
              13         14         15         16         17         18
     1  O    0.000001  -0.000000  -0.000000  -0.000000   0.002802   0.000019
     2  C    0.000101   0.000000   0.000008   0.000007  -0.022468  -0.000407
     3  O   -0.000004  -0.000000  -0.000001  -0.000001   0.008251   0.000857
     4  C    0.001750  -0.000008   0.000336   0.000317  -0.203247  -0.000027
     5  C   -0.000866   0.000017  -0.000020  -0.000022   0.036778  -0.000070
     6  C    0.000542  -0.000083  -0.000118  -0.000108   0.021498  -0.000007
     7  C    0.000012  -0.000003  -0.000000  -0.000000  -0.000089  -0.000000
     8  F   -0.000000  -0.000000   0.000000   0.000000  -0.000005  -0.000000
     9  F    0.000001  -0.000000   0.000000  -0.000000  -0.000025  -0.000000
    10  F    0.000001  -0.000000  -0.000000   0.000000  -0.000022  -0.000000
    11  C   -0.004039  -0.000774   0.001618   0.001604  -0.047339   0.000008
    12  C   -0.002437   0.002508  -0.000006  -0.000075   0.097634   0.000020
    13  C    0.007825  -0.001573  -0.000903  -0.000893  -0.010394  -0.000001
    14  F   -0.001573  -0.000427   0.000059   0.000061   0.000203   0.000000
    15  F   -0.000903   0.000059   0.001112   0.000089  -0.002387  -0.000000
    16  F   -0.000893   0.000061   0.000089   0.001230  -0.002405  -0.000000
    17  C   -0.010394   0.000203  -0.002387  -0.002405   0.274221  -0.000158
    18  H   -0.000001   0.000000  -0.000000  -0.000000  -0.000158  -0.002027
    19  H    0.000002   0.000000   0.000000  -0.000000   0.000127   0.000016
    20  H   -0.001508   0.000284   0.000015   0.000016   0.002680   0.000000
    21  H   -0.000794   0.000004  -0.000010  -0.000013  -0.000711   0.000035
              19         20         21
     1  O   -0.000731  -0.000000  -0.000015
     2  C    0.000900  -0.000020   0.000547
     3  O   -0.000065   0.000000   0.000062
     4  C   -0.002998  -0.001270  -0.003363
     5  C   -0.001309   0.002915   0.000063
     6  C    0.004675  -0.001295  -0.000290
     7  C   -0.001057  -0.000762   0.000009
     8  F    0.000093   0.000007  -0.000000
     9  F    0.000020   0.000003  -0.000000
    10  F    0.000021   0.000006  -0.000000
    11  C    0.000824   0.000426   0.002053
    12  C    0.000094  -0.001002   0.003833
    13  C    0.000002  -0.001508  -0.000794
    14  F    0.000000   0.000284   0.000004
    15  F    0.000000   0.000015  -0.000010
    16  F   -0.000000   0.000016  -0.000013
    17  C    0.000127   0.002680  -0.000711
    18  H    0.000016   0.000000   0.000035
    19  H   -0.003753   0.000021  -0.000001
    20  H    0.000021  -0.017976   0.000027
    21  H   -0.000001   0.000027  -0.009301
 Mulliken charges and spin densities:
               1          2
     1  O   -0.423364   0.123004
     2  C    0.271997   0.102347
     3  O   -0.453010   0.014732
     4  C   -0.051131   0.234232
     5  C   -0.258649   0.053227
     6  C    0.037773  -0.006646
     7  C    0.499950  -0.005766
     8  F   -0.195911   0.000155
     9  F   -0.200932   0.000767
    10  F   -0.200887   0.000772
    11  C   -0.371356   0.421835
    12  C    0.027529  -0.050134
    13  C    0.500983  -0.013176
    14  F   -0.198168   0.000268
    15  F   -0.198664  -0.000210
    16  F   -0.198451  -0.000193
    17  C   -0.325245   0.154946
    18  H    0.298923  -0.001743
    19  H    0.161326  -0.003121
    20  H    0.136408  -0.017431
    21  H    0.140879  -0.007865
 Sum of Mulliken charges =  -1.00000   1.00000
 Mulliken charges and spin densities with hydrogens summed into heavy atoms:
               1          2
     1  O   -0.423364   0.123004
     2  C    0.271997   0.102347
     3  O   -0.154087   0.012989
     4  C   -0.051131   0.234232
     5  C   -0.097323   0.050107
     6  C    0.037773  -0.006646
     7  C    0.499950  -0.005766
     8  F   -0.195911   0.000155
     9  F   -0.200932   0.000767
    10  F   -0.200887   0.000772
    11  C   -0.234948   0.404404
    12  C    0.027529  -0.050134
    13  C    0.500983  -0.013176
    14  F   -0.198168   0.000268
    15  F   -0.198664  -0.000210
    16  F   -0.198451  -0.000193
    17  C   -0.184365   0.147080
 Electronic spatial extent (au):  <R**2>=           4400.4874
 Charge=             -1.0000 electrons
 Dipole moment (field-independent basis, Debye):
    X=             -1.2712    Y=             -2.5211    Z=             -0.0032  Tot=              2.8235
 Quadrupole moment (field-independent basis, Debye-Ang):
   XX=           -117.4310   YY=           -120.0280   ZZ=            -99.8566
   XY=             -7.6146   XZ=              0.0069   YZ=              0.0054
 Traceless Quadrupole moment (field-independent basis, Debye-Ang):
   XX=             -4.9924   YY=             -7.5895   ZZ=             12.5819
   XY=             -7.6146   XZ=              0.0069   YZ=              0.0054
 Octapole moment (field-independent basis, Debye-Ang**2):
  XXX=             -2.8613  YYY=            -78.3551  ZZZ=             -0.0505  XYY=            -35.9340
  XXY=              8.1892  XXZ=              0.0082  XZZ=              2.0098  YZZ=             -9.2883
  YYZ=              0.0398  XYZ=             -0.0409
 Hexadecapole moment (field-independent basis, Debye-Ang**3):
 XXXX=          -2633.9003 YYYY=          -2392.2915 ZZZZ=           -231.2782 XXXY=              3.5273
 XXXZ=             -0.1303 YYYX=           -207.2235 YYYZ=             -0.2441 ZZZX=              0.1487
 ZZZY=              0.1157 XXYY=           -827.8866 XXZZ=           -470.5824 YYZZ=           -422.2568
 XXYZ=              0.1636 YYXZ=             -0.0008 ZZXY=              6.6273
 N-N= 1.277655086368D+03 E-N=-5.161547577763D+03  KE= 1.091196271315D+03
                          Isotropic Fermi Contact Couplings
        Atom                 a.u.       MegaHertz       Gauss      10(-4) cm-1
     1  O(17)              0.02350     -14.24535      -5.08310      -4.75174
     2  C(13)              0.00573       6.43933       2.29771       2.14793
     3  O(17)             -0.00062       0.37840       0.13502       0.12622
     4  C(13)              0.01446      16.25955       5.80181       5.42360
     5  C(13)             -0.00004      -0.04982      -0.01778      -0.01662
     6  C(13)             -0.01231     -13.83332      -4.93607      -4.61430
     7  C(13)             -0.00115      -1.29252      -0.46120      -0.43114
     8  F(19)              0.00026       1.08662       0.38773       0.36246
     9  F(19)             -0.00005      -0.22774      -0.08126      -0.07597
    10  F(19)             -0.00004      -0.14833      -0.05293      -0.04948
    11  C(13)              0.03880      43.62131      15.56517      14.55050
    12  C(13)             -0.01957     -22.00505      -7.85195      -7.34010
    13  C(13)              0.00004       0.04059       0.01448       0.01354
    14  F(19)             -0.00045      -1.89782      -0.67719      -0.63304
    15  F(19)              0.00495      20.83016       7.43272       6.94819
    16  F(19)              0.00495      20.81288       7.42655       6.94243
    17  C(13)              0.01091      12.26942       4.37803       4.09264
    18  H(1)              -0.00062      -2.75723      -0.98385      -0.91971
    19  H(1)              -0.00161      -7.20415      -2.57062      -2.40305
    20  H(1)              -0.00609     -27.22587      -9.71487      -9.08157
    21  H(1)              -0.00300     -13.41593      -4.78714      -4.47507
 --------------------------------------------------------
       Center         ----  Spin Dipole Couplings  ----
                      3XX-RR        3YY-RR        3ZZ-RR
 --------------------------------------------------------
     1   Atom       -0.277161     -0.274414      0.551575
     2   Atom       -0.087203     -0.070683      0.157886
     3   Atom       -0.070084     -0.054044      0.124128
     4   Atom       -0.135292     -0.112637      0.247929
     5   Atom       -0.043452     -0.034761      0.078213
     6   Atom       -0.008432     -0.002457      0.010889
     7   Atom        0.000920     -0.002183      0.001262
     8   Atom       -0.005742     -0.008456      0.014198
     9   Atom       -0.007882      0.011832     -0.003950
    10   Atom       -0.007988      0.011982     -0.003993
    11   Atom       -0.203024     -0.187825      0.390849
    12   Atom        0.010786      0.016063     -0.026849
    13   Atom        0.001704      0.001451     -0.003155
    14   Atom        0.001475      0.001547     -0.003022
    15   Atom        0.000440      0.004313     -0.004753
    16   Atom       -0.000697      0.005296     -0.004600
    17   Atom       -0.091985     -0.082756      0.174741
    18   Atom       -0.002680      0.006970     -0.004290
    19   Atom        0.003315      0.001183     -0.004498
    20   Atom       -0.028387      0.027373      0.001014
    21   Atom        0.009878     -0.006333     -0.003546
 --------------------------------------------------------
                        XY            XZ            YZ
 --------------------------------------------------------
     1   Atom       -0.010243     -0.000087     -0.000121
     2   Atom        0.004142     -0.000024     -0.000039
     3   Atom       -0.002177     -0.000023     -0.000037
     4   Atom       -0.000841     -0.000057     -0.000017
     5   Atom       -0.003405     -0.000043     -0.000019
     6   Atom        0.003183      0.000027     -0.000008
     7   Atom       -0.001836     -0.000008      0.000019
     8   Atom       -0.000404      0.000060     -0.000004
     9   Atom        0.003998      0.001130      0.006400
    10   Atom        0.003935     -0.001143     -0.006426
    11   Atom       -0.002081      0.000037     -0.000306
    12   Atom       -0.006030      0.000053     -0.000076
    13   Atom        0.002618     -0.000024      0.000041
    14   Atom        0.001993     -0.000013      0.000282
    15   Atom        0.012972      0.000377      0.001760
    16   Atom        0.013008     -0.000727     -0.002534
    17   Atom       -0.000197      0.000014      0.000021
    18   Atom       -0.004212     -0.000001      0.000001
    19   Atom        0.004755      0.000007      0.000003
    20   Atom       -0.006492     -0.000012     -0.000026
    21   Atom       -0.009478     -0.000032     -0.000001
 --------------------------------------------------------


 ---------------------------------------------------------------------------------
              Anisotropic Spin Dipole Couplings in Principal Axis System
 ---------------------------------------------------------------------------------

       Atom             a.u.   MegaHertz   Gauss  10(-4) cm-1        Axes

              Baa    -0.2861    20.704     7.388     6.906  0.7526  0.6584  0.0002
     1 O(17)  Bbb    -0.2655    19.208     6.854     6.407 -0.6584  0.7526  0.0000
              Bcc     0.5516   -39.912   -14.241   -13.313 -0.0001 -0.0001  1.0000
 
              Baa    -0.0882   -11.833    -4.222    -3.947  0.9731 -0.2303  0.0001
     2 C(13)  Bbb    -0.0697    -9.353    -3.338    -3.120  0.2303  0.9731  0.0002
              Bcc     0.1579    21.187     7.560     7.067 -0.0001 -0.0002  1.0000
 
              Baa    -0.0704     5.092     1.817     1.699  0.9912  0.1321  0.0001
     3 O(17)  Bbb    -0.0538     3.890     1.388     1.297 -0.1321  0.9912  0.0002
              Bcc     0.1241    -8.982    -3.205    -2.996 -0.0001 -0.0002  1.0000
 
              Baa    -0.1353   -18.159    -6.480    -6.057  0.9993  0.0370  0.0002
     4 C(13)  Bbb    -0.1126   -15.111    -5.392    -5.040 -0.0370  0.9993  0.0000
              Bcc     0.2479    33.270    11.871    11.098 -0.0001 -0.0000  1.0000
 
              Baa    -0.0446    -5.988    -2.137    -1.998  0.9453  0.3262  0.0004
     5 C(13)  Bbb    -0.0336    -4.507    -1.608    -1.503 -0.3262  0.9453  0.0000
              Bcc     0.0782    10.495     3.745     3.501 -0.0003 -0.0002  1.0000
 
              Baa    -0.0098    -1.316    -0.470    -0.439  0.9177 -0.3973 -0.0013
     6 C(13)  Bbb    -0.0011    -0.145    -0.052    -0.048  0.3973  0.9177 -0.0003
              Bcc     0.0109     1.461     0.521     0.487  0.0013 -0.0003  1.0000
 
              Baa    -0.0030    -0.407    -0.145    -0.136  0.4210  0.9071 -0.0032
     7 C(13)  Bbb     0.0013     0.169     0.060     0.056  0.0277 -0.0094  0.9996
              Bcc     0.0018     0.238     0.085     0.079  0.9066 -0.4209 -0.0291
 
              Baa    -0.0085    -4.277    -1.526    -1.427  0.1442  0.9895 -0.0002
     8 F(19)  Bbb    -0.0057    -2.854    -1.018    -0.952  0.9895 -0.1442 -0.0030
              Bcc     0.0142     7.131     2.544     2.379  0.0030 -0.0002  1.0000
 
              Baa    -0.0087    -4.353    -1.553    -1.452  0.9781 -0.2040  0.0424
     9 F(19)  Bbb    -0.0062    -3.109    -1.109    -1.037 -0.1059 -0.3118  0.9442
              Bcc     0.0149     7.462     2.663     2.489  0.1794  0.9280  0.3266
 
              Baa    -0.0087    -4.388    -1.566    -1.464  0.9805 -0.1947 -0.0274
    10 F(19)  Bbb    -0.0062    -3.132    -1.118    -1.045  0.0888  0.3142  0.9452
              Bcc     0.0150     7.521     2.684     2.509  0.1754  0.9292 -0.3254
 
              Baa    -0.2033   -27.281    -9.735    -9.100  0.9911  0.1333  0.0000
    11 C(13)  Bbb    -0.1875   -25.167    -8.980    -8.395 -0.1333  0.9911  0.0005
              Bcc     0.3908    52.448    18.715    17.495  0.0001 -0.0005  1.0000
 
              Baa    -0.0268    -3.603    -1.286    -1.202 -0.0011  0.0016  1.0000
    12 C(13)  Bbb     0.0068     0.918     0.328     0.306  0.8369  0.5473  0.0001
              Bcc     0.0200     2.685     0.958     0.896 -0.5473  0.8369 -0.0020
 
              Baa    -0.0032    -0.423    -0.151    -0.141  0.0141 -0.0169  0.9998
    13 C(13)  Bbb    -0.0010    -0.140    -0.050    -0.047 -0.6897  0.7237  0.0219
              Bcc     0.0042     0.563     0.201     0.188  0.7239  0.6899  0.0014
 
              Baa    -0.0030    -1.529    -0.545    -0.510  0.0369 -0.0771  0.9963
    14 F(19)  Bbb    -0.0005    -0.234    -0.083    -0.078  0.7139 -0.6956 -0.0803
              Bcc     0.0035     1.763     0.629     0.588  0.6993  0.7143  0.0294
 
              Baa    -0.0109    -5.456    -1.947    -1.820  0.7442 -0.6526  0.1421
    15 F(19)  Bbb    -0.0048    -2.386    -0.852    -0.796 -0.1581  0.0346  0.9868
              Bcc     0.0156     7.842     2.798     2.616  0.6489  0.7569  0.0774
 
              Baa    -0.0112    -5.629    -2.009    -1.878  0.7640 -0.6261 -0.1561
    16 F(19)  Bbb    -0.0047    -2.375    -0.848    -0.792  0.1956 -0.0058  0.9807
              Bcc     0.0159     8.004     2.856     2.670  0.6149  0.7797 -0.1180
 
              Baa    -0.0920   -12.344    -4.405    -4.118  0.9998  0.0213 -0.0001
    17 C(13)  Bbb    -0.0828   -11.105    -3.962    -3.704 -0.0213  0.9998 -0.0001
              Bcc     0.1747    23.449     8.367     7.822  0.0001  0.0001  1.0000
 
              Baa    -0.0043    -2.289    -0.817    -0.764  0.0006  0.0001  1.0000
    18 H(1)   Bbb    -0.0043    -2.273    -0.811    -0.758  0.9363  0.3512 -0.0006
              Bcc     0.0085     4.562     1.628     1.522 -0.3512  0.9363  0.0001
 
              Baa    -0.0045    -2.400    -0.856    -0.800 -0.0011  0.0003  1.0000
    19 H(1)   Bbb    -0.0026    -1.400    -0.500    -0.467 -0.6250  0.7806 -0.0010
              Bcc     0.0071     3.800     1.356     1.267  0.7806  0.6250  0.0007
 
              Baa    -0.0291   -15.544    -5.547    -5.185  0.9935  0.1141  0.0005
    20 H(1)   Bbb     0.0010     0.541     0.193     0.181 -0.0006  0.0008  1.0000
              Bcc     0.0281    15.003     5.353     5.004 -0.1141  0.9935 -0.0009
 
              Baa    -0.0107    -5.708    -2.037    -1.904  0.4184  0.9083  0.0020
    21 H(1)   Bbb    -0.0035    -1.892    -0.675    -0.631  0.0006 -0.0025  1.0000
              Bcc     0.0142     7.600     2.712     2.535  0.9083 -0.4184 -0.0016
 

 ---------------------------------------------------------------------------------

   1 Symmetry operations used in ECPInt.
 ECPInt:  NShTT=   20706 NPrTT=   66816 LenC2=   18048 LenP2D=   41666.
 LDataN:  DoStor=T MaxTD1= 7 Len=  274
 Calling FoFJK, ICntrl=      2127 FMM=F ISym2X=0 I1Cent= 0 IOpClX= 1 NMat=1 NMatS=1 NMatT=0.
 ***** Axes restored to original set *****
 -------------------------------------------------------------------
 Center     Atomic                   Forces (Hartrees/Bohr)
 Number     Number              X              Y              Z
 -------------------------------------------------------------------
      1        8          -0.031261471    0.041170931   -0.000014409
      2        6           0.000141332   -0.086572763    0.000016865
      3        8           0.027241861    0.018248162    0.000001031
      4        6           0.002299562    0.074832862   -0.000049654
      5        6          -0.023640039   -0.025681072    0.000011382
      6        6          -0.019070003    0.025948369   -0.000014852
      7        6           0.029893996    0.018317870    0.000024136
      8        9          -0.010276182   -0.000233466   -0.000000904
      9        9          -0.007596665   -0.007587170    0.004878400
     10        9          -0.007608646   -0.007582425   -0.004911941
     11        6           0.000188155   -0.034737200   -0.000043019
     12        6           0.017295290    0.023070980    0.000095036
     13        6          -0.025341195    0.018439027    0.000077036
     14        9           0.004846549   -0.008575060    0.000060444
     15        9           0.009798348   -0.003834131    0.004259026
     16        9           0.009729173   -0.003999121   -0.004471955
     17        6           0.025982348   -0.037504717    0.000056071
     18        1          -0.002795650   -0.003782667    0.000000781
     19        1           0.000355653   -0.000176674   -0.000000730
     20        1          -0.000138863    0.000859268    0.000015172
     21        1          -0.000043553   -0.000621003    0.000012087
 -------------------------------------------------------------------
 Cartesian Forces:  Max     0.086572763 RMS     0.020392292

 GradGradGradGradGradGradGradGradGradGradGradGradGradGradGradGradGradGrad
 Berny optimization.
 FormGI is forming the generalized inverse of G from B-inverse, IUseBI=4.
 Internal  Forces:  Max     0.050085324 RMS     0.010026600
 Search for a local minimum.
 Step number   1 out of a maximum of  107
 All quantities printed in internal units (Hartrees-Bohrs-Radians)
 Mixed Optimization -- RFO/linear search
 Second derivative matrix not updated -- first step.
 ITU=  0
     Eigenvalues ---    0.00696   0.00698   0.00888   0.01405   0.01627
     Eigenvalues ---    0.01674   0.01831   0.02223   0.02241   0.02257
     Eigenvalues ---    0.02264   0.02289   0.02304   0.02464   0.10704
     Eigenvalues ---    0.10716   0.10963   0.10982   0.16000   0.16000
     Eigenvalues ---    0.16000   0.16000   0.23488   0.23492   0.23500
     Eigenvalues ---    0.25000   0.25000   0.25000   0.25000   0.25000
     Eigenvalues ---    0.25000   0.25000   0.25000   0.25000   0.25000
     Eigenvalues ---    0.25000   0.31832   0.31842   0.33366   0.35724
     Eigenvalues ---    0.35749   0.35803   0.43258   0.43499   0.47005
     Eigenvalues ---    0.47748   0.48196   0.48857   0.53789   0.56842
     Eigenvalues ---    0.57583   0.57584   0.57680   0.57706   0.58701
     Eigenvalues ---    0.59027   1.05708
 RFO step:  Lambda=-2.03094218D-02 EMin= 6.96434854D-03
 Linear search not attempted -- first point.
 Iteration  1 RMS(Cart)=  0.03027041 RMS(Int)=  0.00053264
 Iteration  2 RMS(Cart)=  0.00057785 RMS(Int)=  0.00016112
 Iteration  3 RMS(Cart)=  0.00000021 RMS(Int)=  0.00016112
 Variable       Old X    -DE/DX   Delta X   Delta X   Delta X     New X
                                 (Linear)    (Quad)   (Total)
    R1        2.26436   0.05009   0.00000   0.04649   0.04649   2.31085
    R2        2.53531   0.02775   0.00000   0.04714   0.04714   2.58245
    R3        2.81713  -0.03135   0.00000  -0.08856  -0.08856   2.72857
    R4        1.82924  -0.00372   0.00000  -0.00667  -0.00667   1.82257
    R5        2.63285   0.02602   0.00000   0.05363   0.05366   2.68651
    R6        2.61695   0.03689   0.00000   0.07394   0.07397   2.69091
    R7        2.60746  -0.00957   0.00000  -0.01898  -0.01897   2.58848
    R8        2.04391  -0.00039   0.00000  -0.00103  -0.00103   2.04288
    R9        2.84452  -0.00523   0.00000  -0.01545  -0.01545   2.82907
   R10        2.63033   0.02501   0.00000   0.05045   0.05043   2.68075
   R11        2.51719   0.00740   0.00000   0.01212   0.01212   2.52931
   R12        2.52905   0.00930   0.00000   0.01560   0.01560   2.54465
   R13        2.52906   0.00932   0.00000   0.01563   0.01563   2.54469
   R14        2.61023   0.02108   0.00000   0.04115   0.04112   2.65134
   R15        2.04516  -0.00084   0.00000  -0.00222  -0.00222   2.04294
   R16        2.84434  -0.00196   0.00000  -0.00578  -0.00578   2.83856
   R17        2.62712  -0.01056   0.00000  -0.02115  -0.02115   2.60596
   R18        2.51983   0.00728   0.00000   0.01198   0.01198   2.53182
   R19        2.52804   0.00831   0.00000   0.01391   0.01391   2.54195
   R20        2.52825   0.00840   0.00000   0.01408   0.01408   2.54232
   R21        2.04476  -0.00029   0.00000  -0.00077  -0.00077   2.04399
    A1        2.14934  -0.01650   0.00000  -0.06104  -0.06104   2.08829
    A2        2.16673   0.01250   0.00000   0.04624   0.04624   2.21297
    A3        1.96712   0.00400   0.00000   0.01480   0.01480   1.98192
    A4        1.87258  -0.00526   0.00000  -0.02917  -0.02917   1.84340
    A5        2.05461   0.00282   0.00000   0.00966   0.00963   2.06424
    A6        2.12646   0.00661   0.00000   0.02364   0.02362   2.15008
    A7        2.10211  -0.00943   0.00000  -0.03330  -0.03324   2.06887
    A8        2.08369   0.00346   0.00000   0.01445   0.01448   2.09818
    A9        2.07988  -0.00180   0.00000  -0.00763  -0.00765   2.07223
   A10        2.11961  -0.00166   0.00000  -0.00682  -0.00683   2.11278
   A11        2.11406  -0.00321   0.00000  -0.01113  -0.01113   2.10293
   A12        2.10806   0.00468   0.00000   0.01581   0.01579   2.12386
   A13        2.06106  -0.00147   0.00000  -0.00467  -0.00467   2.05640
   A14        1.95904   0.00840   0.00000   0.03219   0.03168   1.99072
[...]
 0.01398955,0.17073977,0.00066124,-0.00102848,0.00011647,-0.00064694,0.
 00220722,0.00032889,-0.00105139,-0.00093791,-0.00008538,-0.00239994,-0
 .00175363,0.00080050,-0.00205745,0.00177751,-0.00104633,-0.00707365,-0
 .01810068,-0.01056667,-0.03497894,-0.07966319,-0.17917835,0.02028151,-
 0.03556297,-0.01047673,0.00089676,-0.00407626,-0.09149742,0.02351387,0
 .13853398,0.29096874,0.00532264,-0.00702816,-0.00011880,0.00383973,0.0
 0322095,0.00028025,0.00318221,0.00376067,0.00023410,0.00459275,-0.0025
 1065,0.00034033,-0.01025684,0.05596108,0.00145116,-0.18302945,0.037624
 15,-0.00255693,-0.04046243,0.00153077,-0.00100877,-0.00298670,-0.00142
 138,-0.00020810,0.00166660,0.00574597,-0.00283961,0.00148992,0.0054559
 4,0.00323041,0.55092119,0.01121708,-0.00926520,-0.00002687,-0.00428402
 ,0.01624755,0.00054014,-0.00802723,-0.00284661,-0.00035405,-0.00191436
 ,-0.01044821,-0.00008556,0.03650703,-0.04079084,-0.00100823,0.09975226
 ,-0.17365688,-0.00189721,0.00134916,0.01823429,0.00089588,-0.01062842,
 0.00204067,-0.00031757,-0.00190157,-0.00283343,0.00098010,-0.00180335,
 -0.00281184,-0.00146099,0.01670058,0.71527876,0.00060165,-0.00058536,0
 .00011022,-0.00001750,0.00078525,-0.00107748,-0.00022487,-0.00000378,0
 .00013983,0.00036803,-0.00012432,-0.00966853,0.00068407,-0.00042362,0.
 01355639,-0.00015950,-0.00374779,-0.04775911,-0.00102990,0.00088615,-0
 .00410624,-0.00056099,-0.00003943,0.00199894,0.00016951,-0.00098700,0.
 00203475,-0.00034247,0.00095349,0.00218372,0.01472533,0.02503219,0.077
 53294,-0.01428410,0.01689128,0.00022202,-0.00722727,-0.01750258,-0.000
 96755,0.00618074,-0.00132932,0.00013475,-0.00609986,0.04356047,0.00129
 975,0.01279644,-0.02058869,-0.00031872,-0.07418314,0.03488059,-0.00096
 023,0.00354591,0.01250695,0.00048625,-0.00193981,-0.00028866,-0.000066
 38,0.00019096,-0.00323642,0.00134848,0.00027794,-0.00318747,-0.0016117
 7,-0.20952601,-0.09219390,-0.00833500,0.58912056,-0.00979057,0.0050287
 5,-0.00010151,0.00712001,-0.00436619,-0.00005384,0.00170586,-0.0006293
 0,0.00002821,0.03650522,-0.02816206,-0.00025842,-0.01092930,-0.0314435
 3,-0.00141457,-0.00888472,0.04801298,0.00145499,0.00208018,-0.00212943
 ,-0.00013985,0.00313982,0.00000379,0.00009672,0.00041358,0.00009590,-0
 .00013628,0.00039821,0.00000434,0.00011902,-0.03024583,-0.14660774,-0.
 00469501,-0.00217584,0.74389841,-0.00082173,0.00071138,0.00012916,-0.0
 0001908,-0.00081841,0.00246588,0.00026225,-0.00005917,-0.00003803,0.00
 097581,-0.00001518,0.00644294,0.00008029,-0.00168636,-0.00329236,-0.00
 265850,0.00277480,0.00337715,0.00010429,0.00017923,0.00308505,0.000066
 92,-0.00000863,-0.00002683,-0.00008490,-0.00123339,0.00057706,0.000088
 07,0.00099192,0.00058272,-0.00596210,-0.00656577,-0.04799053,0.0123767
 5,0.02251414,0.16408347,0.00492177,-0.00868228,-0.00016035,0.00404592,
 0.01326875,0.00058904,-0.00574818,-0.00258422,-0.00026248,0.01130475,-
 0.01314076,-0.00040340,-0.00608445,-0.00475317,-0.00034808,0.00046580,
 -0.00276871,-0.00018781,-0.00516795,-0.00247178,-0.00031276,0.00134818
 ,0.00000055,0.00005014,0.00135328,0.00139971,-0.00075320,0.00130472,0.
 00136055,0.00098707,-0.03907335,0.01054392,-0.00060836,-0.16631101,0.0
 6555895,-0.00022676,0.61059310,-0.00639147,0.00743603,0.00012875,0.001
 19469,-0.01100646,-0.00044124,0.00278105,0.00159639,0.00015527,-0.0148
 5101,0.00363713,-0.00059568,0.00659226,0.00114971,0.00025981,-0.012947
 22,0.00113988,-0.00045135,0.00497115,0.00700862,0.00032752,-0.00194726
 ,-0.00052204,-0.00006488,-0.00140671,-0.00261157,0.00132597,-0.0013149
 0,-0.00246911,-0.00153159,0.01073787,0.01641697,0.00116902,0.04580507,
 -0.13555406,-0.00136053,-0.03578211,0.54848269,-0.00008777,0.00008357,
 -0.00090042,0.00011909,-0.00011415,0.00149089,-0.00004892,-0.00000046,
 -0.00031447,-0.00052771,-0.00052234,0.00766468,0.00011705,-0.00006385,
 -0.00056155,-0.00060927,-0.00013406,0.00305635,-0.00001157,0.00012376,
 0.00216436,-0.00003086,-0.00000657,-0.00032862,0.00007297,0.00041220,-
 0.00079541,-0.00005483,-0.00046989,-0.00089667,-0.00058712,0.00110599,
 -0.00408961,-0.00114139,-0.00068188,-0.06852756,0.00257147,0.00146538,
 0.47995011,-0.00074127,0.00163624,-0.00013278,-0.00086969,-0.00250245,
 0.00030605,0.00110029,0.00063873,0.00005530,-0.00135777,0.00224148,0.0
 0134045,0.00070506,0.00134890,-0.00001404,0.00081872,-0.00052094,-0.00
 017462,0.00113263,0.00055598,0.00010849,-0.00038897,-0.00001381,-0.000
 01934,-0.00033197,-0.00027223,0.00014837,-0.00030786,-0.00029877,-0.00
 024313,0.00060510,0.00114225,-0.00045011,0.00373366,0.02436584,-0.0196
 6897,-0.08169591,0.01370004,-0.01162695,0.07817347,0.00199419,-0.00304
 781,0.00021233,0.00072028,0.00410665,-0.00044956,-0.00109829,-0.000653
 67,-0.00010487,0.00516581,-0.00334372,-0.00223684,-0.00310560,-0.00140
 924,0.00011112,0.00313942,-0.00051888,-0.00105427,-0.00220449,-0.00244
 646,0.00032314,0.00059821,0.00022419,-0.00002795,0.00060874,0.00110155
 ,-0.00069209,0.00056446,0.00086618,0.00041409,-0.00657370,-0.00189916,
 -0.00125579,0.01086911,-0.02563061,0.03117997,0.01614275,-0.15472263,0
 .08823110,0.00717953,0.19800591,-0.00094470,0.00150948,-0.00002754,-0.
 00041283,-0.00193897,0.00017452,0.00050942,0.00036572,0.00014673,-0.00
 162375,0.00194751,0.00075195,0.00122670,0.00057951,-0.00008373,-0.0013
 2607,0.00014170,0.00049267,0.00110234,0.00117221,-0.00074601,-0.000332
 28,-0.00010340,0.00009466,-0.00033348,-0.00065746,0.00058171,-0.000276
 59,-0.00028848,0.00004355,0.00296272,0.00043830,0.00217527,-0.00224307
 ,0.01821244,-0.00634123,-0.01602029,0.08747414,-0.16456967,-0.00661598
 ,-0.14856100,0.26565992,-0.00192890,0.00329946,0.00006835,-0.00134249,
 -0.00574718,-0.00025958,0.00280696,0.00132355,0.00013284,-0.00199218,0
 .00376434,0.00009174,0.00112427,0.00071099,0.00005759,-0.00245517,-0.0
 0256859,-0.00015925,0.00166803,0.00151970,0.00011651,-0.00130303,0.000
 13886,-0.00003498,-0.00049640,-0.00045321,0.00028471,-0.00047739,-0.00
 043096,-0.00035172,-0.00026642,0.01114259,0.00033654,-0.04834731,-0.02
 731481,-0.00302678,-0.24742597,-0.06004069,-0.00836397,-0.01129326,-0.
 03408932,0.02433853,0.31899076,0.00023366,-0.00006106,0.00000334,-0.00
 085470,-0.00015428,-0.00002917,0.00044170,-0.00014903,0.00000413,-0.00
 006012,0.00230177,0.00008742,0.00068149,-0.00013361,0.00001246,0.00074
 774,0.00052296,0.00004170,-0.00045152,-0.00082355,-0.00003288,0.000159
 91,0.00014788,0.00000908,0.00016965,0.00030992,-0.00016128,0.00015884,
 0.00029333,0.00018581,0.00200776,-0.00057248,-0.00004338,0.00710681,0.
 00830721,0.00022159,-0.07137869,-0.10937647,-0.00390789,-0.04591121,-0
 .03721181,0.02776250,0.14067516,0.17169530,-0.00004817,0.00009663,0.00
 003443,-0.00007528,-0.00018088,-0.00007105,0.00010279,0.00003246,0.000
 11312,-0.00005593,0.00020092,0.00009902,0.00005301,0.00001630,0.000070
 01,-0.00003913,-0.00007285,-0.00004074,0.00004265,0.00002599,-0.000325
 85,-0.00003708,0.00000908,0.00003730,-0.00001839,-0.00005468,0.0001114
 3,-0.00000555,0.00004446,0.00011025,-0.00001485,0.00026397,0.00204617,
 -0.00150345,-0.00091569,0.00859493,-0.00883275,-0.00350354,-0.07318524
 ,0.03515693,0.03303452,-0.00406746,0.01400976,0.00861242,0.08135774,-0
 .00082405,0.00173543,0.00022140,-0.00087288,-0.00261740,-0.00057576,0.
 00114006,0.00066428,0.00005390,-0.00144932,0.00247992,-0.00130622,0.00
 081099,0.00139116,0.00017623,0.00069258,-0.00052072,0.00012535,0.00121
 251,0.00064550,0.00006036,-0.00041219,-0.00002166,-0.00001285,-0.00034
 108,-0.00033918,0.00019834,-0.00034280,-0.00030398,-0.00023240,0.00086
 483,0.00115806,0.00044031,0.00207075,0.02372426,0.02247142,-0.08383363
 ,0.01808798,0.01889091,0.01357746,-0.00151756,0.00276102,-0.00714460,-
 0.04063586,-0.03901787,0.07794317,0.00193959,-0.00290663,-0.00031683,0
 .00064658,0.00391417,0.00077035,-0.00106655,-0.00062559,-0.00001755,0.
 00492374,-0.00335017,0.00221285,-0.00299100,-0.00133311,-0.00038462,0.
 00297574,-0.00061399,0.00115251,-0.00208487,-0.00230733,-0.00056233,0.
 00056873,0.00020909,0.00006991,0.00056217,0.00086541,-0.00031836,0.000
 53697,0.00099011,0.00075191,-0.00638276,-0.00193794,0.00051884,0.01282
 262,-0.02121116,-0.03172834,0.02009004,-0.13923274,-0.08479832,-0.0021
 5562,0.02081645,0.01366277,-0.02947041,-0.03143368,-0.03742094,-0.0024
 0340,0.17222523,0.00107624,-0.00166807,-0.00010160,0.00040678,0.002128
 68,0.00038204,-0.00055176,-0.00039317,0.00009127,0.00196842,-0.0021680
 1,0.00081937,-0.00144577,-0.00061473,-0.00022495,0.00160108,-0.0002708
 5,0.00067059,-0.00116793,-0.00126872,-0.00094838,0.00035447,0.00010986
 ,0.00012794,0.00030240,0.00033653,0.00006792,0.00032395,0.00067913,0.0
 0070250,-0.00359767,-0.00071410,0.00202858,0.00408264,-0.01802431,-0.0
 0908261,0.02334887,-0.08410751,-0.17743188,0.00401882,-0.00380605,-0.0
 9147412,-0.02716110,-0.03288574,-0.01406362,-0.00636097,0.14029211,0.2
 9116814,-0.00132167,-0.00756889,-0.00050266,0.01681607,0.00994607,0.00
 095439,-0.00003722,0.00146172,0.00008968,-0.20336474,0.09585995,-0.000
 89633,-0.06112825,-0.00043291,-0.00183009,0.01761509,-0.00008168,0.000
 61883,-0.00596341,-0.00502607,-0.00034916,0.00077932,-0.00083175,-0.00
 001155,0.00097984,0.00254974,-0.00104683,0.00091397,0.00247260,0.00129
 945,-0.03099483,-0.03840663,-0.00282479,-0.09123059,-0.04540821,-0.002
 74265,0.00023074,0.03538038,0.00137366,-0.00283079,0.00048228,-0.00232
 615,0.00109473,0.00213963,0.00011500,-0.00301256,0.00028050,0.00217197
 ,0.67290533,0.00685896,-0.00803499,-0.00032316,0.02146553,-0.01895997,
 -0.00000873,-0.00090270,-0.00308009,-0.00009971,0.05366625,-0.17563254
 ,-0.00325099,0.02443974,0.04906225,0.00263118,0.01003784,-0.03575608,-
 0.00096268,0.00629856,0.00126959,0.00025375,-0.00090433,0.00021244,-0.
 00002084,-0.00189545,-0.00169324,0.00076172,-0.00182943,-0.00161069,-0
 .00098185,-0.05749461,-0.02088366,-0.00304344,-0.01566269,-0.39375782,
 -0.01353243,0.01662199,-0.02700482,-0.00059805,-0.00186572,0.00435405,
 -0.00099081,-0.00476763,-0.00447861,-0.00032659,-0.00213912,0.00443054
 ,0.00134983,0.05758086,0.73314314,0.00004885,-0.00074913,0.00565929,0.
 00139436,-0.00035693,-0.00213112,0.00000180,-0.00002956,-0.00117566,-0
 .00251369,-0.00199609,-0.04947144,-0.00087578,0.00187572,-0.00019276,0
 .00100106,-0.00124825,-0.00320562,0.00007994,-0.00007853,-0.00056098,-
 0.00001274,-0.00001897,0.00005590,0.00010080,0.00023830,-0.00013656,-0
 .00017784,-0.00020474,-0.00015864,-0.00353001,-0.00248095,0.01332018,-
 0.00165682,-0.01437833,-0.05687629,0.00058480,-0.00009355,0.00126023,-
 0.00193154,0.00206345,-0.00104645,-0.00013891,-0.00008786,-0.00003350,
 0.00167558,-0.00158647,-0.00086492,0.01863862,0.02527780,0.12369701,0.
 00117873,0.00871545,0.00051792,0.00403217,-0.05867309,-0.00224874,-0.0
 5342752,0.09152829,0.00218684,-0.00748888,0.00012254,-0.00025642,0.000
 67104,-0.00138983,-0.00007817,-0.00053415,-0.00015543,-0.00002249,-0.0
 0017533,-0.00035491,-0.00001730,0.00006801,0.00004944,0.00000471,0.000
 03914,0.00006528,-0.00002263,0.00004108,0.00006736,0.00003448,0.000410
 77,0.00054835,0.00003666,-0.00040362,-0.00020857,-0.00002304,0.0006555
 6,-0.00051187,-0.00000474,-0.00013092,0.00019679,-0.00009694,-0.000280
 87,0.00001829,-0.00000706,-0.00013893,0.00019065,0.00010969,-0.0004196
 1,0.00096402,0.00003710,0.05547692,0.00750068,0.00284304,0.00052362,-0
 .00818205,-0.03207091,-0.00162381,0.04452832,-0.50289678,-0.01765804,-
 0.00237511,0.00189969,-0.00004646,0.00043856,-0.00021436,-0.00005263,0
 .00059472,-0.00061112,-0.00000651,-0.00062408,-0.00048875,-0.00003518,
 0.00021141,-0.00002836,0.00000622,0.00012585,0.00016099,-0.00007019,0.
 00012551,0.00016012,0.00009544,-0.00015202,0.00083216,0.00003166,-0.00
 060513,-0.00032107,-0.00003383,0.00041645,-0.00047324,-0.00001078,-0.0
 0008239,0.00015503,-0.00007365,-0.00017037,0.00003300,-0.00000254,-0.0
 0008871,0.00015128,0.00008641,-0.00044537,0.00114320,0.00004668,-0.041
 07096,0.52966298,0.00047127,0.00055966,-0.00492933,-0.00030883,-0.0031
 2829,0.00370540,0.00038116,-0.01625705,-0.00935072,-0.00035242,0.00002
 751,0.00126235,-0.00000761,-0.00010706,0.00148977,0.00000639,-0.000029
 42,0.00002522,-0.00002792,-0.00002753,-0.00005010,0.00001095,0.0000014
 7,-0.00002706,0.00007112,0.00008360,-0.00007493,-0.00005443,-0.0000615
 4,-0.00007592,0.00000882,0.00005199,-0.00008618,-0.00003724,-0.0000210
 4,0.00006280,0.00003259,-0.00003733,0.00010630,-0.00001491,0.00004442,
 -0.00006313,-0.00001444,0.00000285,-0.00003479,0.00000418,-0.00001654,
 -0.00005349,-0.00001717,0.00008905,-0.00042173,-0.00015974,0.01882437,
 0.00855417,0.00346559,-0.00061514,0.00010049,-0.00290405,0.00396851,0.
 00009971,0.00028156,-0.00046192,-0.00000315,-0.01790843,0.01671687,-0.
 00001459,-0.24668724,0.13908079,-0.00094078,0.00521898,-0.00127361,-0.
 00003980,0.00020390,0.00031073,0.00015785,-0.00250838,-0.00306664,-0.0
 0018282,0.00005441,0.00016878,-0.00011334,0.00009601,0.00022598,0.0001
 6323,0.00237632,-0.00218825,-0.00018514,-0.00071810,-0.00109535,-0.000
 05229,-0.00014887,-0.00030159,-0.00000211,0.00003240,0.00011039,-0.000
 07038,0.00007588,0.00015767,0.00000855,0.00002778,0.00011501,0.0000874
 5,-0.00295217,-0.00345705,-0.00034307,-0.00011911,-0.00007363,-0.00000
 666,0.26268848,0.00146154,-0.00203293,-0.00000783,-0.00181424,0.001646
 98,0.00005338,0.00078346,0.00015284,0.00003721,-0.00874390,0.01132826,
 0.00001357,0.13705882,-0.15654006,-0.00060676,0.02567016,-0.01380414,0
 .00004384,0.00348826,-0.00227547,0.00019817,-0.00178870,0.00162560,0.0
 0002217,-0.00030162,0.00049854,-0.00033507,-0.00025956,0.00055865,0.00
 039844,-0.00416257,-0.00386628,-0.00049569,0.00041085,0.00023182,0.000
 03575,-0.00032825,0.00007572,0.00001469,0.00004818,-0.00003428,0.00001
 588,0.00016830,0.00011588,0.00000930,0.00004912,-0.00002013,-0.0000087
 8,-0.00324778,-0.00119641,-0.00030068,-0.00007620,-0.00003072,-0.00000
 383,-0.14894022,0.16362358,0.00018050,-0.00006965,-0.00069753,-0.00012
 230,0.00022554,-0.00113044,0.00004492,0.00000022,-0.00020757,-0.001000
 39,0.00076937,0.00423074,-0.00101934,-0.00054062,-0.03496426,0.0010021
 3,-0.00076189,0.00486023,0.00027952,0.00010142,-0.00467002,-0.00013477
 ,-0.00001414,-0.00037496,0.00083234,0.00116390,-0.00046284,-0.00081732
 ,-0.00107188,-0.00055778,-0.00026518,-0.00043526,0.00576017,0.00000634
 ,-0.00000758,-0.00036756,-0.00000043,0.00001369,-0.00051584,0.00001603
 ,0.00020338,-0.00009641,0.00000726,0.00000868,0.00001008,-0.00000169,-
 0.00019134,-0.00011100,-0.00033408,-0.00031057,0.00408368,-0.00000677,
 -0.00000376,0.00000940,0.00135188,0.00093158,0.02447619,0.00031446,-0.
 00015971,0.00000132,-0.00009293,0.00003914,0.00001025,0.00027226,0.000
 05707,0.00001102,0.00058105,0.00002300,0.00004517,-0.00561878,0.001643
 95,-0.00018344,0.00828321,0.02372454,0.00120007,0.00057538,0.00253507,
 0.00008518,0.00044699,-0.00051770,0.00000558,-0.00031563,-0.00079195,0
 .00031908,-0.00030131,-0.00070898,-0.00032821,-0.06218586,-0.02928594,
 -0.00257939,0.00348961,-0.02712137,-0.00089028,0.00009691,-0.00313596,
 -0.00013386,-0.00008603,0.00098420,-0.00035666,0.00051170,0.00050263,0
 .00004642,-0.00009157,0.00098551,0.00048327,-0.00630137,-0.00020996,-0
 .00027703,0.00004046,-0.00000377,-0.00000187,0.00032038,0.00116204,0.0
 0000830,0.05998668,-0.00035403,0.00008369,-0.00000960,0.00012851,-0.00
 036789,0.00000412,0.00009637,-0.00009554,0.00000004,0.00004914,0.00100
 433,0.00007401,0.00314163,0.00012130,-0.00000426,-0.00427427,-0.012501
 63,-0.00055048,-0.00102636,-0.00289516,-0.00018216,0.00025878,0.000423
 88,0.00003962,-0.00006893,0.00104825,-0.00043432,-0.00010525,0.0010883
 2,0.00059851,-0.02928132,-0.34570061,-0.01359583,0.00092690,-0.0076646
 1,-0.00021011,0.00037869,-0.00246386,-0.00011791,0.00035413,0.00083545
 ,-0.00034204,-0.00027194,0.00037827,0.00002267,0.00030759,0.00086361,0
 .00052093,-0.00174274,0.00082385,-0.00012293,0.00001281,-0.00000859,-0
 .00000366,-0.00029121,-0.00061827,-0.00009121,0.03163723,0.36606881,-0
 .00001029,0.00000015,0.00005936,0.00001447,-0.00000573,-0.00037880,0.0
 0001534,-0.00000005,-0.00002197,0.00004597,0.00007901,-0.00087965,-0.0
 0012575,-0.00004867,0.00268274,0.00012709,0.00027370,-0.00145347,-0.00
 005308,-0.00007203,0.00102982,0.00003573,0.00001563,-0.00040987,-0.000
 00511,0.00106499,-0.00112018,0.00004826,-0.00094134,-0.00117492,-0.002
 57237,-0.01356776,-0.01383483,0.00017526,-0.00105841,-0.00148059,-0.00
 001277,-0.00023338,0.00097328,0.00027079,0.00109728,-0.00112890,0.0000
 1623,0.00004776,-0.00041052,-0.00017878,-0.00087943,-0.00116637,-0.000
 33513,-0.00007848,0.00270781,-0.00000135,-0.00000447,0.00009657,-0.000
 04746,-0.00004902,0.00153349,0.00263278,0.01447705,0.01282876,0.000076
 14,0.00099647,0.00004473,-0.00212079,-0.00260914,-0.00013112,0.0016733
 3,-0.00105442,0.00001471,-0.01746636,-0.01077084,-0.00103774,-0.001479
 90,0.00363911,-0.00003343,-0.00057830,0.00126795,0.00004346,0.00005042
 ,0.00035526,0.00003170,-0.00000907,-0.00013193,-0.00000556,-0.00002473
 ,-0.00014304,0.00008777,-0.00001660,-0.00012391,-0.00009248,0.00350984
 ,0.00057239,-0.00004407,-0.00113575,-0.00183735,-0.00024872,-0.0008314
 0,-0.00061969,0.00008594,0.00015566,-0.00016719,0.00007846,-0.00151836
 ,0.00409117,0.00012039,0.00012347,-0.00008324,-0.00005087,-0.30177789,
 -0.10680505,-0.01210548,0.00050506,-0.00006792,0.00001676,-0.00089532,
 -0.00063768,-0.00002694,0.00007441,0.00012427,-0.00003983,0.32168616,-
 0.00029534,-0.00037261,-0.00001803,0.00135551,0.00252247,0.00018002,-0
 .00119672,-0.00369642,-0.00017091,0.01515139,0.01134058,0.00075542,0.0
 0351990,-0.00244655,-0.00015706,-0.00010794,-0.00012340,0.00000717,0.0
 0031957,-0.00010428,0.00002691,-0.00014422,0.00017776,0.00000216,-0.00
 005189,0.00001624,-0.00000795,-0.00004902,0.00003162,0.00001564,0.0025
 0728,-0.00492953,-0.00033618,-0.02900995,-0.00810562,-0.00135663,-0.00
 389238,-0.00150613,-0.00001054,0.00041184,0.00045281,-0.00032636,0.002
 58217,0.00028905,0.00010900,0.00034431,0.00050659,0.00042655,-0.104961
 68,-0.10235015,-0.00576897,-0.00003841,0.00010241,0.00000836,0.0009098
 5,0.00056082,0.00008015,-0.00135903,-0.00042361,-0.00011682,0.11400479
 ,0.10805792,-0.00000503,0.00002025,-0.00013069,0.00002192,0.00006174,-
 0.00110241,0.00000947,-0.00016647,-0.00018654,-0.00003820,-0.00001546,
 0.00344370,-0.00003840,-0.00015202,0.00432441,-0.00000836,0.00004714,-
 0.00038851,0.00003029,0.00002784,-0.00055908,-0.00000632,0.00000261,0.
 00000923,0.00004709,0.00020696,-0.00010008,-0.00004513,-0.00020418,-0.
 00012252,0.00002839,-0.00039425,0.00572533,-0.00129061,-0.00053879,0.0
 0462242,-0.00003452,0.00010102,-0.00454926,-0.00052886,0.00127363,-0.0
 0047633,0.00005067,0.00014845,-0.00035170,0.00060755,-0.00121018,-0.00
 053541,-0.01204499,-0.00583502,-0.03450841,0.00001797,0.00000743,-0.00
 014461,0.00003246,0.00003366,-0.00080778,-0.00009768,-0.00007244,0.001
 54825,0.01329232,0.00665808,0.02429000\\-0.00000588,-0.00000245,-0.000
 00096,-0.00000636,0.00000075,0.00000074,-0.00000565,0.00000238,-0.0000
 0070,-0.00000409,0.00000053,-0.00000154,-0.00000075,-0.00000152,0.0000
 0298,0.00000482,-0.00000485,-0.00000236,0.00000261,-0.00000568,0.00000
 249,0.00000058,-0.00000677,-0.00000026,0.00000359,-0.00000389,0.000000
 44,0.00000405,-0.00000671,-0.00000026,-0.00000263,0.00000016,-0.000001
 68,0.00000505,0.00000416,0.00000213,0.00000493,0.00000776,0.00000428,0
 .00000426,0.00000577,-0.00000178,0.00000029,0.00000483,0.00000018,0.00
 000531,0.00000102,-0.00000273,-0.00000189,0.00000092,0.00000115,-0.000
 00826,0.00000297,-0.00000071,-0.00000269,-0.00000342,-0.00000115,0.000
 00512,-0.00000062,0.00000085,-0.00000241,0.00000465,-0.00000112\\\@
 The archive entry for this job was punched.


 TO DRY ONE'S EYES AND LAUGH AT A FALL
 AND BAFFLED, GET UP AND BEGIN AGAIN.
           R. BROWNING
 Job cpu time:       0 days  7 hours 52 minutes 23.6 seconds.
 Elapsed time:       0 days  0 hours 59 minutes 36.6 seconds.
 File lengths (MBytes):  RWF=   1068 Int=      0 D2E=      0 Chk=     34 Scr=      1
 Normal termination of Gaussian 16 at Mon Jan 29 17:23:38 2024.
