Job Start Time: Mon Jan 29 12:53:41 MST 2024
SLURM Job ID: 229703
SLURM Job Name: Ac4_rdkit_conf_2_AD_EA
 Entering Gaussian System, Link 0=/opt/apps/Gaussian/G16C/g16/g16
 Initial command:
 /opt/apps/Gaussian/G16C/g16/l1.exe "/tmp/Gau-2595210.inp" -scrdir="/tmp/"
 Entering Link 1 = /opt/apps/Gaussian/G16C/g16/l1.exe PID=   2595212.
  
 Copyright (c) 1988-2019, Gaussian, Inc.  All Rights Reserved.
  
 This is part of the Gaussian(R) 16 program.  It is based on
 the Gaussian(R) 09 system (copyright 2009, Gaussian, Inc.),
 the Gaussian(R) 03 system (copyright 2003, Gaussian, Inc.),
 the Gaussian(R) 98 system (copyright 1998, Gaussian, Inc.),
 the Gaussian(R) 94 system (copyright 1995, Gaussian, Inc.),
 the Gaussian 92(TM) system (copyright 1992, Gaussian, Inc.),
 the Gaussian 90(TM) system (copyright 1990, Gaussian, Inc.),
 the Gaussian 88(TM) system (copyright 1988, Gaussian, Inc.),
 the Gaussian 86(TM) system (copyright 1986, Carnegie Mellon
 University), and the Gaussian 82(TM) system (copyright 1983,
 Carnegie Mellon University). Gaussian is a federally registered
 trademark of Gaussian, Inc.
  
 This software contains proprietary and confidential information,
 including trade secrets, belonging to Gaussian, Inc.
  
 This software is provided under written license and may be
 used, copied, transmitted, or stored only in accord with that
 written license.
  
 The following legend is applicable only to US Government
 contracts under FAR:
  
                    RESTRICTED RIGHTS LEGEND
  
 Use, reproduction and disclosure by the US Government is
 subject to restrictions as set forth in subparagraphs (a)
 and (c) of the Commercial Computer Software - Restricted
 Rights clause in FAR 52.227-19.
  
 Gaussian, Inc.
 340 Quinnipiac St., Bldg. 40, Wallingford CT 06492
  
  
 ---------------------------------------------------------------
 Warning -- This program may not be used in any manner that
 competes with the business of Gaussian, Inc. or will provide
 assistance to any competitor of Gaussian, Inc.  The licensee
 of this program is prohibited from giving any competitor of
 Gaussian, Inc. access to this program.  By using this program,
 the user acknowledges that Gaussian, Inc. is engaged in the
 business of creating and licensing software in the field of
 computational chemistry and represents and warrants to the
 licensee that it is not a competitor of Gaussian, Inc. and that
 it will not use this program in any manner prohibited above.
 ---------------------------------------------------------------
  

 Cite this work as:
 Gaussian 16, Revision C.01,
 M. J. Frisch, G. W. Trucks, H. B. Schlegel, G. E. Scuseria, 
 M. A. Robb, J. R. Cheeseman, G. Scalmani, V. Barone, 
 G. A. Petersson, H. Nakatsuji, X. Li, M. Caricato, A. V. Marenich, 
 J. Bloino, B. G. Janesko, R. Gomperts, B. Mennucci, H. P. Hratchian, 
 J. V. Ortiz, A. F. Izmaylov, J. L. Sonnenberg, D. Williams-Young, 
 F. Ding, F. Lipparini, F. Egidi, J. Goings, B. Peng, A. Petrone, 
 T. Henderson, D. Ranasinghe, V. G. Zakrzewski, J. Gao, N. Rega, 
 G. Zheng, W. Liang, M. Hada, M. Ehara, K. Toyota, R. Fukuda, 
 J. Hasegawa, M. Ishida, T. Nakajima, Y. Honda, O. Kitao, H. Nakai, 
 T. Vreven, K. Throssell, J. A. Montgomery, Jr., J. E. Peralta, 
 F. Ogliaro, M. J. Bearpark, J. J. Heyd, E. N. Brothers, K. N. Kudin, 
 V. N. Staroverov, T. A. Keith, R. Kobayashi, J. Normand, 
 K. Raghavachari, A. P. Rendell, J. C. Burant, S. S. Iyengar, 
 J. Tomasi, M. Cossi, J. M. Millam, M. Klene, C. Adamo, R. Cammi, 
 J. W. Ochterski, R. L. Martin, K. Morokuma, O. Farkas, 
 J. B. Foresman, and D. J. Fox, Gaussian, Inc., Wallingford CT, 2019.
 
 ******************************************
 Gaussian 16:  AS64L-G16RevC.01  3-Jul-2019
                29-Jan-2024 
 ******************************************
 %nprocshared=8
 Will use up to    8 processors via shared memory.
 %mem=16GB
 ---------------------------------
 # m062x/def2tzvp opt freq=noraman
 ---------------------------------
 1/18=20,19=15,26=3,38=1/1,3;
 2/9=110,12=2,17=6,18=5,40=1/2;
 3/5=44,7=101,11=2,25=1,30=1,71=1,74=-55/1,2,3;
 4//1;
 5/5=2,38=5/2;
 6/7=2,8=2,9=2,10=2,28=1/1;
 7//1,2,3,16;
 1/18=20,19=15,26=3/3(2);
 2/9=110/2;
 99//99;
 2/9=110/2;
 3/5=44,7=101,11=2,25=1,30=1,71=1,74=-55/1,2,3;
 4/5=5,16=3,69=1/1;
 5/5=2,38=5/2;
 7//1,2,3,16;
 1/18=20,19=15,26=3/3(-5);
 2/9=110/2;
 6/7=2,8=2,9=2,10=2,19=2,28=1/1;
 99/9=1/99;
 ----------------------
 Ac4_rdkit_conf_2_AD_EA
 ----------------------
 Symbolic Z-matrix:
 Charge = -1 Multiplicity = 2
 C                     1.6806    2.51045  -0.04597 
 O                     0.52281   1.70543  -0.03364 
 C                     0.66602   0.3682   -0.00485 
 C                     1.91698  -0.25199   0.00881 
 C                     2.01782  -1.63393   0.02549 
 C                     0.88225  -2.42862   0.02457 
 C                    -0.35793  -1.8176    0.0092 
 C                    -0.49275  -0.43166   0.00003 
 C                    -1.89604   0.07073  -0.0077 
 O                    -2.85132  -0.6526   -0.12756 
 O                    -2.03693   1.39426   0.14599 
 H                     1.3272    3.53734  -0.06938 
 H                     2.28256   2.35341   0.85261 
 H                     2.29046   2.31505  -0.93167 
 H                     2.8182    0.34174   0.00483 
 H                     3.00054  -2.08816   0.03722 
 H                     0.9616   -3.50654   0.03557 
 H                    -1.26779  -2.40243   0.00543 
 H                    -2.99094   1.55943   0.12962 
 

 GradGradGradGradGradGradGradGradGradGradGradGradGradGradGradGradGradGrad
 Berny optimization.
 Initialization pass.
                           ----------------------------
                           !    Initial Parameters    !
                           ! (Angstroms and Degrees)  !
 --------------------------                            --------------------------
 ! Name  Definition              Value          Derivative Info.                !
 --------------------------------------------------------------------------------
 ! R1    R(1,2)                  1.4102         estimate D2E/DX2                !
 ! R2    R(1,12)                 1.0863         estimate D2E/DX2                !
 ! R3    R(1,13)                 1.0929         estimate D2E/DX2                !
 ! R4    R(1,14)                 1.093          estimate D2E/DX2                !
 ! R5    R(2,3)                  1.3452         estimate D2E/DX2                !
 ! R6    R(3,4)                  1.3963         estimate D2E/DX2                !
 ! R7    R(3,8)                  1.408          estimate D2E/DX2                !
 ! R8    R(4,5)                  1.3857         estimate D2E/DX2                !
 ! R9    R(4,15)                 1.0792         estimate D2E/DX2                !
 ! R10   R(5,6)                  1.386          estimate D2E/DX2                !
 ! R11   R(5,16)                 1.0827         estimate D2E/DX2                !
 ! R12   R(6,7)                  1.3826         estimate D2E/DX2                !
 ! R13   R(6,17)                 1.0809         estimate D2E/DX2                !
 ! R14   R(7,8)                  1.3925         estimate D2E/DX2                !
 ! R15   R(7,18)                 1.0816         estimate D2E/DX2                !
 ! R16   R(8,9)                  1.4905         estimate D2E/DX2                !
 ! R17   R(9,10)                 1.2042         estimate D2E/DX2                !
 ! R18   R(9,11)                 1.3399         estimate D2E/DX2                !
 ! R19   R(11,19)                0.9683         estimate D2E/DX2                !
 ! A1    A(2,1,12)             105.8277         estimate D2E/DX2                !
 ! A2    A(2,1,13)             111.2836         estimate D2E/DX2                !
 ! A3    A(2,1,14)             111.2931         estimate D2E/DX2                !
 ! A4    A(12,1,13)            109.4355         estimate D2E/DX2                !
 ! A5    A(12,1,14)            109.4553         estimate D2E/DX2                !
 ! A6    A(13,1,14)            109.4664         estimate D2E/DX2                !
 ! A7    A(1,2,3)              118.7024         estimate D2E/DX2                !
 ! A8    A(2,3,4)              122.4877         estimate D2E/DX2                !
 ! A9    A(2,3,8)              118.5009         estimate D2E/DX2                !
 ! A10   A(4,3,8)              119.0091         estimate D2E/DX2                !
 ! A11   A(3,4,5)              120.5479         estimate D2E/DX2                !
 ! A12   A(3,4,15)             120.2478         estimate D2E/DX2                !
 ! A13   A(5,4,15)             119.2042         estimate D2E/DX2                !
 ! A14   A(4,5,6)              120.8085         estimate D2E/DX2                !
 ! A15   A(4,5,16)             118.9847         estimate D2E/DX2                !
 ! A16   A(6,5,16)             120.2067         estimate D2E/DX2                !
 ! A17   A(5,6,7)              118.7848         estimate D2E/DX2                !
 ! A18   A(5,6,17)             120.7722         estimate D2E/DX2                !
 ! A19   A(7,6,17)             120.443          estimate D2E/DX2                !
 ! A20   A(6,7,8)              121.7872         estimate D2E/DX2                !
 ! A21   A(6,7,18)             121.0395         estimate D2E/DX2                !
 ! A22   A(8,7,18)             117.1732         estimate D2E/DX2                !
 ! A23   A(3,8,7)              119.0605         estimate D2E/DX2                !
 ! A24   A(3,8,9)              125.6842         estimate D2E/DX2                !
 ! A25   A(7,8,9)              115.2551         estimate D2E/DX2                !
 ! A26   A(8,9,10)             123.0188         estimate D2E/DX2                !
 ! A27   A(8,9,11)             115.553          estimate D2E/DX2                !
 ! A28   A(10,9,11)            121.4229         estimate D2E/DX2                !
 ! A29   A(9,11,19)            105.6728         estimate D2E/DX2                !
 ! D1    D(12,1,2,3)           179.9818         estimate D2E/DX2                !
 ! D2    D(13,1,2,3)           -61.2276         estimate D2E/DX2                !
 ! D3    D(14,1,2,3)            61.1622         estimate D2E/DX2                !
 ! D4    D(1,2,3,4)             -0.2165         estimate D2E/DX2                !
 ! D5    D(1,2,3,8)           -179.6603         estimate D2E/DX2                !
 ! D6    D(2,3,4,5)           -179.3732         estimate D2E/DX2                !
 ! D7    D(2,3,4,15)             0.5252         estimate D2E/DX2                !
 ! D8    D(8,3,4,5)              0.0679         estimate D2E/DX2                !
 ! D9    D(8,3,4,15)           179.9664         estimate D2E/DX2                !
 ! D10   D(2,3,8,7)            179.0335         estimate D2E/DX2                !
 ! D11   D(2,3,8,9)             -0.7785         estimate D2E/DX2                !
 ! D12   D(4,3,8,7)             -0.4301         estimate D2E/DX2                !
 ! D13   D(4,3,8,9)            179.7579         estimate D2E/DX2                !
 ! D14   D(3,4,5,6)              0.2116         estimate D2E/DX2                !
 ! D15   D(3,4,5,16)          -179.9161         estimate D2E/DX2                !
 ! D16   D(15,4,5,6)          -179.6879         estimate D2E/DX2                !
 ! D17   D(15,4,5,16)            0.1844         estimate D2E/DX2                !
 ! D18   D(4,5,6,7)             -0.1193         estimate D2E/DX2                !
 ! D19   D(4,5,6,17)           179.8755         estimate D2E/DX2                !
 ! D20   D(16,5,6,7)          -179.99           estimate D2E/DX2                !
 ! D21   D(16,5,6,17)            0.0047         estimate D2E/DX2                !
 ! D22   D(5,6,7,8)             -0.2583         estimate D2E/DX2                !
 ! D23   D(5,6,7,18)           179.8439         estimate D2E/DX2                !
 ! D24   D(17,6,7,8)           179.7469         estimate D2E/DX2                !
 ! D25   D(17,6,7,18)           -0.1509         estimate D2E/DX2                !
 ! D26   D(6,7,8,3)              0.5339         estimate D2E/DX2                !
 ! D27   D(6,7,8,9)           -179.635          estimate D2E/DX2                !
 ! D28   D(18,7,8,3)          -179.5646         estimate D2E/DX2                !
 ! D29   D(18,7,8,9)             0.2665         estimate D2E/DX2                !
 ! D30   D(3,8,9,10)           172.9189         estimate D2E/DX2                !
 ! D31   D(3,8,9,11)            -7.9063         estimate D2E/DX2                !
 ! D32   D(7,8,9,10)            -6.8993         estimate D2E/DX2                !
 ! D33   D(7,8,9,11)           172.2754         estimate D2E/DX2                !
 ! D34   D(8,9,11,19)         -179.3729         estimate D2E/DX2                !
 ! D35   D(10,9,11,19)          -0.1838         estimate D2E/DX2                !
 --------------------------------------------------------------------------------
 Trust Radius=3.00D-01 FncErr=1.00D-07 GrdErr=1.00D-06 EigMax=2.50D+02 EigMin=1.00D-04
 Number of steps in this run=     93 maximum allowed number of steps=    114.
 GradGradGradGradGradGradGradGradGradGradGradGradGradGradGradGradGradGrad

                          Input orientation:                          
 ---------------------------------------------------------------------
 Center     Atomic      Atomic             Coordinates (Angstroms)
 Number     Number       Type             X           Y           Z
 ---------------------------------------------------------------------
      1          6           0        1.680600    2.510447   -0.045968
      2          8           0        0.522812    1.705425   -0.033635
      3          6           0        0.666020    0.368203   -0.004849
      4          6           0        1.916982   -0.251987    0.008808
      5          6           0        2.017818   -1.633932    0.025487
      6          6           0        0.882246   -2.428619    0.024572
      7          6           0       -0.357926   -1.817600    0.009196
      8          6           0       -0.492751   -0.431661    0.000034
      9          6           0       -1.896044    0.070725   -0.007704
     10          8           0       -2.851320   -0.652599   -0.127563
     11          8           0       -2.036930    1.394261    0.145988
     12          1           0        1.327203    3.537343   -0.069384
     13          1           0        2.282556    2.353413    0.852605
     14          1           0        2.290458    2.315049   -0.931668
     15          1           0        2.818195    0.341738    0.004825
     16          1           0        3.000541   -2.088160    0.037217
     17          1           0        0.961599   -3.506535    0.035569
     18          1           0       -1.267787   -2.402434    0.005433
     19          1           0       -2.990939    1.559427    0.129619
 ---------------------------------------------------------------------
                    Distance matrix (angstroms):
                    1          2          3          4          5
     1  C    0.000000
     2  O    1.410208   0.000000
     3  C    2.370711   1.345177   0.000000
     4  C    2.773070   2.403533   1.396327   0.000000
     5  C    4.158690   3.659214   2.415952   1.385719   0.000000
     6  C    5.003670   4.150048   2.805322   2.410115   1.386020
     7  C    4.784415   3.631699   2.413793   2.761585   2.382889
     8  C    3.658083   2.366356   1.408033   2.416438   2.783713
     9  C    4.329675   2.919551   2.579278   3.826693   4.269107
    10  O    5.527189   4.117507   3.664529   4.787044   4.969401
    11  O    3.886225   2.584834   2.895080   4.285134   5.062159
    12  H    1.086256   2.001061   3.238020   3.835750   5.218049
    13  H    1.092906   2.074128   2.699903   2.762924   4.080825
    14  H    1.092965   2.074290   2.699630   2.759285   4.072460
    15  H    2.449490   2.670188   2.152359   1.079217   2.131737
    16  H    4.785013   4.531605   3.389023   2.132238   1.082684
    17  H    6.060337   5.230856   3.886206   3.391984   2.149963
    18  H    5.729924   4.481325   3.378779   3.842810   3.374344
    19  H    4.770592   3.520570   3.848434   5.232925   5.941046
                    6          7          8          9         10
     6  C    0.000000
     7  C    1.382609   0.000000
     8  C    2.424677   1.392512   0.000000
     9  C    3.737199   2.435542   1.490531   0.000000
    10  O    4.137258   2.755530   2.372328   1.204208   0.000000
    11  O    4.811522   3.626819   2.395784   1.339857   2.219842
    12  H    5.983270   5.614379   4.366926   4.733980   5.917690
    13  H    5.051172   5.008077   4.023163   4.838543   6.029388
    14  H    5.039826   4.997795   4.019793   4.839163   5.990943
    15  H    3.379818   3.840639   3.400078   4.722039   5.757572
    16  H    2.145518   3.369464   3.866324   5.351574   6.027625
    17  H    1.080889   2.143442   3.401654   4.578732   4.765492
    18  H    2.150278   1.081615   2.117701   2.551743   2.363723
    19  H    5.560315   4.283873   3.197212   1.853075   2.231299
                   11         12         13         14         15
    11  O    0.000000
    12  H    3.994568   0.000000
    13  H    4.480763   1.778891   0.000000
    14  H    4.553623   1.779156   1.784703   0.000000
    15  H    4.969906   3.527103   2.247771   2.247105   0.000000
    16  H    6.124965   5.870069   4.572519   4.564122   2.436946
    17  H    5.746405   7.054141   6.062299   6.049153   4.272833
    18  H    3.876368   6.482324   5.995058   5.982801   4.921964
    19  H    0.968339   4.753746   5.381716   5.439710   5.936698
                   16         17         18         19
    16  H    0.000000
    17  H    2.483762   0.000000
    18  H    4.280000   2.487993   0.000000
    19  H    7.015074   6.426148   4.322154   0.000000
 Stoichiometry    C8H8O3(1-,2)
 Framework group  C1[X(C8H8O3)]
 Deg. of freedom    51
 Full point group                 C1      NOp   1
 Largest Abelian subgroup         C1      NOp   1
 Largest concise Abelian subgroup C1      NOp   1
                         Standard orientation:                         
 ---------------------------------------------------------------------
 Center     Atomic      Atomic             Coordinates (Angstroms)
 Number     Number       Type             X           Y           Z
 ---------------------------------------------------------------------
      1          6           0       -1.680601    2.510446    0.045968
      2          8           0       -0.522813    1.705425    0.033635
      3          6           0       -0.666020    0.368203    0.004849
      4          6           0       -1.916982   -0.251988   -0.008808
      5          6           0       -2.017817   -1.633933   -0.025487
      6          6           0       -0.882245   -2.428619   -0.024572
      7          6           0        0.357927   -1.817600   -0.009196
      8          6           0        0.492751   -0.431661   -0.000034
      9          6           0        1.896044    0.070726    0.007704
     10          8           0        2.851320   -0.652598    0.127563
     11          8           0        2.036929    1.394262   -0.145988
     12          1           0       -1.327205    3.537343    0.069384
     13          1           0       -2.282557    2.353412   -0.852605
     14          1           0       -2.290459    2.315048    0.931668
     15          1           0       -2.818195    0.341737   -0.004825
     16          1           0       -3.000540   -2.088161   -0.037217
     17          1           0       -0.961598   -3.506535   -0.035569
     18          1           0        1.267788   -2.402433   -0.005433
     19          1           0        2.990938    1.559428   -0.129619
 ---------------------------------------------------------------------
 Rotational constants (GHZ):           1.4121687           1.1670760           0.6427161
 Standard basis: def2TZVP (5D, 7F)
 There are   444 symmetry adapted cartesian basis functions of A   symmetry.
 There are   389 symmetry adapted basis functions of A   symmetry.
   389 basis functions,   625 primitive gaussians,   444 cartesian basis functions
    41 alpha electrons       40 beta electrons
       nuclear repulsion energy       597.3001573793 Hartrees.
 NAtoms=   19 NActive=   19 NUniq=   19 SFac= 1.00D+00 NAtFMM=   60 NAOKFM=F Big=F
 Integral buffers will be    131072 words long.
 Raffenetti 2 integral format.
 Two-electron integral symmetry is turned on.
 One-electron integrals computed using PRISM.
   1 Symmetry operations used in ECPInt.
 ECPInt:  NShTT=   11781 NPrTT=   36312 LenC2=   11266 LenP2D=   26668.
 LDataN:  DoStor=T MaxTD1= 6 Len=  172
 NBasis=   389 RedAO= T EigKep=  7.57D-06  NBF=   389
 NBsUse=   389 1.00D-06 EigRej= -1.00D+00 NBFU=   389
 ExpMin= 9.52D-02 ExpMax= 2.70D+04 ExpMxC= 9.22D+02 IAcc=3 IRadAn=         5 AccDes= 0.00D+00
 Harris functional with IExCor= 1009 and IRadAn=       5 diagonalized for initial guess.
 HarFok:  IExCor= 1009 AccDes= 0.00D+00 IRadAn=         5 IDoV= 1 UseB2=F ITyADJ=14
 ICtDFT=  3500011 ScaDFX=  1.000000  1.000000  1.000000  1.000000
 FoFCou: FMM=F IPFlag=           0 FMFlag=      100000 FMFlg1=           0
         NFxFlg=           0 DoJE=T BraDBF=F KetDBF=T FulRan=T
         wScrn=  0.000000 ICntrl=       500 IOpCl=  0 I1Cent=   200000004 NGrid=           0
         NMat0=    1 NMatS0=      1 NMatT0=    0 NMatD0=    1 NMtDS0=    0 NMtDT0=    0
 Petite list used in FoFCou.
 Initial guess <Sx>= 0.0000 <Sy>= 0.0000 <Sz>= 0.5000 <S**2>= 0.7500 S= 0.5000
 Requested convergence on RMS density matrix=1.00D-08 within 128 cycles.
 Requested convergence on MAX density matrix=1.00D-06.
 Requested convergence on             energy=1.00D-06.
 No special actions if energy rises.
 Integral accuracy reduced to 1.0D-05 until final iterations.
 Initial convergence to 1.0D-05 achieved.  Increase integral accuracy.
 SCF Done:  E(UM062X) =  -535.324496855     A.U. after   25 cycles
            NFock= 25  Conv=0.65D-08     -V/T= 2.0038
 <Sx>= 0.0000 <Sy>= 0.0000 <Sz>= 0.5000 <S**2>= 0.7620 S= 0.5060
 <L.S>=  0.00000000000    
 Annihilation of the first spin contaminant:
 S**2 before annihilation     0.7620,   after     0.7501

 **********************************************************************

            Population analysis using the SCF Density.

 **********************************************************************

 Orbital symmetries:
 Alpha Orbitals:
       Occupied  (A) (A) (A) (A) (A) (A) (A) (A) (A) (A) (A) (A)
                 (A) (A) (A) (A) (A) (A) (A) (A) (A) (A) (A) (A)
                 (A) (A) (A) (A) (A) (A) (A) (A) (A) (A) (A) (A)
                 (A) (A) (A) (A) (A)
       Virtual   (A) (A) (A) (A) (A) (A) (A) (A) (A) (A) (A) (A)
                 (A) (A) (A) (A) (A) (A) (A) (A) (A) (A) (A) (A)
                 (A) (A) (A) (A) (A) (A) (A) (A) (A) (A) (A) (A)
                 (A) (A) (A) (A) (A) (A) (A) (A) (A) (A) (A) (A)
                 (A) (A) (A) (A) (A) (A) (A) (A) (A) (A) (A) (A)
                 (A) (A) (A) (A) (A) (A) (A) (A) (A) (A) (A) (A)
                 (A) (A) (A) (A) (A) (A) (A) (A) (A) (A) (A) (A)
                 (A) (A) (A) (A) (A) (A) (A) (A) (A) (A) (A) (A)
                 (A) (A) (A) (A) (A) (A) (A) (A) (A) (A) (A) (A)
                 (A) (A) (A) (A) (A) (A) (A) (A) (A) (A) (A) (A)
                 (A) (A) (A) (A) (A) (A) (A) (A) (A) (A) (A) (A)
                 (A) (A) (A) (A) (A) (A) (A) (A) (A) (A) (A) (A)
                 (A) (A) (A) (A) (A) (A) (A) (A) (A) (A) (A) (A)
                 (A) (A) (A) (A) (A) (A) (A) (A) (A) (A) (A) (A)
                 (A) (A) (A) (A) (A) (A) (A) (A) (A) (A) (A) (A)
                 (A) (A) (A) (A) (A) (A) (A) (A) (A) (A) (A) (A)
                 (A) (A) (A) (A) (A) (A) (A) (A) (A) (A) (A) (A)
                 (A) (A) (A) (A) (A) (A) (A) (A) (A) (A) (A) (A)
                 (A) (A) (A) (A) (A) (A) (A) (A) (A) (A) (A) (A)
                 (A) (A) (A) (A) (A) (A) (A) (A) (A) (A) (A) (A)
                 (A) (A) (A) (A) (A) (A) (A) (A) (A) (A) (A) (A)
                 (A) (A) (A) (A) (A) (A) (A) (A) (A) (A) (A) (A)
                 (A) (A) (A) (A) (A) (A) (A) (A) (A) (A) (A) (A)
                 (A) (A) (A) (A) (A) (A) (A) (A) (A) (A) (A) (A)
                 (A) (A) (A) (A) (A) (A) (A) (A) (A) (A) (A) (A)
                 (A) (A) (A) (A) (A) (A) (A) (A) (A) (A) (A) (A)
                 (A) (A) (A) (A) (A) (A) (A) (A) (A) (A) (A) (A)
                 (A) (A) (A) (A) (A) (A) (A) (A) (A) (A) (A) (A)
                 (A) (A) (A) (A) (A) (A) (A) (A) (A) (A) (A) (A)
 Beta  Orbitals:
       Occupied  (A) (A) (A) (A) (A) (A) (A) (A) (A) (A) (A) (A)
                 (A) (A) (A) (A) (A) (A) (A) (A) (A) (A) (A) (A)
                 (A) (A) (A) (A) (A) (A) (A) (A) (A) (A) (A) (A)
                 (A) (A) (A) (A)
       Virtual   (A) (A) (A) (A) (A) (A) (A) (A) (A) (A) (A) (A)
                 (A) (A) (A) (A) (A) (A) (A) (A) (A) (A) (A) (A)
                 (A) (A) (A) (A) (A) (A) (A) (A) (A) (A) (A) (A)
                 (A) (A) (A) (A) (A) (A) (A) (A) (A) (A) (A) (A)
                 (A) (A) (A) (A) (A) (A) (A) (A) (A) (A) (A) (A)
                 (A) (A) (A) (A) (A) (A) (A) (A) (A) (A) (A) (A)
                 (A) (A) (A) (A) (A) (A) (A) (A) (A) (A) (A) (A)
                 (A) (A) (A) (A) (A) (A) (A) (A) (A) (A) (A) (A)
                 (A) (A) (A) (A) (A) (A) (A) (A) (A) (A) (A) (A)
                 (A) (A) (A) (A) (A) (A) (A) (A) (A) (A) (A) (A)
                 (A) (A) (A) (A) (A) (A) (A) (A) (A) (A) (A) (A)
                 (A) (A) (A) (A) (A) (A) (A) (A) (A) (A) (A) (A)
                 (A) (A) (A) (A) (A) (A) (A) (A) (A) (A) (A) (A)
                 (A) (A) (A) (A) (A) (A) (A) (A) (A) (A) (A) (A)
                 (A) (A) (A) (A) (A) (A) (A) (A) (A) (A) (A) (A)
                 (A) (A) (A) (A) (A) (A) (A) (A) (A) (A) (A) (A)
                 (A) (A) (A) (A) (A) (A) (A) (A) (A) (A) (A) (A)
                 (A) (A) (A) (A) (A) (A) (A) (A) (A) (A) (A) (A)
                 (A) (A) (A) (A) (A) (A) (A) (A) (A) (A) (A) (A)
                 (A) (A) (A) (A) (A) (A) (A) (A) (A) (A) (A) (A)
                 (A) (A) (A) (A) (A) (A) (A) (A) (A) (A) (A) (A)
                 (A) (A) (A) (A) (A) (A) (A) (A) (A) (A) (A) (A)
                 (A) (A) (A) (A) (A) (A) (A) (A) (A) (A) (A) (A)
                 (A) (A) (A) (A) (A) (A) (A) (A) (A) (A) (A) (A)
                 (A) (A) (A) (A) (A) (A) (A) (A) (A) (A) (A) (A)
                 (A) (A) (A) (A) (A) (A) (A) (A) (A) (A) (A) (A)
                 (A) (A) (A) (A) (A) (A) (A) (A) (A) (A) (A) (A)
                 (A) (A) (A) (A) (A) (A) (A) (A) (A) (A) (A) (A)
                 (A) (A) (A) (A) (A) (A) (A) (A) (A) (A) (A) (A)
                 (A)
 The electronic state is 2-A.
 Alpha  occ. eigenvalues --  -19.50188 -19.48615 -19.41030 -10.46455 -10.46036
 Alpha  occ. eigenvalues --  -10.42905 -10.36109 -10.35824 -10.34897 -10.34629
 Alpha  occ. eigenvalues --  -10.34608  -1.05516  -1.04287  -0.94918  -0.78202
 Alpha  occ. eigenvalues --   -0.70061  -0.67337  -0.63850  -0.56611  -0.51352
 Alpha  occ. eigenvalues --   -0.49797  -0.45612  -0.41514  -0.41439  -0.39963
 Alpha  occ. eigenvalues --   -0.38243  -0.35922  -0.35747  -0.34575  -0.31253
 Alpha  occ. eigenvalues --   -0.29755  -0.29137  -0.27669  -0.24673  -0.24057
 Alpha  occ. eigenvalues --   -0.22356  -0.21965  -0.17053  -0.14310  -0.12005
 Alpha  occ. eigenvalues --    0.04637
 Alpha virt. eigenvalues --    0.19243   0.20829   0.21262   0.22874   0.24378
 Alpha virt. eigenvalues --    0.24855   0.25047   0.26331   0.27718   0.29036
 Alpha virt. eigenvalues --    0.29578   0.32012   0.35234   0.35623   0.36797
 Alpha virt. eigenvalues --    0.37763   0.39150   0.39886   0.40546   0.41098
 Alpha virt. eigenvalues --    0.41967   0.42819   0.44476   0.45286   0.45669
 Alpha virt. eigenvalues --    0.47977   0.49100   0.49347   0.50155   0.51783
 Alpha virt. eigenvalues --    0.52720   0.52950   0.54603   0.55101   0.56158
 Alpha virt. eigenvalues --    0.56818   0.57223   0.58493   0.59171   0.59589
 Alpha virt. eigenvalues --    0.60280   0.61114   0.62396   0.64115   0.64240
 Alpha virt. eigenvalues --    0.65619   0.66553   0.67096   0.67493   0.68422
 Alpha virt. eigenvalues --    0.70045   0.70691   0.71453   0.72508   0.73157
 Alpha virt. eigenvalues --    0.75154   0.77770   0.78777   0.78950   0.80666
 Alpha virt. eigenvalues --    0.82660   0.84142   0.85422   0.86611   0.87017
 Alpha virt. eigenvalues --    0.89875   0.91272   0.92482   0.93314   0.94648
 Alpha virt. eigenvalues --    0.95682   0.96553   0.97045   0.99364   1.00861
 Alpha virt. eigenvalues --    1.02496   1.03149   1.04309   1.06816   1.07382
 Alpha virt. eigenvalues --    1.08446   1.11029   1.12010   1.13376   1.13817
 Alpha virt. eigenvalues --    1.15300   1.17274   1.17996   1.18921   1.19633
 Alpha virt. eigenvalues --    1.23371   1.26160   1.29981   1.31132   1.32110
 Alpha virt. eigenvalues --    1.33835   1.34946   1.38650   1.41636   1.41946
 Alpha virt. eigenvalues --    1.43399   1.45338   1.45815   1.48118   1.50059
 Alpha virt. eigenvalues --    1.52432   1.53975   1.56746   1.58075   1.60983
 Alpha virt. eigenvalues --    1.62504   1.62848   1.64817   1.65568   1.68019
 Alpha virt. eigenvalues --    1.69134   1.70650   1.71314   1.72880   1.73704
 Alpha virt. eigenvalues --    1.73978   1.74622   1.75137   1.77529   1.80256
 Alpha virt. eigenvalues --    1.81251   1.85739   1.87029   1.89422   1.90987
 Alpha virt. eigenvalues --    1.91583   1.92086   1.92811   1.93968   1.97420
 Alpha virt. eigenvalues --    2.00937   2.02404   2.03070   2.05350   2.06867
 Alpha virt. eigenvalues --    2.07780   2.09864   2.11968   2.13741   2.14919
 Alpha virt. eigenvalues --    2.16905   2.19054   2.21048   2.22531   2.24707
 Alpha virt. eigenvalues --    2.26243   2.27181   2.28423   2.29392   2.29977
 Alpha virt. eigenvalues --    2.35424   2.35822   2.38881   2.39836   2.40323
 Alpha virt. eigenvalues --    2.41748   2.43492   2.44766   2.47179   2.51753
 Alpha virt. eigenvalues --    2.53015   2.54069   2.54754   2.55924   2.57901
 Alpha virt. eigenvalues --    2.59335   2.62637   2.66602   2.67347   2.68879
 Alpha virt. eigenvalues --    2.69989   2.72175   2.74050   2.76025   2.78425
 Alpha virt. eigenvalues --    2.81338   2.82650   2.83757   2.83935   2.84944
 Alpha virt. eigenvalues --    2.86824   2.88417   2.89285   2.90942   2.92423
 Alpha virt. eigenvalues --    2.94884   2.96672   2.97487   2.99995   3.01221
 Alpha virt. eigenvalues --    3.01974   3.02624   3.03163   3.03346   3.06045
 Alpha virt. eigenvalues --    3.07249   3.07868   3.09576   3.11178   3.12136
 Alpha virt. eigenvalues --    3.14129   3.16031   3.18486   3.19235   3.21364
 Alpha virt. eigenvalues --    3.21811   3.23267   3.24360   3.25353   3.30180
 Alpha virt. eigenvalues --    3.31529   3.32707   3.33683   3.34218   3.36266
 Alpha virt. eigenvalues --    3.37160   3.38976   3.39223   3.40280   3.41270
 Alpha virt. eigenvalues --    3.42639   3.46027   3.46626   3.47449   3.49370
 Alpha virt. eigenvalues --    3.50000   3.51067   3.51375   3.53086   3.53925
 Alpha virt. eigenvalues --    3.55084   3.56949   3.58023   3.59079   3.61433
 Alpha virt. eigenvalues --    3.62053   3.64254   3.65065   3.66281   3.68037
 Alpha virt. eigenvalues --    3.69638   3.70812   3.71517   3.73776   3.75477
 Alpha virt. eigenvalues --    3.76891   3.81294   3.81648   3.82805   3.84217
 Alpha virt. eigenvalues --    3.92253   3.93613   3.99719   4.01217   4.04266
 Alpha virt. eigenvalues --    4.05865   4.07429   4.09424   4.11903   4.17136
 Alpha virt. eigenvalues --    4.25002   4.27871   4.28459   4.30438   4.32235
 Alpha virt. eigenvalues --    4.34044   4.34520   4.35506   4.38531   4.39680
 Alpha virt. eigenvalues --    4.41278   4.41485   4.46663   4.50352   4.53043
 Alpha virt. eigenvalues --    4.58267   4.62142   4.66107   4.69701   4.74546
 Alpha virt. eigenvalues --    4.75533   4.77574   4.78250   4.80788   4.91767
 Alpha virt. eigenvalues --    4.96269   5.01387   5.04594   5.09271   5.24435
 Alpha virt. eigenvalues --    5.31363   5.33225   5.36170   5.42201   5.44388
 Alpha virt. eigenvalues --    5.45755   5.46488   5.53600   5.54121   5.57811
 Alpha virt. eigenvalues --    5.65415   5.66614   5.72611   5.78850   5.87662
 Alpha virt. eigenvalues --    5.92024   6.00479   6.05983   6.10686   6.14556
 Alpha virt. eigenvalues --    6.20077   6.35346   6.44431   6.50366   6.53082
 Alpha virt. eigenvalues --    6.58571   6.63856   6.68075   6.73845   6.80304
 Alpha virt. eigenvalues --    6.88607   6.93195   6.98611   7.00485   7.01824
 Alpha virt. eigenvalues --    7.04279   7.13012   7.29297   7.32753   7.38445
 Alpha virt. eigenvalues --    7.54099   7.57945  22.47565  22.65660  22.93257
 Alpha virt. eigenvalues --   22.98433  23.16417  23.22174  23.57032  23.83793
 Alpha virt. eigenvalues --   44.18217  44.25105  44.57782
  Beta  occ. eigenvalues --  -19.50175 -19.48531 -19.40792 -10.46368 -10.46033
  Beta  occ. eigenvalues --  -10.42863 -10.36119 -10.35886 -10.34800 -10.34508
  Beta  occ. eigenvalues --  -10.34381  -1.05187  -1.04154  -0.94316  -0.77799
  Beta  occ. eigenvalues --   -0.69814  -0.66800  -0.63588  -0.55829  -0.51152
  Beta  occ. eigenvalues --   -0.49358  -0.45304  -0.41301  -0.41128  -0.39723
  Beta  occ. eigenvalues --   -0.37946  -0.35359  -0.34629  -0.34163  -0.30904
  Beta  occ. eigenvalues --   -0.29337  -0.28614  -0.27456  -0.24374  -0.23056
  Beta  occ. eigenvalues --   -0.21688  -0.20530  -0.16648  -0.12213  -0.10425
  Beta virt. eigenvalues --    0.18057   0.18948   0.21068   0.21342   0.22748
  Beta virt. eigenvalues --    0.24281   0.24744   0.26168   0.26414   0.28886
  Beta virt. eigenvalues --    0.29282   0.29510   0.31547   0.34797   0.35318
  Beta virt. eigenvalues --    0.36489   0.37811   0.39029   0.40335   0.40621
  Beta virt. eigenvalues --    0.40867   0.41890   0.42644   0.44118   0.45163
  Beta virt. eigenvalues --    0.45359   0.47952   0.48729   0.49250   0.50236
  Beta virt. eigenvalues --    0.51963   0.52360   0.53196   0.54695   0.54979
  Beta virt. eigenvalues --    0.56015   0.56715   0.57096   0.58540   0.59149
  Beta virt. eigenvalues --    0.59674   0.60197   0.60680   0.62491   0.63611
  Beta virt. eigenvalues --    0.64255   0.65695   0.66155   0.67241   0.67462
  Beta virt. eigenvalues --    0.68370   0.70318   0.70622   0.71440   0.72337
  Beta virt. eigenvalues --    0.73113   0.75286   0.77545   0.78794   0.79218
  Beta virt. eigenvalues --    0.80822   0.82511   0.84149   0.85252   0.86602
  Beta virt. eigenvalues --    0.86806   0.89515   0.91342   0.92536   0.93147
  Beta virt. eigenvalues --    0.94572   0.95898   0.96428   0.97269   0.99117
  Beta virt. eigenvalues --    1.00602   1.03105   1.03315   1.04276   1.06956
  Beta virt. eigenvalues --    1.07552   1.08567   1.11234   1.12010   1.13254
  Beta virt. eigenvalues --    1.13766   1.15289   1.17324   1.18203   1.19237
  Beta virt. eigenvalues --    1.19564   1.23148   1.26373   1.30256   1.31277
  Beta virt. eigenvalues --    1.32343   1.34082   1.34981   1.38877   1.41760
  Beta virt. eigenvalues --    1.42342   1.43631   1.45803   1.46256   1.48682
  Beta virt. eigenvalues --    1.50322   1.52763   1.54238   1.56936   1.58597
  Beta virt. eigenvalues --    1.61785   1.62711   1.63090   1.65580   1.65763
  Beta virt. eigenvalues --    1.68598   1.69388   1.71479   1.71663   1.73406
  Beta virt. eigenvalues --    1.74148   1.74714   1.75005   1.75673   1.77649
  Beta virt. eigenvalues --    1.80549   1.81583   1.85981   1.87816   1.90301
  Beta virt. eigenvalues --    1.91432   1.92135   1.92601   1.93261   1.95009
  Beta virt. eigenvalues --    1.97660   2.01183   2.02557   2.03607   2.05583
  Beta virt. eigenvalues --    2.07046   2.09003   2.10046   2.12242   2.14070
  Beta virt. eigenvalues --    2.15139   2.17385   2.19488   2.21425   2.22891
  Beta virt. eigenvalues --    2.25071   2.26511   2.27530   2.28978   2.29811
  Beta virt. eigenvalues --    2.30162   2.35862   2.36311   2.39205   2.40249
  Beta virt. eigenvalues --    2.40791   2.41817   2.43823   2.45128   2.47419
  Beta virt. eigenvalues --    2.52137   2.53440   2.54601   2.55084   2.56977
  Beta virt. eigenvalues --    2.58214   2.60222   2.62887   2.67128   2.67754
  Beta virt. eigenvalues --    2.69195   2.70560   2.72312   2.74614   2.77576
  Beta virt. eigenvalues --    2.78774   2.81918   2.83118   2.84396   2.84511
  Beta virt. eigenvalues --    2.86295   2.87188   2.89122   2.90555   2.92192
  Beta virt. eigenvalues --    2.93238   2.95316   2.97839   2.98717   3.00701
  Beta virt. eigenvalues --    3.01820   3.02455   3.03069   3.04017   3.04158
  Beta virt. eigenvalues --    3.06499   3.07993   3.08881   3.10516   3.12007
  Beta virt. eigenvalues --    3.12909   3.15353   3.16783   3.19374   3.20279
  Beta virt. eigenvalues --    3.22494   3.22629   3.24255   3.25212   3.26366
  Beta virt. eigenvalues --    3.31266   3.32247   3.33520   3.34727   3.35452
  Beta virt. eigenvalues --    3.36988   3.37857   3.39846   3.40008   3.40939
  Beta virt. eigenvalues --    3.42462   3.43153   3.46833   3.47156   3.47996
  Beta virt. eigenvalues --    3.50184   3.50805   3.52008   3.53181   3.53957
  Beta virt. eigenvalues --    3.54969   3.56266   3.58374   3.58808   3.59907
  Beta virt. eigenvalues --    3.62558   3.63030   3.64949   3.65833   3.66713
  Beta virt. eigenvalues --    3.68908   3.70444   3.71666   3.72629   3.74842
  Beta virt. eigenvalues --    3.76381   3.77678   3.82239   3.82806   3.84347
  Beta virt. eigenvalues --    3.84873   3.92890   3.94112   4.00898   4.02513
  Beta virt. eigenvalues --    4.05266   4.07590   4.08558   4.10467   4.12280
  Beta virt. eigenvalues --    4.17864   4.25939   4.28141   4.29496   4.31703
  Beta virt. eigenvalues --    4.34054   4.34913   4.35687   4.37357   4.40020
  Beta virt. eigenvalues --    4.40515   4.41957   4.43738   4.47389   4.51379
  Beta virt. eigenvalues --    4.53382   4.59472   4.63251   4.66865   4.70565
  Beta virt. eigenvalues --    4.76144   4.76235   4.78999   4.80089   4.82004
  Beta virt. eigenvalues --    4.93142   4.97208   5.02212   5.06445   5.11300
  Beta virt. eigenvalues --    5.26350   5.32369   5.34218   5.36412   5.42552
  Beta virt. eigenvalues --    5.45186   5.46907   5.47397   5.53742   5.55574
  Beta virt. eigenvalues --    5.58098   5.65841   5.67468   5.72874   5.79407
  Beta virt. eigenvalues --    5.88495   5.92207   6.01012   6.06257   6.11153
  Beta virt. eigenvalues --    6.15032   6.20364   6.36101   6.44653   6.50971
  Beta virt. eigenvalues --    6.53681   6.58899   6.64578   6.68515   6.74896
  Beta virt. eigenvalues --    6.80350   6.88996   6.93423   6.98708   7.01062
  Beta virt. eigenvalues --    7.02428   7.04644   7.13214   7.29760   7.32846
  Beta virt. eigenvalues --    7.38609   7.54247   7.58331  22.47733  22.65668
  Beta virt. eigenvalues --   22.93466  22.98669  23.16640  23.22456  23.57362
  Beta virt. eigenvalues --   23.84279  44.18206  44.25059  44.57786
          Condensed to atoms (all electrons):
               1          2          3          4          5          6
     1  C    4.918882   0.265561  -0.107213  -0.013509  -0.003765   0.001736
     2  O    0.265561   7.969596   0.393377  -0.098413   0.008107   0.000187
     3  C   -0.107213   0.393377   4.949305   0.505668  -0.045054  -0.045620
     4  C   -0.013509  -0.098413   0.505668   5.408173   0.250377   0.010626
     5  C   -0.003765   0.008107  -0.045054   0.250377   5.366412   0.432596
     6  C    0.001736   0.000187  -0.045620   0.010626   0.432596   4.965097
     7  C   -0.003329   0.000380  -0.028991  -0.098649  -0.048725   0.524065
     8  C    0.007523  -0.121191   0.331737  -0.088405  -0.026893  -0.051222
     9  C    0.000222   0.008417  -0.117332  -0.004620   0.005488   0.007121
    10  O    0.000003  -0.000109  -0.001607  -0.001623   0.000953   0.000013
    11  O    0.001618  -0.023550   0.013988   0.000819  -0.000157  -0.000053
    12  H    0.398887  -0.040950   0.009362  -0.001915   0.000413  -0.000072
    13  H    0.412009  -0.049292  -0.008828   0.016643  -0.002922   0.000103
    14  H    0.410259  -0.043843  -0.007351   0.016621  -0.002255   0.000213
    15  H    0.004285  -0.005576  -0.049645   0.399636  -0.008285  -0.001242
    16  H   -0.000200  -0.000256   0.002618  -0.043174   0.407826  -0.045849
    17  H   -0.000002   0.000030  -0.000901   0.013637  -0.064966   0.423559
    18  H    0.000033  -0.000098   0.014178  -0.004367   0.011354  -0.067666
    19  H    0.000004   0.000949  -0.001280   0.000278  -0.000016   0.000038
               7          8          9         10         11         12
     1  C   -0.003329   0.007523   0.000222   0.000003   0.001618   0.398887
     2  O    0.000380  -0.121191   0.008417  -0.000109  -0.023550  -0.040950
     3  C   -0.028991   0.331737  -0.117332  -0.001607   0.013988   0.009362
     4  C   -0.098649  -0.088405  -0.004620  -0.001623   0.000819  -0.001915
     5  C   -0.048725  -0.026893   0.005488   0.000953  -0.000157   0.000413
     6  C    0.524065  -0.051222   0.007121   0.000013  -0.000053  -0.000072
     7  C    5.373955   0.160263  -0.074608   0.053715   0.012730   0.000179
     8  C    0.160263   6.112514   0.203265  -0.266090  -0.190467   0.002001
     9  C   -0.074608   0.203265   4.681414   0.730290   0.376340  -0.000221
    10  O    0.053715  -0.266090   0.730290   8.014406  -0.104137   0.000002
    11  O    0.012730  -0.190467   0.376340  -0.104137   8.073615   0.000416
    12  H    0.000179   0.002001  -0.000221   0.000002   0.000416   0.565133
    13  H    0.000064  -0.001467   0.000476   0.000000  -0.000133  -0.027850
    14  H   -0.000225  -0.006302  -0.000592   0.000003   0.000005  -0.027457
    15  H    0.004234  -0.003567   0.000039   0.000008  -0.000013   0.000433
    16  H    0.004690   0.001420   0.000224   0.000001  -0.000002   0.000001
    17  H   -0.058631   0.011817  -0.001366  -0.000239   0.000003  -0.000000
    18  H    0.430888  -0.045831  -0.018130   0.023737   0.001761  -0.000001
    19  H   -0.002325   0.043482  -0.052589   0.008817   0.275015  -0.000020
              13         14         15         16         17         18
     1  C    0.412009   0.410259   0.004285  -0.000200  -0.000002   0.000033
     2  O   -0.049292  -0.043843  -0.005576  -0.000256   0.000030  -0.000098
     3  C   -0.008828  -0.007351  -0.049645   0.002618  -0.000901   0.014178
     4  C    0.016643   0.016621   0.399636  -0.043174   0.013637  -0.004367
     5  C   -0.002922  -0.002255  -0.008285   0.407826  -0.064966   0.011354
     6  C    0.000103   0.000213  -0.001242  -0.045849   0.423559  -0.067666
     7  C    0.000064  -0.000225   0.004234   0.004690  -0.058631   0.430888
     8  C   -0.001467  -0.006302  -0.003567   0.001420   0.011817  -0.045831
     9  C    0.000476  -0.000592   0.000039   0.000224  -0.001366  -0.018130
    10  O    0.000000   0.000003   0.000008   0.000001  -0.000239   0.023737
    11  O   -0.000133   0.000005  -0.000013  -0.000002   0.000003   0.001761
    12  H   -0.027850  -0.027457   0.000433   0.000001  -0.000000  -0.000001
    13  H    0.623874  -0.081564  -0.003444  -0.000015   0.000001   0.000002
    14  H   -0.081564   0.624336  -0.004319   0.000007   0.000003  -0.000002
    15  H   -0.003444  -0.004319   0.572417  -0.005637  -0.000553   0.000114
    16  H   -0.000015   0.000007  -0.005637   0.611079  -0.007842  -0.000459
    17  H    0.000001   0.000003  -0.000553  -0.007842   0.615343  -0.006943
    18  H    0.000002  -0.000002   0.000114  -0.000459  -0.006943   0.536125
    19  H   -0.000003   0.000009  -0.000004   0.000000  -0.000001  -0.000221
              19
     1  C    0.000004
     2  O    0.000949
     3  C   -0.001280
     4  C    0.000278
     5  C   -0.000016
     6  C    0.000038
     7  C   -0.002325
     8  C    0.043482
     9  C   -0.052589
    10  O    0.008817
    11  O    0.275015
    12  H   -0.000020
    13  H   -0.000003
    14  H    0.000009
    15  H   -0.000004
    16  H    0.000000
    17  H   -0.000001
    18  H   -0.000221
    19  H    0.446872
          Atomic-Atomic Spin Densities.
               1          2          3          4          5          6
     1  C    0.017903   0.007660  -0.014906  -0.005371   0.002178  -0.000079
     2  O    0.007660   0.013150  -0.014321  -0.007605   0.001439  -0.000251
     3  C   -0.014906  -0.014321   0.157288   0.082871  -0.041068   0.018468
     4  C   -0.005371  -0.007605   0.082871   0.031973  -0.146745   0.007754
     5  C    0.002178   0.001439  -0.041068  -0.146745   0.680422  -0.058106
     6  C   -0.000079  -0.000251   0.018468   0.007754  -0.058106  -0.148224
     7  C   -0.000608  -0.001085   0.021109   0.030791  -0.070745   0.072228
     8  C    0.005096   0.008290  -0.117712  -0.036352   0.044889  -0.020527
     9  C    0.000630   0.001645  -0.030801  -0.002844   0.002026  -0.001935
    10  O   -0.000015  -0.000069   0.002849   0.000121  -0.000195   0.000111
    11  O   -0.000352  -0.000598   0.005377   0.000246  -0.000088   0.000003
    12  H   -0.001510   0.000042   0.000462  -0.000316  -0.000009   0.000000
    13  H   -0.005325  -0.003479   0.004041   0.004578  -0.001422  -0.000099
    14  H   -0.007666   0.000031   0.004331   0.006565  -0.001243   0.000249
    15  H   -0.000090   0.000031   0.001493  -0.000460  -0.000835  -0.000176
    16  H   -0.000024   0.000009   0.001287  -0.007596   0.013154  -0.003672
    17  H    0.000001   0.000000   0.000288   0.000291  -0.005870   0.001213
    18  H   -0.000001   0.000004   0.000237  -0.000108   0.000721   0.000626
    19  H   -0.000007  -0.000006  -0.000101   0.000019  -0.000005   0.000012
               7          8          9         10         11         12
     1  C   -0.000608   0.005096   0.000630  -0.000015  -0.000352  -0.001510
     2  O   -0.001085   0.008290   0.001645  -0.000069  -0.000598   0.000042
     3  C    0.021109  -0.117712  -0.030801   0.002849   0.005377   0.000462
     4  C    0.030791  -0.036352  -0.002844   0.000121   0.000246  -0.000316
     5  C   -0.070745   0.044889   0.002026  -0.000195  -0.000088  -0.000009
     6  C    0.072228  -0.020527  -0.001935   0.000111   0.000003   0.000000
     7  C    0.418007  -0.206175  -0.025456   0.015066   0.002532  -0.000008
     8  C   -0.206175   0.421811   0.123597  -0.028983  -0.020913  -0.000071
     9  C   -0.025456   0.123597   0.177304  -0.075737  -0.035293  -0.000010
    10  O    0.015066  -0.028983  -0.075737   0.193207   0.010245   0.000000
    11  O    0.002532  -0.020913  -0.035293   0.010245   0.057798   0.000004
    12  H   -0.000008  -0.000071  -0.000010   0.000000   0.000004   0.000671
    13  H    0.000595   0.000522   0.000214   0.000001  -0.000002  -0.000158
    14  H   -0.000127  -0.003244  -0.000463   0.000004   0.000131   0.000631
    15  H   -0.000023   0.000943   0.000015  -0.000001  -0.000002   0.000007
    16  H    0.001273  -0.000522  -0.000015   0.000000   0.000000  -0.000000
    17  H    0.000164   0.000027   0.000000  -0.000000   0.000000   0.000000
    18  H    0.009967  -0.009295   0.000236  -0.000450  -0.000050  -0.000000
    19  H   -0.000266   0.000553  -0.000834   0.000106   0.000568   0.000001
              13         14         15         16         17         18
     1  C   -0.005325  -0.007666  -0.000090  -0.000024   0.000001  -0.000001
     2  O   -0.003479   0.000031   0.000031   0.000009   0.000000   0.000004
     3  C    0.004041   0.004331   0.001493   0.001287   0.000288   0.000237
     4  C    0.004578   0.006565  -0.000460  -0.007596   0.000291  -0.000108
     5  C   -0.001422  -0.001243  -0.000835   0.013154  -0.005870   0.000721
     6  C   -0.000099   0.000249  -0.000176  -0.003672   0.001213   0.000626
     7  C    0.000595  -0.000127  -0.000023   0.001273   0.000164   0.009967
     8  C    0.000522  -0.003244   0.000943  -0.000522   0.000027  -0.009295
     9  C    0.000214  -0.000463   0.000015  -0.000015   0.000000   0.000236
    10  O    0.000001   0.000004  -0.000001   0.000000  -0.000000  -0.000450
    11  O   -0.000002   0.000131  -0.000002   0.000000   0.000000  -0.000050
    12  H   -0.000158   0.000631   0.000007  -0.000000   0.000000  -0.000000
    13  H    0.013366  -0.008780  -0.000057  -0.000003  -0.000001   0.000004
    14  H   -0.008780   0.013888  -0.000205   0.000001   0.000001  -0.000004
    15  H   -0.000057  -0.000205  -0.005153   0.000370   0.000019  -0.000004
    16  H   -0.000003   0.000001   0.000370  -0.024711  -0.000198   0.000016
    17  H   -0.000001   0.000001   0.000019  -0.000198   0.006835  -0.000136
    18  H    0.000004  -0.000004  -0.000004   0.000016  -0.000136  -0.010539
    19  H   -0.000008   0.000007   0.000000  -0.000000   0.000000  -0.000001
              19
     1  C   -0.000007
     2  O   -0.000006
     3  C   -0.000101
     4  C    0.000019
     5  C   -0.000005
     6  C    0.000012
     7  C   -0.000266
     8  C    0.000553
     9  C   -0.000834
    10  O    0.000106
    11  O    0.000568
    12  H    0.000001
    13  H   -0.000008
    14  H    0.000007
    15  H    0.000000
    16  H   -0.000000
    17  H    0.000000
    18  H   -0.000001
    19  H   -0.001790
 Mulliken charges and spin densities:
               1          2
     1  C   -0.293005  -0.002484
     2  O   -0.263325   0.004886
     3  C    0.193587   0.081193
     4  C   -0.267804  -0.042186
     5  C   -0.280489   0.418498
     6  C   -0.153632  -0.132406
     7  C   -0.249682   0.267240
     8  C   -0.072585   0.161933
     9  C    0.256161   0.132279
    10  O   -0.458144   0.116261
    11  O   -0.437799   0.019608
    12  H    0.121659  -0.000263
    13  H    0.122345   0.003985
    14  H    0.122453   0.004108
    15  H    0.101120  -0.004126
    16  H    0.075566  -0.020629
    17  H    0.077052   0.002633
    18  H    0.125525  -0.008775
    19  H    0.280997  -0.001753
 Sum of Mulliken charges =  -1.00000   1.00000
 Mulliken charges and spin densities with hydrogens summed into heavy atoms:
               1          2
     1  C    0.073453   0.005344
     2  O   -0.263325   0.004886
     3  C    0.193587   0.081193
     4  C   -0.166684  -0.046312
     5  C   -0.204923   0.397869
     6  C   -0.076581  -0.129773
     7  C   -0.124157   0.258465
     8  C   -0.072585   0.161933
     9  C    0.256161   0.132279
    10  O   -0.458144   0.116261
    11  O   -0.156802   0.017855
 Electronic spatial extent (au):  <R**2>=           1740.8497
 Charge=             -1.0000 electrons
 Dipole moment (field-independent basis, Debye):
    X=             -2.6812    Y=              4.2338    Z=             -0.1659  Tot=              5.0141
 Quadrupole moment (field-independent basis, Debye-Ang):
   XX=            -83.8452   YY=            -74.6932   ZZ=            -71.6532
   XY=              0.5601   XZ=             -1.0353   YZ=              0.4131
 Traceless Quadrupole moment (field-independent basis, Debye-Ang):
   XX=             -7.1146   YY=              2.0374   ZZ=              5.0773
   XY=              0.5601   XZ=             -1.0353   YZ=              0.4131
 Octapole moment (field-independent basis, Debye-Ang**2):
  XXX=             -5.7799  YYY=             33.4485  ZZZ=              0.2775  XYY=              8.3706
  XXY=             42.2448  XXZ=             -3.5362  XZZ=             10.8760  YZZ=             12.8471
  YYZ=              0.1741  XYZ=              0.7695
 Hexadecapole moment (field-independent basis, Debye-Ang**3):
 XXXX=          -1323.2103 YYYY=          -1072.6898 ZZZZ=            -91.4477 XXXY=             70.5193
 XXXZ=            -13.0400 YYYX=            -16.9881 YYYZ=             -0.0191 ZZZX=             -0.9271
 ZZZY=             -1.1623 XXYY=           -380.7500 XXZZ=           -229.5880 YYZZ=           -211.5454
 XXYZ=              0.9135 YYXZ=             -0.7787 ZZXY=             -7.8582
 N-N= 5.973001573793D+02 E-N=-2.460736790921D+03  KE= 5.333078225027D+02
                          Isotropic Fermi Contact Couplings
        Atom                 a.u.       MegaHertz       Gauss      10(-4) cm-1
     1  C(13)              0.00018       0.20216       0.07214       0.06743
     2  O(17)             -0.00178       1.07784       0.38460       0.35953
     3  C(13)              0.00274       3.08478       1.10073       1.02897
     4  C(13)             -0.01093     -12.29297      -4.38644      -4.10049
     5  C(13)              0.03646      40.98750      14.62536      13.67196
     6  C(13)             -0.02238     -25.16431      -8.97925      -8.39391
     7  C(13)              0.01821      20.46636       7.30291       6.82684
     8  C(13)              0.00659       7.41365       2.64537       2.47293
     9  C(13)              0.01292      14.52352       5.18235       4.84452
    10  O(17)              0.02089     -12.66332      -4.51859      -4.22403
    11  O(17)              0.00370      -2.24245      -0.80016      -0.74800
    12  H(1)              -0.00016      -0.70528      -0.25166      -0.23526
    13  H(1)              -0.00018      -0.81563      -0.29104      -0.27207
    14  H(1)              -0.00018      -0.82138      -0.29309      -0.27398
    15  H(1)              -0.00077      -3.45157      -1.23161      -1.15132
    16  H(1)              -0.00551     -24.62716      -8.78758      -8.21474
    17  H(1)               0.00052       2.34112       0.83537       0.78091
    18  H(1)              -0.00354     -15.80877      -5.64096      -5.27324
    19  H(1)              -0.00076      -3.39226      -1.21044      -1.13154
 --------------------------------------------------------
       Center         ----  Spin Dipole Couplings  ----
                      3XX-RR        3YY-RR        3ZZ-RR
 --------------------------------------------------------
     1   Atom       -0.003174      0.000583      0.002591
     2   Atom       -0.018115     -0.021638      0.039753
     3   Atom       -0.041580     -0.050114      0.091693
     4   Atom       -0.011809     -0.010614      0.022424
     5   Atom       -0.174086     -0.186311      0.360397
     6   Atom        0.035720      0.022673     -0.058394
     7   Atom       -0.104923     -0.111723      0.216647
     8   Atom       -0.086973     -0.100370      0.187343
     9   Atom       -0.090468     -0.103629      0.194096
    10   Atom       -0.258130     -0.246622      0.504752
    11   Atom       -0.084671     -0.093301      0.177972
    12   Atom       -0.001150      0.002524     -0.001374
    13   Atom       -0.000317      0.002350     -0.002032
    14   Atom       -0.000247      0.002262     -0.002015
    15   Atom        0.003962     -0.000888     -0.003074
    16   Atom        0.017318     -0.018553      0.001235
    17   Atom        0.003875      0.001010     -0.004885
    18   Atom        0.008069     -0.004683     -0.003386
    19   Atom        0.006738     -0.001705     -0.005033
 --------------------------------------------------------
                        XY            XZ            YZ
 --------------------------------------------------------
     1   Atom       -0.001742     -0.000011     -0.000073
     2   Atom       -0.006652     -0.000243     -0.001014
     3   Atom        0.001883      0.002944     -0.004948
     4   Atom        0.004252     -0.001099     -0.000875
     5   Atom        0.005946     -0.004913     -0.004038
     6   Atom        0.000456      0.001394      0.001053
     7   Atom        0.002245     -0.001579     -0.011153
     8   Atom        0.007077     -0.002334     -0.006234
     9   Atom        0.000292     -0.010874      0.032545
    10   Atom        0.003609     -0.053266      0.083459
    11   Atom        0.003899     -0.005751      0.037498
    12   Atom       -0.000964     -0.000016      0.000052
    13   Atom       -0.001963      0.001061     -0.000747
    14   Atom       -0.001893     -0.001136      0.000899
    15   Atom       -0.003219     -0.000048     -0.000017
    16   Atom        0.020178      0.000317     -0.000055
    17   Atom        0.001029      0.000103      0.000079
    18   Atom       -0.012099     -0.000247     -0.000237
    19   Atom        0.006615     -0.000299      0.000016
 --------------------------------------------------------


 ---------------------------------------------------------------------------------
              Anisotropic Spin Dipole Couplings in Principal Axis System
 ---------------------------------------------------------------------------------

       Atom             a.u.   MegaHertz   Gauss  10(-4) cm-1        Axes

              Baa    -0.0039    -0.518    -0.185    -0.173  0.9309  0.3652  0.0058
     1 C(13)  Bbb     0.0013     0.169     0.060     0.057 -0.3651  0.9297  0.0483
              Bcc     0.0026     0.348     0.124     0.116  0.0123 -0.0471  0.9988
 
              Baa    -0.0268     1.937     0.691     0.646  0.6095  0.7926  0.0143
     2 O(17)  Bbb    -0.0130     0.941     0.336     0.314  0.7928 -0.6095 -0.0081
              Bcc     0.0398    -2.878    -1.027    -0.960 -0.0023 -0.0163  0.9999
 
              Baa    -0.0507    -6.806    -2.429    -2.270 -0.2135  0.9762  0.0383
     3 C(13)  Bbb    -0.0412    -5.530    -1.973    -1.845  0.9767  0.2141 -0.0137
              Bcc     0.0919    12.336     4.402     4.115  0.0215 -0.0345  0.9992
 
              Baa    -0.0155    -2.081    -0.743    -0.694  0.7554 -0.6552  0.0068
     4 C(13)  Bbb    -0.0070    -0.937    -0.334    -0.313  0.6543  0.7548  0.0469
              Bcc     0.0225     3.018     1.077     1.007 -0.0359 -0.0310  0.9989
 
              Baa    -0.1887   -25.326    -9.037    -8.448 -0.3752  0.9270  0.0035
     5 C(13)  Bbb    -0.1717   -23.046    -8.223    -7.687  0.9269  0.3751  0.0114
              Bcc     0.3605    48.372    17.260    16.135 -0.0093 -0.0075  0.9999
 
              Baa    -0.0584    -7.840    -2.798    -2.615 -0.0147 -0.0129  0.9998
     6 C(13)  Bbb     0.0227     3.042     1.085     1.015 -0.0362  0.9993  0.0124
              Bcc     0.0358     4.798     1.712     1.601  0.9992  0.0361  0.0152
 
              Baa    -0.1127   -15.126    -5.397    -5.045 -0.2708  0.9621  0.0313
     7 C(13)  Bbb    -0.1043   -13.998    -4.995    -4.669  0.9626  0.2705  0.0141
              Bcc     0.2170    29.124    10.392     9.715 -0.0051 -0.0339  0.9994
 
              Baa    -0.1035   -13.888    -4.956    -4.633 -0.3917  0.9199  0.0166
     8 C(13)  Bbb    -0.0840   -11.273    -4.022    -3.760  0.9200  0.3914  0.0169
              Bcc     0.1875    25.161     8.978     8.393 -0.0091 -0.0219  0.9997
 
              Baa    -0.1073   -14.395    -5.137    -4.802 -0.0884  0.9900 -0.1101
     9 C(13)  Bbb    -0.0907   -12.177    -4.345    -4.062  0.9954  0.0919  0.0275
              Bcc     0.1980    26.572     9.481     8.863 -0.0373  0.1072  0.9935
 
              Baa    -0.2686    19.433     6.934     6.482  0.8046 -0.5819  0.1182
    10 O(17)  Bbb    -0.2489    18.011     6.427     6.008  0.5900  0.8060 -0.0476
              Bcc     0.5175   -37.444   -13.361   -12.490 -0.0676  0.1080  0.9918
 
              Baa    -0.0998     7.223     2.577     2.409 -0.2944  0.9463 -0.1338
    11 O(17)  Bbb    -0.0833     6.031     2.152     2.012  0.9555  0.2943 -0.0212
              Bcc     0.1832   -13.253    -4.729    -4.421 -0.0193  0.1341  0.9908
 
              Baa    -0.0014    -0.741    -0.264    -0.247  0.9481  0.2307  0.2188
    12 H(1)   Bbb    -0.0014    -0.733    -0.262    -0.245 -0.2094 -0.0648  0.9757
              Bcc     0.0028     1.474     0.526     0.492 -0.2392  0.9709  0.0131
 
              Baa    -0.0025    -1.359    -0.485    -0.453 -0.4657 -0.0518  0.8834
    13 H(1)   Bbb    -0.0011    -0.577    -0.206    -0.192  0.7439  0.5177  0.4225
              Bcc     0.0036     1.936     0.691     0.646 -0.4793  0.8540 -0.2025
 
              Baa    -0.0026    -1.371    -0.489    -0.457  0.4439  0.0072  0.8961
    14 H(1)   Bbb    -0.0010    -0.548    -0.196    -0.183  0.7540  0.5373 -0.3778
              Bcc     0.0036     1.919     0.685     0.640 -0.4841  0.8434  0.2330
 
              Baa    -0.0031    -1.641    -0.586    -0.547  0.0316  0.0543  0.9980
    15 H(1)   Bbb    -0.0025    -1.329    -0.474    -0.443  0.4451  0.8933 -0.0627
              Bcc     0.0056     2.970     1.060     0.991  0.8949 -0.4462 -0.0041
 
              Baa    -0.0276   -14.734    -5.257    -4.915 -0.4097  0.9122  0.0062
    16 H(1)   Bbb     0.0012     0.658     0.235     0.219 -0.0071 -0.0100  0.9999
              Bcc     0.0264    14.076     5.023     4.695  0.9122  0.4096  0.0106
 
              Baa    -0.0049    -2.607    -0.930    -0.870 -0.0104 -0.0116  0.9999
    17 H(1)   Bbb     0.0007     0.362     0.129     0.121 -0.3068  0.9517  0.0078
              Bcc     0.0042     2.245     0.801     0.749  0.9517  0.3067  0.0134
 
              Baa    -0.0120    -6.401    -2.284    -2.135  0.5163  0.8555  0.0384
    18 H(1)   Bbb    -0.0034    -1.800    -0.642    -0.600 -0.0158 -0.0353  0.9993
              Bcc     0.0154     8.201     2.926     2.735  0.8562 -0.5166 -0.0048
 
              Baa    -0.0054    -2.881    -1.028    -0.961 -0.4463  0.8009 -0.3992
    19 H(1)   Bbb    -0.0050    -2.651    -0.946    -0.884 -0.1786  0.3574  0.9167
              Bcc     0.0104     5.532     1.974     1.845  0.8769  0.4804 -0.0165
 

 ---------------------------------------------------------------------------------

   1 Symmetry operations used in ECPInt.
 ECPInt:  NShTT=   11781 NPrTT=   36312 LenC2=   11266 LenP2D=   26668.
 LDataN:  DoStor=T MaxTD1= 7 Len=  274
 Calling FoFJK, ICntrl=      2127 FMM=F ISym2X=0 I1Cent= 0 IOpClX= 1 NMat=1 NMatS=1 NMatT=0.
 ***** Axes restored to original set *****
 -------------------------------------------------------------------
 Center     Atomic                   Forces (Hartrees/Bohr)
 Number     Number              X              Y              Z
 -------------------------------------------------------------------
      1        6          -0.011522558   -0.007991359    0.000086689
      2        8           0.003412784    0.026229279   -0.000858594
      3        6           0.038387911   -0.018382155    0.001767746
      4        6          -0.018741250    0.032041402   -0.000313011
      5        6           0.022513443   -0.025997301    0.000647329
      6        6          -0.017097277    0.005254995   -0.000421621
      7        6           0.011914848   -0.038534738   -0.001039217
      8        6          -0.061334001    0.038871586    0.000302361
      9        6           0.084822817   -0.017971823   -0.000125296
     10        8          -0.047527792   -0.022167365   -0.002687816
     11        8          -0.013743152    0.033773929    0.003488755
     12        1          -0.000445985    0.001892897   -0.000034223
     13        1           0.001848093   -0.000891519    0.000756756
     14        1           0.001877603   -0.000929527   -0.000693046
     15        1           0.001323166    0.001380833   -0.000223164
     16        1           0.001126392   -0.000676223    0.000003127
     17        1          -0.000025305   -0.002391604    0.000084831
     18        1           0.000184377   -0.000173951    0.000013792
     19        1           0.003025887   -0.003337352   -0.000755399
 -------------------------------------------------------------------
 Cartesian Forces:  Max     0.084822817 RMS     0.020586350

 GradGradGradGradGradGradGradGradGradGradGradGradGradGradGradGradGradGrad
 Berny optimization.
 FormGI is forming the generalized inverse of G from B-inverse, IUseBI=4.
 Internal  Forces:  Max     0.051284187 RMS     0.010246174
 Search for a local minimum.
 Step number   1 out of a maximum of   93
 All quantities printed in internal units (Hartrees-Bohrs-Radians)
 Mixed Optimization -- RFO/linear search
 Second derivative matrix not updated -- first step.
 ITU=  0
     Eigenvalues ---    0.00891   0.01412   0.01557   0.01712   0.02061
     Eigenvalues ---    0.02144   0.02204   0.02221   0.02252   0.02276
     Eigenvalues ---    0.02282   0.02299   0.02417   0.02487   0.10127
     Eigenvalues ---    0.10717   0.16000   0.16000   0.16000   0.16000
     Eigenvalues ---    0.16000   0.16000   0.16000   0.16000   0.22000
     Eigenvalues ---    0.22486   0.24471   0.24999   0.24999   0.25000
     Eigenvalues ---    0.25000   0.25000   0.33391   0.34472   0.34479
     Eigenvalues ---    0.35249   0.35672   0.35800   0.35887   0.36089
     Eigenvalues ---    0.41914   0.42787   0.43970   0.45806   0.47214
     Eigenvalues ---    0.47580   0.48308   0.53718   0.56060   0.57237
     Eigenvalues ---    1.02737
 RFO step:  Lambda=-1.70470915D-02 EMin= 8.91203570D-03
 Linear search not attempted -- first point.
 Iteration  1 RMS(Cart)=  0.03223748 RMS(Int)=  0.00068521
 Iteration  2 RMS(Cart)=  0.00082624 RMS(Int)=  0.00005962
 Iteration  3 RMS(Cart)=  0.00000071 RMS(Int)=  0.00005962
 Variable       Old X    -DE/DX   Delta X   Delta X   Delta X     New X
                                 (Linear)    (Quad)   (Total)
    R1        2.66491  -0.01128   0.00000  -0.02471  -0.02471   2.64020
    R2        2.05273   0.00193   0.00000   0.00523   0.00523   2.05796
    R3        2.06529   0.00177   0.00000   0.00489   0.00489   2.07019
    R4        2.06540   0.00178   0.00000   0.00491   0.00491   2.07031
    R5        2.54202   0.01872   0.00000   0.03241   0.03241   2.57443
    R6        2.63867  -0.01049   0.00000  -0.02211  -0.02213   2.61654
    R7        2.66080   0.02318   0.00000   0.05075   0.05078   2.71157
    R8        2.61863   0.02859   0.00000   0.05688   0.05683   2.67546
    R9        2.03943   0.00186   0.00000   0.00493   0.00493   2.04436
   R10        2.61920   0.01330   0.00000   0.02639   0.02636   2.64556
   R11        2.04598   0.00131   0.00000   0.00349   0.00349   2.04947
   R12        2.61275  -0.00354   0.00000  -0.00683  -0.00681   2.60595
   R13        2.04258   0.00238   0.00000   0.00634   0.00634   2.04893
   R14        2.63147   0.03528   0.00000   0.07320   0.07325   2.70471
   R15        2.04396  -0.00006   0.00000  -0.00016  -0.00016   2.04380
   R16        2.81670  -0.02829   0.00000  -0.08061  -0.08061   2.73609
   R17        2.27562   0.05128   0.00000   0.04910   0.04910   2.32473
   R18        2.53196   0.03151   0.00000   0.05346   0.05346   2.58543
   R19        1.82990  -0.00354   0.00000  -0.00638  -0.00638   1.82351
    A1        1.84704   0.00074   0.00000   0.00587   0.00585   1.85290
    A2        1.94226   0.00010   0.00000  -0.00036  -0.00038   1.94189
    A3        1.94243   0.00013   0.00000  -0.00013  -0.00015   1.94228
    A4        1.91001   0.00033   0.00000   0.00350   0.00349   1.91350
    A5        1.91036   0.00034   0.00000   0.00365   0.00364   1.91400
    A6        1.91055  -0.00154   0.00000  -0.01168  -0.01170   1.89885
    A7        2.07175  -0.00607   0.00000  -0.02272  -0.02272   2.04902
    A8        2.13781  -0.00249   0.00000  -0.00931  -0.00932   2.12849
    A9        2.06823  -0.00365   0.00000  -0.01365  -0.01366   2.05458
   A10        2.07710   0.00613   0.00000   0.02293   0.02293   2.10003
   A11        2.10396   0.00408   0.00000   0.01521   0.01514   2.11910
   A12        2.09872  -0.00247   0.00000  -0.01006  -0.01002   2.08869
   A13        2.08051  -0.00160   0.00000  -0.00516  -0.00512   2.07538
   A14        2.10851  -0.00712   0.00000  -0.03232  -0.03240   2.07610
   A15        2.07667   0.00371   0.00000   0.01699   0.01703   2.09371
   A16        2.09800   0.00341   0.00000   0.01532   0.01536   2.11336
   A17        2.07319   0.00643   0.00000   0.02650   0.02649   2.09967
   A18        2.10787  -0.00301   0.00000  -0.01207  -0.01207   2.09581
   A19        2.10213  -0.00343   0.00000  -0.01442  -0.01442   2.08771
   A20        2.12559   0.00121   0.00000   0.00640   0.00646   2.13205
   A21        2.11254  -0.00085   0.00000  -0.00460  -0.00464   2.10790
   A22        2.04506  -0.00036   0.00000  -0.00179  -0.00183   2.04323
   A23        2.07800  -0.01073   0.00000  -0.03874  -0.03866   2.03934
   A24        2.19360   0.00501   0.00000   0.01804   0.01799   2.21160
   A25        2.01158   0.00572   0.00000   0.02068   0.02063   2.03221
   A26        2.14708   0.00887   0.00000   0.03315   0.03312   2.18020
   A27        2.01678   0.00763   0.00000   0.02853   0.02850   2.04528
   A28        2.11923  -0.01651   0.00000  -0.06187  -0.06190   2.05733
   A29        1.84434  -0.00521   0.00000  -0.02944  -0.02944   1.81490
    D1        3.14127   0.00001   0.00000  -0.00012  -0.00012   3.14116
    D2       -1.06862   0.00090   0.00000   0.00742   0.00741  -1.06121
    D3        1.06748  -0.00092   0.00000  -0.00796  -0.00796   1.05952
    D4       -0.00378  -0.00007   0.00000  -0.00226  -0.00222  -0.00600
    D5       -3.13566   0.00006   0.00000   0.00202   0.00198  -3.13368
    D6       -3.13065   0.00021   0.00000   0.00529   0.00530  -3.12535
    D7        0.00917   0.00008   0.00000   0.00180   0.00182   0.01099
    D8        0.00119   0.00004   0.00000   0.00079   0.00079   0.00197
    D9        3.14101  -0.00010   0.00000  -0.00270  -0.00269   3.13831
   D10        3.12472  -0.00028   0.00000  -0.00805  -0.00802   3.11671
   D11       -0.01359  -0.00008   0.00000  -0.00166  -0.00170  -0.01528
   D12       -0.00751  -0.00012   0.00000  -0.00374  -0.00370  -0.01121
   D13        3.13737   0.00009   0.00000   0.00264   0.00262   3.13998
   D14        0.00369   0.00011   0.00000   0.00232   0.00234   0.00603
   D15       -3.14013  -0.00002   0.00000  -0.00073  -0.00073  -3.14086
   D16       -3.13615   0.00024   0.00000   0.00578   0.00580  -3.13035
   D17        0.00322   0.00011   0.00000   0.00272   0.00273   0.00595
   D18       -0.00208  -0.00008   0.00000  -0.00215  -0.00215  -0.00423
   D19        3.13942  -0.00006   0.00000  -0.00137  -0.00138   3.13804
   D20       -3.14142   0.00005   0.00000   0.00094   0.00095  -3.14046
   D21        0.00008   0.00007   0.00000   0.00172   0.00172   0.00181
   D22       -0.00451  -0.00005   0.00000  -0.00109  -0.00110  -0.00561
   D23        3.13887   0.00000   0.00000   0.00032   0.00031   3.13918
   D24        3.13718  -0.00007   0.00000  -0.00186  -0.00186   3.13531
   D25       -0.00263  -0.00002   0.00000  -0.00046  -0.00046  -0.00309
   D26        0.00932   0.00012   0.00000   0.00392   0.00387   0.01319
   D27       -3.13522  -0.00005   0.00000  -0.00181  -0.00178  -3.13700
   D28       -3.13399   0.00007   0.00000   0.00256   0.00251  -3.13148
   D29        0.00465  -0.00011   0.00000  -0.00317  -0.00313   0.00152
   D30        3.01800   0.00120   0.00000   0.04472   0.04478   3.06279
   D31       -0.13799   0.00066   0.00000   0.02946   0.02927  -0.10872
   D32       -0.12042   0.00143   0.00000   0.05099   0.05118  -0.06924
   D33        3.00677   0.00089   0.00000   0.03574   0.03567   3.04244
   D34       -3.13065  -0.00026   0.00000  -0.00271  -0.00298  -3.13363
   D35       -0.00321  -0.00056   0.00000  -0.01686  -0.01658  -0.01979
         Item               Value     Threshold  Converged?
 Maximum Force            0.051284     0.000450     NO 
 RMS     Force            0.010246     0.000300     NO 
 Maximum Displacement     0.096637     0.001800     NO 
 RMS     Displacement     0.032222     0.001200     NO 
 Predicted change in Energy=-8.922586D-03
 GradGradGradGradGradGradGradGradGradGradGradGradGradGradGradGradGradGrad

                          Input orientation:                          
 ---------------------------------------------------------------------
 Center     Atomic      Atomic             Coordinates (Angstroms)
 Number     Number       Type             X           Y           Z
 ---------------------------------------------------------------------
      1          6           0        1.694511    2.501010   -0.042887
      2          8           0        0.526839    1.733982   -0.028961
      3          6           0        0.666968    0.379224    0.001657
      4          6           0        1.910918   -0.228765    0.011572
      5          6           0        2.043311   -1.638300    0.023845
      6          6           0        0.887101   -2.427644    0.018541
      7          6           0       -0.358796   -1.836661    0.006646
      8          6           0       -0.527810   -0.415403    0.006076
      9          6           0       -1.891302    0.071611   -0.001108
     10          8           0       -2.892513   -0.639216   -0.076425
     11          8           0       -2.073257    1.422302    0.118708
     12          1           0        1.373547    3.541372   -0.067438
     13          1           0        2.297548    2.322879    0.854179
     14          1           0        2.303578    2.282151   -0.926853
     15          1           0        2.804864    0.380471    0.005034
     16          1           0        3.029438   -2.089627    0.032141
     17          1           0        0.967232   -3.508908    0.024413
     18          1           0       -1.256982   -2.439098    0.000234
     19          1           0       -3.031863    1.531127    0.099208
 ---------------------------------------------------------------------
                    Distance matrix (angstroms):
                    1          2          3          4          5
     1  C    0.000000
     2  O    1.397134   0.000000
     3  C    2.357923   1.362330   0.000000
     4  C    2.738881   2.402018   1.384615   0.000000
     5  C    4.154516   3.697940   2.442379   1.415792   0.000000
     6  C    4.994729   4.177460   2.815538   2.425556   1.399970
     7  C    4.799366   3.679009   2.441795   2.781538   2.410345
     8  C    3.666957   2.394445   1.434904   2.445866   2.847184
     9  C    4.331487   2.934563   2.576699   3.814087   4.290174
    10  O    5.559041   4.162486   3.703137   4.821739   5.036922
    11  O    3.922474   2.622871   2.934373   4.314064   5.130538
    12  H    1.089025   1.996260   3.240865   3.809061   5.223593
    13  H    1.095495   2.064497   2.676449   2.714840   4.055247
    14  H    1.095563   2.064825   2.676145   2.709155   4.042462
    15  H    2.394131   2.650009   2.137899   1.081828   2.157720
    16  H    4.781381   4.570199   3.417224   2.171248   1.084532
    17  H    6.054137   5.261624   3.899776   3.413217   2.158036
    18  H    5.754810   4.538443   3.412408   3.862808   3.396140
    19  H    4.826953   3.566783   3.875274   5.247474   5.984007
                    6          7          8          9         10
     6  C    0.000000
     7  C    1.379007   0.000000
     8  C    2.459927   1.431272   0.000000
     9  C    3.737135   2.447475   1.447875   0.000000
    10  O    4.182460   2.803658   2.376703   1.230192   0.000000
    11  O    4.857554   3.684124   2.403799   1.368149   2.226907
    12  H    5.989422   5.650641   4.390516   4.764754   5.972995
    13  H    5.025448   5.007619   4.024937   4.831789   6.047873
    14  H    5.008228   4.992421   4.020437   4.831202   6.021377
    15  H    3.400516   3.863214   3.426388   4.706316   5.788481
    16  H    2.168882   3.397759   3.931631   5.374544   6.097949
    17  H    1.084245   2.134263   3.435879   4.581701   4.810711
    18  H    2.144191   1.081531   2.151062   2.589599   2.433190
    19  H    5.571055   4.300680   3.173001   1.855029   2.181892
                   11         12         13         14         15
    11  O    0.000000
    12  H    4.050378   0.000000
    13  H    4.522819   1.785464   0.000000
    14  H    4.581400   1.785831   1.781507   0.000000
    15  H    4.989429   3.470622   2.179762   2.176256   0.000000
    16  H    6.195049   5.870268   4.547705   4.534202   2.480434
    17  H    5.793988   7.062576   6.038874   6.018895   4.301690
    18  H    3.948513   6.533780   6.003360   5.985589   4.944551
    19  H    0.964961   4.845255   5.440540   5.484868   5.949812
                   16         17         18         19
    16  H    0.000000
    17  H    2.503419   0.000000
    18  H    4.300760   2.468239   0.000000
    19  H    7.060717   6.434307   4.350021   0.000000
 Stoichiometry    C8H8O3(1-,2)
 Framework group  C1[X(C8H8O3)]
 Deg. of freedom    51
 Full point group                 C1      NOp   1
 Largest Abelian subgroup         C1      NOp   1
 Largest concise Abelian subgroup C1      NOp   1
                         Standard orientation:                         
 ---------------------------------------------------------------------
 Center     Atomic      Atomic             Coordinates (Angstroms)
 Number     Number       Type             X           Y           Z
 ---------------------------------------------------------------------
      1          6           0       -1.667494    2.515961    0.037970
      2          8           0       -0.510017    1.733567    0.028445
      3          6           0       -0.667935    0.380735   -0.000675
      4          6           0       -1.919771   -0.210795   -0.013283
      5          6           0       -2.070729   -1.618476   -0.023960
      6          6           0       -0.925062   -2.423005   -0.014256
      7          6           0        0.328491   -1.848502    0.000361
      8          6           0        0.516255   -0.429600   -0.000578
      9          6           0        1.886032    0.039383    0.009809
     10          8           0        2.877553   -0.684489    0.088973
     11          8           0        2.086145    1.387381   -0.111379
     12          1           0       -1.332891    3.552030    0.061979
     13          1           0       -2.270289    2.344516   -0.860560
     14          1           0       -2.281897    2.306432    0.920503
     15          1           0       -2.805610    0.410197   -0.010145
     16          1           0       -3.062702   -2.056758   -0.034433
     17          1           0       -1.019447   -3.503124   -0.018843
     18          1           0        1.218622   -2.462733    0.010175
     19          1           0        3.046045    1.483570   -0.089301
 ---------------------------------------------------------------------
 Rotational constants (GHZ):           1.4035232           1.1448930           0.6336751
 Standard basis: def2TZVP (5D, 7F)
 There are   444 symmetry adapted cartesian basis functions of A   symmetry.
 There are   389 symmetry adapted basis functions of A   symmetry.
   389 basis functions,   625 primitive gaussians,   444 cartesian basis functions
    41 alpha electrons       40 beta electrons
       nuclear repulsion energy       593.3539556150 Hartrees.
 NAtoms=   19 NActive=   19 NUniq=   19 SFac= 1.00D+00 NAtFMM=   60 NAOKFM=F Big=F
 Integral buffers will be    131072 words long.
 Raffenetti 2 integral format.
 Two-electron integral symmetry is turned on.
 One-electron integrals computed using PRISM.
   1 Symmetry operations used in ECPInt.
 ECPInt:  NShTT=   11781 NPrTT=   36312 LenC2=   11256 LenP2D=   26595.
 LDataN:  DoStor=T MaxTD1= 6 Len=  172
 NBasis=   389 RedAO= T EigKep=  8.47D-06  NBF=   389
 NBsUse=   389 1.00D-06 EigRej= -1.00D+00 NBFU=   389
 Initial guess from the checkpoint file:  "/tmp/Gau-2595212.chk"
 B after Tr=     0.000000    0.000000   -0.000000
         Rot=    0.999981   -0.000056    0.000057    0.006238 Ang=  -0.71 deg.
 Initial guess <Sx>= 0.0000 <Sy>= 0.0000 <Sz>= 0.5000 <S**2>= 0.7621 S= 0.5061
 ExpMin= 9.52D-02 ExpMax= 2.70D+04 ExpMxC= 9.22D+02 IAcc=3 IRadAn=         5 AccDes= 0.00D+00
 Harris functional with IExCor= 1009 and IRadAn=       5 diagonalized for initial guess.
 HarFok:  IExCor= 1009 AccDes= 0.00D+00 IRadAn=         5 IDoV= 1 UseB2=F ITyADJ=14
 ICtDFT=  3500011 ScaDFX=  1.000000  1.000000  1.000000  1.000000
 FoFCou: FMM=F IPFlag=           0 FMFlag=      100000 FMFlg1=           0
         NFxFlg=           0 DoJE=T BraDBF=F KetDBF=T FulRan=T
         wScrn=  0.000000 ICntrl=       500 IOpCl=  0 I1Cent=   200000004 NGrid=           0
[...]
 67812,0.00535368,-0.00200750,-0.00002727,0.03983607,-0.03115331,-0.000
 01609,0.06981019,-0.15900040,0.00021656,0.01246333,0.64690290,-0.00005
 994,-0.00000024,-0.00136084,-0.00021002,0.00016102,0.00837281,0.001329
 12,-0.00005994,-0.05728549,-0.00422217,-0.00365412,0.09682904,0.000195
 17,-0.00098257,0.00000439,-0.00460379,-0.00467129,0.00010806,0.0060982
 1,0.03268969,-0.00025363,-0.10967264,0.04927405,0.00020887,0.69507427,
 0.00525749,0.00219529,-0.00004696,-0.00280711,-0.01183546,0.00014681,0
 .04719583,-0.02448047,-0.00015738,-0.00491444,-0.27360759,0.00161702,-
 0.04479317,0.59475882,-0.00003437,-0.00000669,0.00003692,0.00008969,0.
 00014897,0.00670516,-0.00034075,-0.00005150,0.00019391,0.00055549,0.00
 126127,-0.02868430,-0.00380795,-0.00319729,0.05676197,-0.00363762,-0.0
 0193694,0.00003827,0.00013884,0.01462408,-0.00010847,-0.02703826,0.000
 78795,0.00018868,0.02134424,-0.06287129,0.00025227,-0.22674148,-0.0462
 8089,0.00153320,0.63542607,0.00022037,0.00016294,-0.00000015,-0.000359
 01,-0.00174235,0.00000741,0.00110808,0.00421051,-0.00002412,-0.0249920
 6,-0.03925281,0.00040461,-0.11553079,-0.17545661,0.00165843,-0.0374621
 6,0.72403834,0.00002381,0.00001306,0.00037258,-0.00000438,-0.00008897,
 -0.00091294,0.00017919,-0.00002029,0.00160365,0.00000898,0.00064847,-0
 .00193484,0.00199109,0.00121093,-0.03467870,-0.00318249,-0.00372951,0.
 10695075,0.00168546,-0.00052207,0.00000064,-0.00696285,-0.01025157,0.0
 0013610,0.02868264,-0.02283249,-0.00007238,-0.01510587,0.03256840,-0.0
 0012333,-0.07891862,-0.04157635,0.00084091,-0.31335639,0.13734425,0.00
 083057,0.75848908,0.00100588,-0.00019229,0.00000422,0.00058494,0.00259
 819,-0.00000203,-0.04801736,-0.02979386,0.00047516,0.01654196,-0.01490
 819,-0.00002378,-0.00175402,0.03475466,-0.00015822,0.09036310,-0.17008
 732,0.00020026,-0.00775504,0.62349256,-0.00001025,0.00001309,0.0010615
 4,0.00006577,0.00007112,0.00356857,0.00009092,0.00030965,-0.00470445,-
 0.00001959,-0.00012611,-0.00184696,0.00057790,0.00009953,0.00869177,0.
 00114012,-0.00010570,-0.04828309,-0.00418911,-0.00327247,0.10644265,-0
 .00105280,0.00289820,-0.00000153,0.01081296,-0.00405393,-0.00002160,-0
 .22227957,-0.07625720,0.00161531,-0.04227310,-0.01234752,0.00040143,-0
 .00335936,0.00150079,-0.00001194,0.00678155,0.02785992,-0.00020599,-0.
 11026062,0.03890493,0.00017040,0.69927534,0.00165476,-0.00324678,0.000
 02696,-0.03851923,-0.03526657,0.00049328,-0.03262934,-0.14003570,0.000
 79872,-0.01688511,0.03057005,-0.00004191,-0.00614807,-0.01776712,0.000
 12803,0.03505980,-0.02282855,-0.00006562,0.00389639,-0.26485394,0.0013
 8004,-0.02587236,0.61476864,0.00000693,0.00001434,0.00218737,0.0001975
 1,0.00027298,0.00252249,0.00133757,0.00108160,-0.04990074,0.00043092,-
 0.00006827,0.00707647,0.00003682,0.00007705,-0.00390140,-0.00025357,-0
 .00001771,0.00255428,0.00039682,0.00115015,-0.04575267,-0.00374048,-0.
 00311263,0.10395974,-0.00211803,-0.00113119,0.00001755,0.00141536,0.01
 205442,-0.00009224,-0.02344738,-0.00715638,0.00017276,-0.00364778,0.01
 430914,-0.00005002,0.00803064,-0.01293797,0.00001305,-0.00542795,-0.00
 561674,0.00008746,-0.00378459,0.01524183,-0.00004728,-0.27105008,0.066
 30562,0.00096630,0.85386469,-0.00068607,-0.00145502,0.00001020,0.00299
 600,-0.00627323,0.00001660,-0.00934499,0.02865873,-0.00015230,-0.00718
 587,-0.00417626,0.00008986,0.00248875,0.00185758,-0.00004136,-0.007704
 06,-0.00819002,0.00011711,0.03925564,-0.01730290,-0.00012015,0.0662900
 2,-0.12825123,0.00000567,0.05975198,0.60887689,0.00001646,0.00001461,-
 0.00033326,-0.00003339,-0.00004571,-0.00085131,0.00018369,-0.00016365,
 -0.00456709,0.00008682,-0.00005279,0.00250469,-0.00008158,0.00006033,-
 0.00211049,0.00009882,0.00010429,0.00225367,-0.00020152,0.00003541,0.0
 0383505,0.00096611,0.00000594,-0.05924168,-0.00493494,-0.00324314,0.16
 636255,0.00121942,0.00051460,-0.00001115,-0.00050312,-0.00391966,0.000
 02610,-0.00499729,0.01226516,-0.00000362,0.00182918,-0.01766434,0.0001
 0007,-0.00497325,0.01243029,-0.00004252,0.00361723,-0.00024235,-0.0000
 2247,0.00001936,0.00613806,-0.00005701,-0.06596386,-0.03299264,0.00075
 254,-0.41497379,-0.20456264,0.00362987,0.47482477,0.00035527,0.0003389
 2,-0.00000467,-0.00109724,0.00161206,-0.00000560,-0.00483931,-0.003446
 78,0.00009553,0.00513266,-0.01144594,0.00003910,-0.00488364,0.00801474
 ,-0.00001563,0.00734395,0.00325253,-0.00006902,0.00000284,0.00353212,-
 0.00004038,-0.00760687,0.00911787,0.00009437,-0.19719253,-0.24534610,0
 .00246295,0.26278451,0.30468950,-0.00001109,-0.00000629,-0.00009515,0.
 00000866,0.00001418,-0.00024787,0.00010748,-0.00001719,0.00661001,-0.0
 0004524,0.00018997,-0.00002421,0.00006651,-0.00013062,0.00040353,-0.00
 007047,-0.00001910,0.00002793,-0.00001758,-0.00007968,-0.00261448,0.00
 058854,0.00026044,0.01572240,0.00358193,0.00250892,-0.06538027,-0.0046
 2727,-0.00350402,0.03091921,0.00021427,0.00160242,-0.00000939,-0.01171
 375,-0.00406714,0.00011314,0.00190845,0.00075779,-0.00002720,0.0001765
 9,-0.00104195,0.00000438,-0.00157951,0.00053864,0.00001006,0.00240561,
 0.00272826,-0.00002996,-0.00735134,-0.00044387,0.00006880,-0.00219132,
 0.04114431,-0.00019537,-0.12108478,0.04435657,0.00019703,0.01436897,-0
 .05432927,0.00039843,0.63407177,-0.00024603,-0.00015335,0.00000231,-0.
 00125048,0.00975404,-0.00004382,0.00366045,-0.00926573,0.00002875,-0.0
 0260289,0.00908519,-0.00004145,0.00769180,-0.00405177,-0.00002385,-0.0
 0964639,-0.00126579,0.00007434,0.00637231,-0.00669649,0.00001829,0.012
 24551,-0.01930525,0.00009702,-0.00293788,-0.21318245,0.00108644,-0.030
 05344,-0.07880573,0.00084897,-0.02330831,0.35616753,0.00000112,-0.0000
 0959,0.00007395,0.00009617,-0.00002524,0.00157183,-0.00004651,0.000045
 50,-0.00141531,0.00001551,-0.00005316,-0.00010598,-0.00003811,0.000025
 24,0.00036626,0.00005109,-0.00000667,0.00051157,0.00002596,0.00006483,
 0.00275756,-0.00000889,-0.00009392,0.00845968,0.00050273,0.00076075,-0
 .04913357,0.00024174,0.00100436,0.02153129,-0.00403154,-0.00197224,0.0
 2618928,-0.07819675,0.09563972,-0.00040948,0.00340682,-0.04203845,0.00
 023803,-0.00471347,-0.00045960,0.00003236,-0.00148872,0.00052360,0.000
 01114,0.00067260,-0.00038794,0.,0.00011271,0.00017825,-0.00000181,-0.0
 0053104,-0.00002127,0.00000411,0.00072460,-0.00126501,0.00000501,0.000
 11923,-0.00034928,0.00000092,0.00007398,0.00021886,-0.00000189,0.00003
 630,0.00026756,-0.00000246,0.08732498,0.08379552,-0.28325821,0.0008660
 8,-0.00379421,-0.02925807,0.00020916,-0.00332362,0.00289106,0.00000104
 ,-0.00007446,0.00019796,0.00000319,-0.00020535,-0.00016652,0.00000368,
 0.00033373,-0.00005033,-0.00000184,-0.00057254,0.00006384,0.00000368,0
 .00034609,-0.00093150,0.00000504,0.00108308,-0.00058996,-0.00000371,-0
 .00069124,-0.00006668,0.00000497,-0.00036190,0.00078677,-0.00000314,-0
 .08268413,0.31841544,-0.00033809,0.00079433,-0.05156629,0.00000441,0.0
 0043356,0.00047789,0.00005380,-0.00000702,0.00075564,0.00001452,0.0000
 0031,0.00060839,-0.00000135,0.00000482,0.00024900,-0.00000254,-0.00000
 063,0.00002639,0.00000674,0.00000018,0.00002654,-0.00000500,0.00001447
 ,0.00025425,-0.00000825,0.00000540,-0.00007408,0.00000404,-0.00000080,
 -0.00000105,0.00000150,-0.00000736,-0.00008298,0.00024147,-0.00111324,
 0.04677304,-0.11591785,0.02505173,-0.10475481,-0.03248463,-0.01000293,
 -0.02449449,-0.00043551,0.00656357,0.00000683,0.00062815,0.00041951,0.
 00058285,-0.00012473,-0.00112156,0.00007823,0.00079502,-0.00008619,-0.
 00003060,-0.00044105,0.00005638,0.00018203,0.00023542,-0.00045110,0.00
 032299,0.00038379,0.00052792,-0.00012592,-0.00014882,-0.00008807,0.000
 00823,-0.00039385,-0.00003759,0.00012626,-0.00435112,0.00309008,-0.008
 69637,0.14122511,0.02798900,-0.06052585,0.04245322,-0.01830780,-0.0009
 1989,-0.01817746,-0.00168646,0.00585554,-0.00115234,0.00184780,0.00004
 318,-0.00006569,-0.00015884,-0.00047632,0.00039978,0.00030186,0.000007
 62,0.00014006,-0.00031621,0.00043187,0.00014650,-0.00022224,-0.0009664
 8,0.00039154,-0.00030680,0.00018820,-0.00008888,0.00028893,0.00015396,
 -0.00000528,-0.00005996,-0.00025480,-0.00000162,0.01494044,-0.00371141
 ,0.02487641,-0.02202976,0.06071777,-0.10619249,0.03833189,-0.21869204,
 -0.00582685,-0.00686878,0.00728526,-0.00005974,0.00192020,0.00034557,-
 0.00174463,0.00069350,-0.00023467,0.00049149,-0.00087868,0.00025409,0.
 00042872,0.00011852,-0.00007372,-0.00019170,-0.00010599,-0.00004050,0.
 00043453,-0.00008390,-0.00006816,0.00007357,0.00038202,-0.00001396,0.0
 0004456,-0.00003634,0.00001421,-0.00010461,-0.00012645,0.00004303,0.00
 176115,0.00027205,0.00148289,0.12344356,-0.04006827,0.23231927,-0.1133
 6647,0.02580452,0.10317258,-0.03210551,-0.00962694,0.02508321,-0.00043
 921,0.00653770,-0.00007811,0.00064177,0.00040242,-0.00059889,-0.000131
 21,-0.00111204,-0.00005920,0.00079008,-0.00008714,0.00002095,-0.000441
 42,0.00005481,-0.00017792,0.00022735,-0.00045482,-0.00032033,0.0003848
 4,0.00052537,0.00011369,-0.00014964,-0.00008791,-0.00000484,-0.0003946
 8,-0.00003754,-0.00011973,-0.00426832,0.00319303,0.00873522,0.01059908
 ,-0.00228162,-0.01356523,0.13823563,0.02870002,-0.06151142,-0.04466707
 ,-0.01801167,-0.00061075,0.01849873,-0.00167179,0.00584119,0.00109918,
 0.00186952,0.00003718,0.00003975,-0.00017006,-0.00047025,-0.00038910,0
 .00029477,0.00000438,-0.00014506,-0.00031601,0.00043036,-0.00014846,-0
 .00023089,-0.00097030,-0.00037770,-0.00030587,0.00018475,0.00009059,0.
 00028809,0.00015431,-0.00000035,-0.00005916,-0.00025260,0.00000629,0.0
 1461847,-0.00401312,-0.02499387,-0.00204389,0.00165958,0.00642306,-0.0
 2297920,0.06169356,0.10456868,-0.04051552,-0.22023621,0.00651931,0.007
 08630,0.00661482,0.00008979,-0.00206730,0.00035498,0.00171339,-0.00069
 984,-0.00024305,-0.00048592,0.00089979,0.00025447,-0.00044176,-0.00011
 849,-0.00006555,0.00019994,0.00009949,-0.00004001,-0.00043482,0.000100
 37,-0.00005546,-0.00007504,-0.00039105,-0.00001037,-0.00004559,0.00003
 610,0.00001434,0.00011072,0.00013062,0.00004141,-0.00186199,-0.0002466
 3,0.00169358,0.01318999,-0.00668241,-0.02243057,-0.12203101,0.04237346
 ,0.23430714,-0.00083130,-0.00118254,0.00001119,0.00169657,-0.00073168,
 -0.00003538,-0.02039481,-0.02035470,0.00028340,-0.25273663,-0.12734271
 ,0.00232012,0.00484822,0.00213029,-0.00005963,0.00169427,0.00081285,0.
 00001851,-0.00013661,0.00060373,-0.00000824,-0.00259403,0.00476442,0.0
 0002372,-0.00000199,-0.00186490,0.00002394,-0.00069667,0.00046882,-0.0
 0000395,-0.00014589,0.00034378,-0.00000219,0.00101625,-0.00017795,-0.0
 0000924,0.00040333,0.00005469,0.00092028,0.00039030,0.00006932,-0.0009
 2829,0.26668047,0.00240651,-0.00586785,0.00001834,-0.00223822,0.000141
 57,-0.00001670,0.00964421,0.01076999,-0.00011509,-0.13254226,-0.143148
 79,0.00163645,-0.02745581,-0.01184031,0.00024266,0.00228284,-0.0055710
 7,0.00005579,0.00090011,-0.00048880,-0.00000809,0.00217360,-0.00052708
 ,0.00002721,0.00098786,0.00053105,0.00000238,-0.00024779,-0.00039965,-
 0.00000151,-0.00014296,0.00033639,-0.00000228,0.00095590,0.00008070,-0
 .00000963,0.00049245,-0.00216896,0.00014498,0.00048808,-0.00214628,-0.
 00012700,0.14299108,0.16011566,-0.00000882,0.00004355,-0.00017367,-0.0
 0002590,-0.00002770,-0.00456638,0.00008809,0.00007886,0.00281309,0.002
 35062,0.00160663,-0.02458205,0.00013198,0.00004617,-0.00206296,0.00000
 902,0.00006487,0.00524247,-0.00001069,-0.00000608,-0.00079462,0.000041
 69,0.00001089,0.00582680,0.00000461,0.00002094,0.00190571,0.00000129,-
 0.00000544,-0.00088709,0.00000106,-0.00000611,-0.00015392,-0.00001689,
 -0.00000244,-0.00059452,0.00021496,-0.00198055,-0.00017099,-0.00022785
 ,0.00200456,-0.00017642,-0.00254230,-0.00184015,0.01998518,-0.00027339
 ,-0.00015238,0.00000226,0.00001253,0.00045820,0.00000641,0.00137068,-0
 .00036088,0.00001784,0.00046299,-0.00194245,-0.00002659,-0.29132840,0.
 10783779,0.00111157,-0.01750232,0.01516550,-0.00002141,-0.00256309,-0.
 00493373,0.00008259,0.00063882,-0.00041490,-0.00001206,0.00006725,-0.0
 0028724,-0.00000017,-0.00018479,0.00035627,-0.00000137,-0.00014228,0.0
 0025868,-0.00000055,-0.00001820,0.00004789,-0.00000039,0.00004620,-0.0
 0001231,0.00000485,0.00004621,-0.00001181,-0.00000600,0.00076738,0.000
 69534,-0.00001747,0.30872788,0.00075466,0.00055801,-0.00000812,0.00161
 799,-0.00207733,0.00001134,-0.00262377,-0.00471405,0.00007387,0.028904
 78,-0.00743281,-0.00017390,0.10719976,-0.10726059,-0.00003528,-0.01552
 891,0.01161817,-0.00001192,-0.00307017,-0.00218559,0.00006926,0.000081
 28,-0.00008540,-0.00001068,-0.00046395,0.00005604,0.00000129,0.0004769
 5,0.00034011,-0.00000570,0.00004291,0.00006714,-0.00000058,-0.00006148
 ,-0.00008203,0.00000070,-0.00010904,0.00002373,-0.00008386,-0.00010805
 ,0.00002520,0.00008419,-0.00060932,0.00110125,-0.00001169,-0.11672143,
 0.10887221,-0.00000363,-0.00000288,-0.00003402,-0.00000057,0.00001997,
 0.00141500,0.00003215,0.00005693,0.00392121,-0.00022422,0.00002203,-0.
 00570844,0.00110743,-0.00003778,-0.00736725,0.00018509,-0.00020809,-0.
 00544871,0.00006980,0.00008126,0.00542321,-0.00001631,-0.00000642,-0.0
 0165255,0.00000364,-0.00000002,-0.00023056,-0.00000401,-0.00000606,-0.
 00005464,0.00000038,-0.00000048,0.00002163,0.00000041,0.00000015,-0.00
 003050,-0.00000358,-0.00003974,-0.00005677,0.00000379,0.00003902,-0.00
 005840,-0.00000932,-0.00001992,-0.00127421,-0.00113566,0.00011497,0.01
 191872,-0.00018167,-0.00010067,0.00000014,0.00032771,0.00039354,-0.000
 00940,-0.00114383,-0.00013410,0.00000472,-0.00413579,-0.00247137,0.000
 08670,0.00782301,-0.02525297,0.00010401,-0.06024886,0.01594215,0.00009
 646,0.00256145,0.03032167,-0.00020822,-0.00425168,0.00049687,0.0000771
 1,0.00047364,0.00100111,-0.00000339,0.00003648,0.00015520,-0.00000088,
 -0.00054432,-0.00004950,0.00000124,0.00006729,0.00000373,-0.00000063,0
 .00003397,0.00000534,0.00007132,0.00003341,0.00000583,-0.00007162,0.00
 007497,-0.00133600,0.00000970,0.00085252,0.00093600,-0.00002654,0.0573
 8319,0.00016188,0.00007790,-0.00000299,-0.00006798,-0.00047334,-0.0000
 0125,-0.00017169,0.00100693,-0.00000906,-0.00402475,0.00020425,0.00006
 789,0.00476815,-0.01439994,0.00005464,0.01737201,-0.32890336,0.0018110
 1,-0.00147282,-0.01217511,0.00009035,0.00295232,0.00159145,0.00002336,
 -0.00146870,-0.00047923,0.00001912,0.00088859,0.00027520,-0.00000731,0
 .00054295,-0.00047406,-0.00000340,0.00004326,-0.00006074,-0.00000007,-
 0.00003986,0.00000700,0.00002715,-0.00003997,0.00000797,-0.00002657,0.
 00015753,-0.00095952,0.00000663,-0.00062914,0.00080497,-0.00001607,-0.
 01939996,0.35293938,-0.00000143,-0.00000135,-0.00025259,-0.00000635,-0
 .00000392,-0.00071788,0.00000462,-0.00000979,-0.00061358,0.00009684,0.
 00005841,0.00680169,-0.00008780,0.00025112,-0.00124578,0.00008480,0.00
 181804,-0.02946126,-0.00000325,-0.00011522,0.00038158,0.00006198,0.000
 03901,0.00821353,0.00001215,0.00000268,0.00096012,-0.00000524,-0.00000
 219,0.00005274,-0.00000277,0.00000040,-0.00043650,-0.00000092,0.000000
 23,-0.00002787,-0.00001890,-0.00010564,0.00001570,0.00001912,0.0001057
 1,0.00001556,0.,0.00001603,0.00022277,-0.00001615,-0.00002614,-0.00229
 796,-0.00009669,-0.00199256,0.02329130,0.00006887,0.00012778,-0.000003
 39,0.00017116,0.00038353,-0.00000737,0.00049974,0.00087577,0.00001743,
 0.00036040,-0.00009999,-0.00000261,-0.00191776,0.00475345,0.00002183,-
 0.01853553,-0.01711405,0.00023862,-0.25162944,-0.13574706,0.00231927,0
 .00435881,0.00125934,-0.00001711,0.00009844,0.00098227,-0.00001143,-0.
 00277728,0.00161290,0.00000263,0.00020394,-0.00056596,-0.00000021,0.00
 003080,0.00000649,-0.00000029,-0.00000063,0.00000307,0.00001111,-0.000
 00011,0.00000381,-0.00001090,-0.00002237,-0.00008181,-0.00000320,-0.00
 098831,-0.00071417,0.00002085,0.00091981,0.00044235,-0.00003984,0.2691
 3462,0.00031015,-0.00029151,-0.00000152,-0.00204067,-0.00125636,0.0000
 1678,0.00377551,-0.00398438,0.00002705,0.00025676,-0.00039407,-0.00000
 030,0.00307936,-0.00025194,0.00002199,0.01255075,0.01074731,-0.0001428
 7,-0.13323987,-0.14722305,0.00162489,-0.02568388,-0.01364808,0.0002744
 8,-0.00597039,-0.00279210,0.00005275,0.00277291,0.00382348,-0.00004779
 ,0.00066777,0.00034345,-0.00000885,-0.00014146,-0.00013364,0.00000160,
 -0.00006692,-0.00001761,-0.00003270,-0.00006606,-0.00001654,0.00003395
 ,-0.00010698,0.00007556,-0.00000363,0.00067852,0.00034721,0.00000295,-
 0.00067107,0.00104867,-0.00003326,0.14384501,0.15384559,-0.00000433,-0
 .00000109,-0.00032467,0.00000810,0.00000224,-0.00056989,-0.00000156,0.
 00004575,0.00403521,-0.00000474,0.00000212,-0.00013483,0.00003284,0.00
 001087,0.00620425,0.00004635,0.00005013,0.00126411,0.00230395,0.001640
 73,-0.02944922,0.00015690,0.00009980,0.00300694,0.00003225,0.00000645,
 -0.00075444,-0.00000413,-0.00003985,-0.00078917,-0.00000798,-0.0000009
 9,-0.00036491,0.00000060,0.00000071,-0.00001099,-0.00004730,-0.0000651
 4,0.00001877,0.00004838,0.00006560,0.00001709,-0.00000305,-0.00000380,
 -0.00059556,0.00001196,0.00001217,0.00148213,-0.00003273,-0.00004042,-
 0.00477999,-0.00253511,-0.00178656,0.02173388,-0.00003106,0.00025580,-
 0.00000050,-0.00065070,-0.00025251,0.00000662,0.00067027,-0.00041434,-
 0.00000539,-0.00033601,0.00082122,-0.00000338,0.00060864,-0.00046015,-
 0.00000168,-0.00061723,0.00013086,0.00000348,0.00004496,-0.00114494,0.
 00001572,0.00222157,0.00105108,-0.00001531,-0.01930151,0.01380941,0.00
 007500,-0.00062086,-0.00830644,0.00002217,-0.50784418,0.03989592,0.003
 18839,-0.00001794,-0.00001425,0.00000046,-0.00005189,-0.00004913,0.000
 00009,-0.00005209,-0.00004949,0.00000113,-0.00001146,0.00002688,0.0000
 0010,0.00000833,-0.00000404,0.00000031,-0.00008130,-0.00001416,-0.0000
 0016,0.00002483,0.00005055,-0.00000040,0.52603762,0.00012102,0.0005684
 4,-0.00000339,-0.00137848,-0.00045275,0.00001242,-0.00037363,0.0000093
 1,-0.00000142,0.00006773,-0.00051303,0.00000242,-0.00043794,0.00048380
 ,-0.00000053,0.00011579,-0.00069359,0.00000406,0.00158520,0.00060393,-
 0.00000505,-0.00297777,-0.00736404,0.00007217,0.06575446,-0.01231475,-
 0.00033818,-0.00847401,0.00420607,-0.00000260,-0.00856710,-0.04283247,
 0.00027371,0.00002256,-0.00011355,0.00000085,-0.00012472,-0.00004714,-
 0.00002840,-0.00012465,-0.00004721,0.00003055,-0.00002573,-0.00003387,
 0.00000068,-0.00003194,0.00002373,0.00000016,0.00015420,-0.00003843,-0
 .00000157,0.00002727,-0.00022199,0.00000127,-0.04533226,0.05877752,0.0
 0000008,-0.00000451,0.00010178,0.00001319,0.00000573,0.00013281,-0.000
 00490,-0.00000133,-0.00055646,0.00000104,-0.00000162,-0.00004741,-0.00
 000104,-0.00000097,-0.00007044,0.00000287,0.00000388,0.00005140,-0.000
 00188,0.00001176,0.00133752,0.00000968,0.00004644,0.00078871,-0.000260
 24,0.00002141,0.00487929,0.00002280,-0.00000241,-0.00520174,0.00350334
 ,-0.00006442,-0.00987430,0.00000025,0.00000103,0.00004066,0.00001605,0
 .00002551,0.00000260,-0.00001383,-0.00002433,0.00000266,0.00000044,0.0
 0000032,0.00003638,0.00000035,0.00000007,0.00003210,-0.00000129,-0.000
 00046,-0.00012159,-0.00000026,0.00000102,0.00001130,-0.00328665,-0.000
 01715,0.00845476\\-0.00000609,-0.00000099,0.00000500,0.00001749,0.0000
 1279,-0.00000909,-0.00001324,-0.00001000,0.00000530,0.00001455,-0.0000
 1843,-0.00000058,-0.00000789,0.00001794,-0.00000452,0.00000128,-0.0000
 0806,0.00000263,-0.00000442,0.00001522,-0.00000203,0.00000281,-0.00000
 739,0.00000376,-0.00001161,-0.00004635,0.00000209,0.00001970,0.0000217
 4,-0.00000180,-0.00001428,0.00003048,-0.00000617,0.00000436,0.00000129
 ,0.00000016,0.00000359,-0.00000086,-0.00000059,0.00000341,0.00000209,-
 0.00000093,-0.00000398,-0.00000609,0.00000015,-0.00000172,-0.00000633,
 0.00000256,-0.00000432,0.00000167,-0.00000104,-0.00000129,-0.00000155,
 0.00000020,0.00000165,0.00000285,0.00000491\\\@
 The archive entry for this job was punched.


 ALL MEN WHO EXPLORE
 DEPLORE
 THAT FRUSTRATING HURDLE
 THE GIRDLE.

         -- COLIN FLETCHER
 Job cpu time:       0 days  3 hours 41 minutes 58.1 seconds.
 Elapsed time:       0 days  0 hours 27 minutes 59.5 seconds.
 File lengths (MBytes):  RWF=    465 Int=      0 D2E=      0 Chk=     18 Scr=      1
 Normal termination of Gaussian 16 at Mon Jan 29 13:54:53 2024.
