 Entering Gaussian System, Link 0=/usr/local/Gaussian/G16C/g16/g16
 Input=arbr39_wb97xd_red.com
 Output=arbr39_wb97xd_red.log
 Initial command:
 /usr/local/Gaussian/G16C/g16/l1.exe "/home/rpaton/arbr500/dzvp/fukui/Gau-1918234.inp" -scrdir="/home/rpaton/arbr500/dzvp/fukui/"
 Entering Link 1 = /usr/local/Gaussian/G16C/g16/l1.exe PID=   1918235.
  
 Copyright (c) 1988-2019, Gaussian, Inc.  All Rights Reserved.
  
 This is part of the Gaussian(R) 16 program.  It is based on
 the Gaussian(R) 09 system (copyright 2009, Gaussian, Inc.),
 the Gaussian(R) 03 system (copyright 2003, Gaussian, Inc.),
 the Gaussian(R) 98 system (copyright 1998, Gaussian, Inc.),
 the Gaussian(R) 94 system (copyright 1995, Gaussian, Inc.),
 the Gaussian 92(TM) system (copyright 1992, Gaussian, Inc.),
 the Gaussian 90(TM) system (copyright 1990, Gaussian, Inc.),
 the Gaussian 88(TM) system (copyright 1988, Gaussian, Inc.),
 the Gaussian 86(TM) system (copyright 1986, Carnegie Mellon
 University), and the Gaussian 82(TM) system (copyright 1983,
 Carnegie Mellon University). Gaussian is a federally registered
 trademark of Gaussian, Inc.
  
 This software contains proprietary and confidential information,
 including trade secrets, belonging to Gaussian, Inc.
  
 This software is provided under written license and may be
 used, copied, transmitted, or stored only in accord with that
 written license.
  
 The following legend is applicable only to US Government
 contracts under FAR:
  
                    RESTRICTED RIGHTS LEGEND
  
 Use, reproduction and disclosure by the US Government is
 subject to restrictions as set forth in subparagraphs (a)
 and (c) of the Commercial Computer Software - Restricted
 Rights clause in FAR 52.227-19.
  
 Gaussian, Inc.
 340 Quinnipiac St., Bldg. 40, Wallingford CT 06492
  
  
 ---------------------------------------------------------------
 Warning -- This program may not be used in any manner that
 competes with the business of Gaussian, Inc. or will provide
 assistance to any competitor of Gaussian, Inc.  The licensee
 of this program is prohibited from giving any competitor of
 Gaussian, Inc. access to this program.  By using this program,
 the user acknowledges that Gaussian, Inc. is engaged in the
 business of creating and licensing software in the field of
 computational chemistry and represents and warrants to the
 licensee that it is not a competitor of Gaussian, Inc. and that
 it will not use this program in any manner prohibited above.
 ---------------------------------------------------------------
  

 Cite this work as:
 Gaussian 16, Revision C.01,
 M. J. Frisch, G. W. Trucks, H. B. Schlegel, G. E. Scuseria, 
 M. A. Robb, J. R. Cheeseman, G. Scalmani, V. Barone, 
 G. A. Petersson, H. Nakatsuji, X. Li, M. Caricato, A. V. Marenich, 
 J. Bloino, B. G. Janesko, R. Gomperts, B. Mennucci, H. P. Hratchian, 
 J. V. Ortiz, A. F. Izmaylov, J. L. Sonnenberg, D. Williams-Young, 
 F. Ding, F. Lipparini, F. Egidi, J. Goings, B. Peng, A. Petrone, 
 T. Henderson, D. Ranasinghe, V. G. Zakrzewski, J. Gao, N. Rega, 
 G. Zheng, W. Liang, M. Hada, M. Ehara, K. Toyota, R. Fukuda, 
 J. Hasegawa, M. Ishida, T. Nakajima, Y. Honda, O. Kitao, H. Nakai, 
 T. Vreven, K. Throssell, J. A. Montgomery, Jr., J. E. Peralta, 
 F. Ogliaro, M. J. Bearpark, J. J. Heyd, E. N. Brothers, K. N. Kudin, 
 V. N. Staroverov, T. A. Keith, R. Kobayashi, J. Normand, 
 K. Raghavachari, A. P. Rendell, J. C. Burant, S. S. Iyengar, 
 J. Tomasi, M. Cossi, J. M. Millam, M. Klene, C. Adamo, R. Cammi, 
 J. W. Ochterski, R. L. Martin, K. Morokuma, O. Farkas, 
 J. B. Foresman, and D. J. Fox, Gaussian, Inc., Wallingford CT, 2019.
 
 ******************************************
 Gaussian 16:  ES64L-G16RevC.01  3-Jul-2019
                28-Sep-2024 
 ******************************************
 %chk=arbr39_wb97xd_red.chk
 %mem=48GB
 %nprocshared=24
 Will use up to   24 processors via shared memory.
 -------------------------------------
 # pop=(nbo6,hirshfeld) wb97xd/def2svp
 -------------------------------------
 1/38=1,172=1/1;
 2/12=2,17=6,18=5,40=1/2;
 3/5=43,7=101,11=2,25=1,30=1,74=-58/1,2,3;
 4//1;
 5/5=2,38=5/2;
 6/7=2,8=2,9=2,10=2,28=1,40=1,79=1,113=1,114=1,124=3103,126=1/1,12;
 99/5=1,9=1/99;
 ----------------------------------------
 arbr39_wb97xd_redcreated by GaussianPrep
 ----------------------------------------
 Symbolic Z-matrix:
 Charge = -1 Multiplicity = 2
 O                     1.7345   -2.18905  -0.00001 
 C                     1.61956  -0.98803   0.00011 
 C                     0.35423  -0.21289   0.00005 
 C                    -0.94974  -0.70668   0.00003 
 C                    -1.98458   0.22047   0. 
 Br                   -3.78102  -0.37429  -0.00001 
 C                    -1.72148   1.59837  -0.00001 
 C                    -0.41039   2.06855  0. 
 C                     0.6399    1.15043   0.00002 
 C                     2.12793   1.40787   0. 
 C                     2.77838   0.00878   0.00002 
 C                     3.87582  -0.24329   1.07218 
 C                     4.95564  -0.00216  -0.00006 
 C                     3.87574  -0.24336  -1.07221 
 H                    -1.1325   -1.78268   0.00005 
 H                    -2.55548   2.30238  -0.00003 
 H                    -0.21969   3.14414  -0.00002 
 H                     2.41904   1.99825   0.88365 
 H                     2.41901   1.9982   -0.88369 
 H                     3.86162   0.41051   1.9569 
 H                     3.8504   -1.2938    1.39711 
 H                     5.82945  -0.66875  -0.00007 
 H                     5.30985   1.03962  -0.00011 
 H                     3.86148   0.41038  -1.95697 
 H                     3.8503   -1.29389  -1.39707 
 
                          Input orientation:                          
 ---------------------------------------------------------------------
 Center     Atomic      Atomic             Coordinates (Angstroms)
 Number     Number       Type             X           Y           Z
 ---------------------------------------------------------------------
      1          8           0        1.734501   -2.189052   -0.000010
      2          6           0        1.619555   -0.988030    0.000106
      3          6           0        0.354225   -0.212893    0.000047
      4          6           0       -0.949743   -0.706681    0.000030
      5          6           0       -1.984577    0.220469    0.000003
      6         35           0       -3.781015   -0.374294   -0.000011
      7          6           0       -1.721483    1.598374   -0.000010
      8          6           0       -0.410386    2.068554   -0.000001
      9          6           0        0.639903    1.150428    0.000023
     10          6           0        2.127929    1.407871    0.000001
     11          6           0        2.778383    0.008775    0.000015
     12          6           0        3.875817   -0.243289    1.072180
     13          6           0        4.955640   -0.002161   -0.000061
     14          6           0        3.875741   -0.243356   -1.072210
     15          1           0       -1.132502   -1.782680    0.000049
     16          1           0       -2.555483    2.302381   -0.000032
     17          1           0       -0.219689    3.144138   -0.000023
     18          1           0        2.419042    1.998245    0.883647
     19          1           0        2.419011    1.998200   -0.883685
     20          1           0        3.861620    0.410506    1.956895
     21          1           0        3.850396   -1.293801    1.397112
     22          1           0        5.829451   -0.668754   -0.000070
     23          1           0        5.309848    1.039621   -0.000107
     24          1           0        3.861484    0.410382   -1.956966
     25          1           0        3.850298   -1.293890   -1.397073
 ---------------------------------------------------------------------
                    Distance matrix (angstroms):
                    1          2          3          4          5
     1  O    0.000000
     2  C    1.206510   0.000000
     3  C    2.410470   1.483879   0.000000
     4  C    3.066364   2.584657   1.394331   0.000000
     5  C    4.431403   3.801347   2.378612   1.389420   0.000000
     6  Br   5.806398   5.435331   4.138389   2.850716   1.892335
     7  C    5.127224   4.225165   2.754860   2.430815   1.402797
     8  C    4.767363   3.669246   2.406165   2.827160   2.427652
     9  C    3.514295   2.352174   1.392931   2.444551   2.784370
    10  C    3.618375   2.449242   2.402686   3.734086   4.280494
    11  C    2.433132   1.528562   2.434272   3.796156   4.767662
    12  C    3.085582   2.606665   3.681305   4.964904   5.975688
    13  C    3.893357   3.478707   4.606238   5.947260   6.943787
    14  C    3.085491   2.606679   3.681269   4.964843   5.975626
    15  H    2.895660   2.864487   2.162080   1.091410   2.176841
    16  H    6.211033   5.315802   3.846167   3.410697   2.158771
    17  H    5.679945   4.523011   3.405736   3.919411   3.415065
    18  H    4.333925   3.215224   3.151722   4.409775   4.830442
    19  H    4.333880   3.215243   3.151707   4.409743   4.830406
    20  H    3.887392   3.288127   4.064443   5.312875   6.167946
    21  H    2.688947   2.649863   3.917061   5.033675   6.188040
    22  H    4.368057   4.221985   5.494170   6.779300   7.864461
    23  H    4.817410   4.210657   5.111457   6.498619   7.340276
    24  H    3.887260   3.288150   4.064386   5.312774   6.167838
    25  H    2.688810   2.649882   3.917017   5.033598   6.187962
                    6          7          8          9         10
     6  Br   0.000000
     7  C    2.851857   0.000000
     8  C    4.162769   1.392855   0.000000
     9  C    4.676462   2.403497   1.395013   0.000000
    10  C    6.171850   3.854123   2.622889   1.510132   0.000000
    11  C    6.570574   4.772381   3.796174   2.424143   1.542906
    12  C    7.732647   5.989247   4.986555   3.682812   2.632681
    13  C    8.744577   6.866271   5.751704   4.466995   3.159769
    14  C    7.732572   5.989199   4.986526   3.682793   2.632686
    15  H    2.999695   3.431971   3.918348   3.427031   4.561801
    16  H    2.943895   1.091413   2.157804   3.396688   4.768070
    17  H    5.006237   2.155173   1.092358   2.171124   2.919920
    18  H    6.697052   4.252610   2.965036   2.159843   1.101870
    19  H    6.697009   4.252580   2.965018   2.159834   1.101870
    20  H    7.928131   6.034198   4.982831   3.841392   2.798188
    21  H    7.812546   6.431365   5.604607   4.270056   3.495403
    22  H    9.614976   7.883938   6.813840   5.499166   4.244247
    23  H    9.200160   7.053497   5.812038   4.671259   3.203157
    24  H    7.928000   6.034113   4.982782   3.841361   2.798199
    25  H    7.812450   6.431308   5.604576   4.270036   3.495409
                   11         12         13         14         15
    11  C    0.000000
    12  C    1.554810   0.000000
    13  C    2.177284   1.540734   0.000000
    14  C    1.554809   2.144390   1.540734   0.000000
    15  H    4.301666   5.348126   6.343163   5.348061   0.000000
    16  H    5.806096   6.999407   7.856709   6.999356   4.325806
    17  H    4.338080   5.421942   6.056668   5.421923   5.010665
    18  H    2.206337   2.679965   3.349163   3.312420   5.262091
    19  H    2.206329   3.312396   3.349138   2.679958   5.262061
    20  H    2.272481   1.100168   2.279660   3.098905   5.794874
    21  H    2.190387   1.099910   2.200452   2.683585   5.198082
    22  H    3.125390   2.268794   1.099041   2.268795   7.050505
    23  H    2.733305   2.202749   1.100351   2.202748   7.033438
    24  H    2.272481   3.098906   2.279659   1.100168   5.794767
    25  H    2.190386   2.683584   2.200452   1.099911   5.197996
                   16         17         18         19         20
    16  H    0.000000
    17  H    2.482839   0.000000
    18  H    5.061550   3.009459   0.000000
    19  H    5.061517   3.009447   1.767332   0.000000
    20  H    6.970507   5.287661   2.398710   3.559605   0.000000
    21  H    7.477956   6.181657   3.626291   4.253019   1.793919
    22  H    8.895772   7.150541   4.418680   4.418656   2.977730
    23  H    7.966053   5.916483   3.171236   3.171202   2.514559
    24  H    6.970417   5.287629   3.559639   2.398714   3.913861
    25  H    7.477895   6.181637   4.253038   3.626294   3.762206
                   21         22         23         24         25
    21  H    0.000000
    22  H    2.501891   0.000000
    23  H    3.086597   1.785646   0.000000
    24  H    3.762207   2.977729   2.514557   0.000000
    25  H    2.794185   2.501891   3.086596   1.793920   0.000000
 Stoichiometry    C12H11BrO(1-,2)
 Framework group  C1[X(C12H11BrO)]
 Deg. of freedom    69
 Full point group                 C1      NOp   1
 Largest Abelian subgroup         C1      NOp   1
 Largest concise Abelian subgroup C1      NOp   1
                         Standard orientation:                         
 ---------------------------------------------------------------------
 Center     Atomic      Atomic             Coordinates (Angstroms)
 Number     Number       Type             X           Y           Z
 ---------------------------------------------------------------------
      1          8           0       -1.734501   -2.189052    0.000010
      2          6           0       -1.619555   -0.988030   -0.000106
      3          6           0       -0.354225   -0.212893   -0.000047
      4          6           0        0.949743   -0.706681   -0.000030
      5          6           0        1.984577    0.220469   -0.000003
      6         35           0        3.781015   -0.374294    0.000011
      7          6           0        1.721483    1.598374    0.000010
      8          6           0        0.410386    2.068554    0.000001
      9          6           0       -0.639903    1.150428   -0.000023
     10          6           0       -2.127929    1.407871   -0.000001
     11          6           0       -2.778383    0.008775   -0.000015
     12          6           0       -3.875817   -0.243289   -1.072180
     13          6           0       -4.955640   -0.002161    0.000061
     14          6           0       -3.875741   -0.243356    1.072210
     15          1           0        1.132502   -1.782680   -0.000049
     16          1           0        2.555483    2.302381    0.000032
     17          1           0        0.219689    3.144138    0.000023
     18          1           0       -2.419042    1.998245   -0.883647
     19          1           0       -2.419011    1.998200    0.883685
     20          1           0       -3.861620    0.410506   -1.956895
     21          1           0       -3.850396   -1.293801   -1.397112
     22          1           0       -5.829451   -0.668754    0.000070
     23          1           0       -5.309848    1.039621    0.000107
     24          1           0       -3.861484    0.410382    1.956966
     25          1           0       -3.850298   -1.293890    1.397073
 ---------------------------------------------------------------------
 Rotational constants (GHZ):           1.6743255           0.2216183           0.2021025
 Standard basis: def2SVP (5D, 7F)
 There are   285 symmetry adapted cartesian basis functions of A   symmetry.
 There are   269 symmetry adapted basis functions of A   symmetry.
   269 basis functions,   482 primitive gaussians,   285 cartesian basis functions
    64 alpha electrons       63 beta electrons
       nuclear repulsion energy      1112.1622812857 Hartrees.
 NAtoms=   25 NActive=   25 NUniq=   25 SFac= 1.00D+00 NAtFMM=   60 NAOKFM=F Big=F
 Integral buffers will be    131072 words long.
 Raffenetti 2 integral format.
 Two-electron integral symmetry is turned on.
 Nuclear repulsion after empirical dispersion term =     1112.1442303618 Hartrees.
 One-electron integrals computed using PRISM.
   1 Symmetry operations used in ECPInt.
 ECPInt:  NShTT=    7626 NPrTT=   29403 LenC2=    7141 LenP2D=   20128.
 LDataN:  DoStor=T MaxTD1= 4 Len=   56
 NBasis=   269 RedAO= T EigKep=  2.58D-04  NBF=   269
 NBsUse=   269 1.00D-06 EigRej= -1.00D+00 NBFU=   269
 ExpMin= 1.22D-01 ExpMax= 1.13D+05 ExpMxC= 1.70D+04 IAcc=3 IRadAn=         5 AccDes= 0.00D+00
 Harris functional with IExCor= 4639 and IRadAn=       5 diagonalized for initial guess.
 HarFok:  IExCor= 4639 AccDes= 0.00D+00 IRadAn=         5 IDoV= 1 UseB2=F ITyADJ=14
 ICtDFT=  3500011 ScaDFX=  1.000000  1.000000  1.000000  1.000000
 FoFCou: FMM=F IPFlag=           0 FMFlag=      100000 FMFlg1=           0
         NFxFlg=           0 DoJE=T BraDBF=F KetDBF=T FulRan=T
         wScrn=  0.000000 ICntrl=       500 IOpCl=  0 I1Cent=   200000004 NGrid=           0
         NMat0=    1 NMatS0=      1 NMatT0=    0 NMatD0=    1 NMtDS0=    0 NMtDT0=    0
 Petite list used in FoFCou.
 Initial guess <Sx>= 0.0000 <Sy>= 0.0000 <Sz>= 0.5000 <S**2>= 0.7500 S= 0.5000
 Requested convergence on RMS density matrix=1.00D-08 within 128 cycles.
 Requested convergence on MAX density matrix=1.00D-06.
 Requested convergence on             energy=1.00D-06.
 No special actions if energy rises.
 Integral accuracy reduced to 1.0D-05 until final iterations.
 Initial convergence to 1.0D-05 achieved.  Increase integral accuracy.
 SCF Done:  E(UwB97XD) =  -3112.46276561     A.U. after   27 cycles
            NFock= 27  Conv=0.37D-08     -V/T= 2.0027
 <Sx>= 0.0000 <Sy>= 0.0000 <Sz>= 0.5000 <S**2>= 0.7703 S= 0.5101
 <L.S>= 0.000000000000E+00
 Annihilation of the first spin contaminant:
 S**2 before annihilation     0.7703,   after     0.7502

 **********************************************************************

            Population analysis using the SCF Density.

 **********************************************************************

 Orbital symmetries:
 Alpha Orbitals:
       Occupied  (A) (A) (A) (A) (A) (A) (A) (A) (A) (A) (A) (A)
                 (A) (A) (A) (A) (A) (A) (A) (A) (A) (A) (A) (A)
                 (A) (A) (A) (A) (A) (A) (A) (A) (A) (A) (A) (A)
                 (A) (A) (A) (A) (A) (A) (A) (A) (A) (A) (A) (A)
                 (A) (A) (A) (A) (A) (A) (A) (A) (A) (A) (A) (A)
                 (A) (A) (A) (A)
       Virtual   (A) (A) (A) (A) (A) (A) (A) (A) (A) (A) (A) (A)
                 (A) (A) (A) (A) (A) (A) (A) (A) (A) (A) (A) (A)
                 (A) (A) (A) (A) (A) (A) (A) (A) (A) (A) (A) (A)
                 (A) (A) (A) (A) (A) (A) (A) (A) (A) (A) (A) (A)
                 (A) (A) (A) (A) (A) (A) (A) (A) (A) (A) (A) (A)
                 (A) (A) (A) (A) (A) (A) (A) (A) (A) (A) (A) (A)
                 (A) (A) (A) (A) (A) (A) (A) (A) (A) (A) (A) (A)
                 (A) (A) (A) (A) (A) (A) (A) (A) (A) (A) (A) (A)
                 (A) (A) (A) (A) (A) (A) (A) (A) (A) (A) (A) (A)
                 (A) (A) (A) (A) (A) (A) (A) (A) (A) (A) (A) (A)
                 (A) (A) (A) (A) (A) (A) (A) (A) (A) (A) (A) (A)
                 (A) (A) (A) (A) (A) (A) (A) (A) (A) (A) (A) (A)
                 (A) (A) (A) (A) (A) (A) (A) (A) (A) (A) (A) (A)
                 (A) (A) (A) (A) (A) (A) (A) (A) (A) (A) (A) (A)
                 (A) (A) (A) (A) (A) (A) (A) (A) (A) (A) (A) (A)
                 (A) (A) (A) (A) (A) (A) (A) (A) (A) (A) (A) (A)
                 (A) (A) (A) (A) (A) (A) (A) (A) (A) (A) (A) (A)
                 (A)
 Beta  Orbitals:
       Occupied  (A) (A) (A) (A) (A) (A) (A) (A) (A) (A) (A) (A)
                 (A) (A) (A) (A) (A) (A) (A) (A) (A) (A) (A) (A)
                 (A) (A) (A) (A) (A) (A) (A) (A) (A) (A) (A) (A)
                 (A) (A) (A) (A) (A) (A) (A) (A) (A) (A) (A) (A)
                 (A) (A) (A) (A) (A) (A) (A) (A) (A) (A) (A) (A)
                 (A) (A) (A)
       Virtual   (A) (A) (A) (A) (A) (A) (A) (A) (A) (A) (A) (A)
                 (A) (A) (A) (A) (A) (A) (A) (A) (A) (A) (A) (A)
                 (A) (A) (A) (A) (A) (A) (A) (A) (A) (A) (A) (A)
                 (A) (A) (A) (A) (A) (A) (A) (A) (A) (A) (A) (A)
                 (A) (A) (A) (A) (A) (A) (A) (A) (A) (A) (A) (A)
                 (A) (A) (A) (A) (A) (A) (A) (A) (A) (A) (A) (A)
                 (A) (A) (A) (A) (A) (A) (A) (A) (A) (A) (A) (A)
                 (A) (A) (A) (A) (A) (A) (A) (A) (A) (A) (A) (A)
                 (A) (A) (A) (A) (A) (A) (A) (A) (A) (A) (A) (A)
                 (A) (A) (A) (A) (A) (A) (A) (A) (A) (A) (A) (A)
                 (A) (A) (A) (A) (A) (A) (A) (A) (A) (A) (A) (A)
                 (A) (A) (A) (A) (A) (A) (A) (A) (A) (A) (A) (A)
                 (A) (A) (A) (A) (A) (A) (A) (A) (A) (A) (A) (A)
                 (A) (A) (A) (A) (A) (A) (A) (A) (A) (A) (A) (A)
                 (A) (A) (A) (A) (A) (A) (A) (A) (A) (A) (A) (A)
                 (A) (A) (A) (A) (A) (A) (A) (A) (A) (A) (A) (A)
                 (A) (A) (A) (A) (A) (A) (A) (A) (A) (A) (A) (A)
                 (A) (A)
 The electronic state is 2-A.
 Alpha  occ. eigenvalues -- -482.92372 -62.50586 -56.31331 -56.31009 -56.31006
 Alpha  occ. eigenvalues --  -19.04076 -10.19867 -10.17916 -10.17308 -10.16712
 Alpha  occ. eigenvalues --  -10.16708 -10.16677 -10.16104 -10.14847 -10.14617
 Alpha  occ. eigenvalues --  -10.14074 -10.13779 -10.12032  -8.67543  -6.50014
 Alpha  occ. eigenvalues --   -6.48816  -6.48807  -2.60406  -2.60049  -2.60043
 Alpha  occ. eigenvalues --   -2.59090  -2.59090  -0.93950  -0.82756  -0.81101
 Alpha  occ. eigenvalues --   -0.76943  -0.71776  -0.68732  -0.63553  -0.62385
 Alpha  occ. eigenvalues --   -0.60748  -0.56965  -0.51956  -0.49781  -0.47284
 Alpha  occ. eigenvalues --   -0.43926  -0.42946  -0.41057  -0.39927  -0.38617
 Alpha  occ. eigenvalues --   -0.36920  -0.35783  -0.35255  -0.34291  -0.32379
 Alpha  occ. eigenvalues --   -0.32273  -0.31365  -0.29230  -0.28922  -0.27728
 Alpha  occ. eigenvalues --   -0.26924  -0.25791  -0.25769  -0.24269  -0.23633
 Alpha  occ. eigenvalues --   -0.18790  -0.16941  -0.14679  -0.00525
 Alpha virt. eigenvalues --    0.20648   0.22758   0.24632   0.25193   0.26885
 Alpha virt. eigenvalues --    0.29174   0.30146   0.30408   0.32142   0.32254
 Alpha virt. eigenvalues --    0.34550   0.35110   0.35917   0.36267   0.37273
 Alpha virt. eigenvalues --    0.40339   0.41592   0.41654   0.44039   0.46341
 Alpha virt. eigenvalues --    0.47080   0.48274   0.50059   0.51680   0.52602
 Alpha virt. eigenvalues --    0.53029   0.55782   0.58692   0.58924   0.60789
 Alpha virt. eigenvalues --    0.61207   0.63966   0.65063   0.65217   0.66047
 Alpha virt. eigenvalues --    0.66190   0.66420   0.69102   0.69725   0.71916
 Alpha virt. eigenvalues --    0.72263   0.72291   0.72902   0.74390   0.75612
 Alpha virt. eigenvalues --    0.76308   0.76479   0.77257   0.78173   0.80129
 Alpha virt. eigenvalues --    0.81008   0.81563   0.83051   0.84605   0.84715
 Alpha virt. eigenvalues --    0.85410   0.86467   0.86517   0.86764   0.87295
 Alpha virt. eigenvalues --    0.87698   0.88480   0.89331   0.89709   0.90267
 Alpha virt. eigenvalues --    0.90541   0.91532   0.92013   0.93539   0.94658
 Alpha virt. eigenvalues --    0.95362   0.96149   0.97768   0.98120   0.98163
 Alpha virt. eigenvalues --    0.99741   1.00996   1.01537   1.05729   1.05832
 Alpha virt. eigenvalues --    1.07058   1.09898   1.11321   1.13864   1.16776
 Alpha virt. eigenvalues --    1.19329   1.20201   1.24049   1.26474   1.30445
 Alpha virt. eigenvalues --    1.32635   1.34544   1.35872   1.42052   1.42549
 Alpha virt. eigenvalues --    1.43353   1.46339   1.47259   1.49194   1.49454
 Alpha virt. eigenvalues --    1.50166   1.50885   1.53518   1.55141   1.55282
 Alpha virt. eigenvalues --    1.64103   1.64482   1.68226   1.69705   1.71671
 Alpha virt. eigenvalues --    1.72413   1.77500   1.78905   1.82925   1.86059
 Alpha virt. eigenvalues --    1.87999   1.92964   1.93507   1.94035   1.94910
 Alpha virt. eigenvalues --    1.95192   1.96158   1.96722   1.98017   1.98799
 Alpha virt. eigenvalues --    1.99193   2.00735   2.01893   2.02626   2.05370
 Alpha virt. eigenvalues --    2.05474   2.06254   2.07968   2.08851   2.10105
 Alpha virt. eigenvalues --    2.10404   2.11998   2.13437   2.15210   2.15214
 Alpha virt. eigenvalues --    2.18256   2.22574   2.22941   2.23788   2.23800
 Alpha virt. eigenvalues --    2.25117   2.26561   2.29822   2.30556   2.35131
 Alpha virt. eigenvalues --    2.36343   2.38596   2.38686   2.40481   2.43630
 Alpha virt. eigenvalues --    2.48476   2.50585   2.50972   2.52217   2.53766
 Alpha virt. eigenvalues --    2.55893   2.57501   2.59239   2.60359   2.63480
 Alpha virt. eigenvalues --    2.65792   2.66944   2.71487   2.72093   2.75504
 Alpha virt. eigenvalues --    2.76657   2.80772   2.86070   2.86252   2.87909
 Alpha virt. eigenvalues --    2.88189   2.91579   2.95008   2.97062   2.98361
 Alpha virt. eigenvalues --    3.00344   3.01776   3.04334   3.04497   3.05477
 Alpha virt. eigenvalues --    3.09701   3.11203   3.12773   3.17133   3.17222
 Alpha virt. eigenvalues --    3.21439   3.22211   3.27339   3.31429   3.34752
 Alpha virt. eigenvalues --    3.41110   3.46115   3.66028   3.69407   3.70207
 Alpha virt. eigenvalues --    3.74218   3.82371   3.86554   3.94630   4.06571
  Beta  occ. eigenvalues -- -482.92372 -62.50587 -56.31330 -56.31013 -56.31007
  Beta  occ. eigenvalues --  -19.03558 -10.20025 -10.17917 -10.17078 -10.16681
  Beta  occ. eigenvalues --  -10.16662 -10.16660 -10.16142 -10.14771 -10.14598
  Beta  occ. eigenvalues --  -10.13712 -10.13486 -10.11951  -8.67544  -6.50011
  Beta  occ. eigenvalues --   -6.48822  -6.48808  -2.60405  -2.60052  -2.60042
  Beta  occ. eigenvalues --   -2.59093  -2.59092  -0.92881  -0.82544  -0.80867
  Beta  occ. eigenvalues --   -0.76810  -0.71500  -0.68093  -0.63305  -0.62290
  Beta  occ. eigenvalues --   -0.60277  -0.56340  -0.51717  -0.49491  -0.47113
  Beta  occ. eigenvalues --   -0.43845  -0.42810  -0.40520  -0.39658  -0.38300
  Beta  occ. eigenvalues --   -0.36621  -0.35563  -0.34783  -0.34215  -0.32001
  Beta  occ. eigenvalues --   -0.31611  -0.30729  -0.28874  -0.27676  -0.27536
  Beta  occ. eigenvalues --   -0.26737  -0.25672  -0.25471  -0.23588  -0.23037
  Beta  occ. eigenvalues --   -0.16393  -0.15305  -0.14118
  Beta virt. eigenvalues --    0.19472   0.20996   0.22611   0.24635   0.26916
  Beta virt. eigenvalues --    0.28628   0.29175   0.30461   0.30541   0.32353
  Beta virt. eigenvalues --    0.32881   0.34650   0.35275   0.35979   0.36667
  Beta virt. eigenvalues --    0.37310   0.40488   0.41655   0.43211   0.44183
  Beta virt. eigenvalues --    0.46691   0.47160   0.48651   0.50385   0.51808
  Beta virt. eigenvalues --    0.52705   0.53132   0.55967   0.58846   0.59053
  Beta virt. eigenvalues --    0.60979   0.61360   0.64063   0.65321   0.65519
  Beta virt. eigenvalues --    0.66310   0.66370   0.66767   0.69465   0.69769
  Beta virt. eigenvalues --    0.72013   0.72396   0.72695   0.73168   0.74556
  Beta virt. eigenvalues --    0.75706   0.76588   0.76924   0.77440   0.78410
  Beta virt. eigenvalues --    0.80230   0.81251   0.82017   0.83107   0.84685
  Beta virt. eigenvalues --    0.84885   0.85525   0.86529   0.86833   0.87026
  Beta virt. eigenvalues --    0.87391   0.87806   0.88550   0.89584   0.89845
  Beta virt. eigenvalues --    0.90505   0.90811   0.91619   0.92298   0.93761
  Beta virt. eigenvalues --    0.94861   0.95529   0.96563   0.97952   0.98257
  Beta virt. eigenvalues --    0.98330   0.99963   1.01114   1.01772   1.05863
  Beta virt. eigenvalues --    1.05931   1.07252   1.10002   1.11401   1.14087
  Beta virt. eigenvalues --    1.16888   1.19463   1.20610   1.24147   1.26565
  Beta virt. eigenvalues --    1.30551   1.32700   1.35830   1.36011   1.42198
  Beta virt. eigenvalues --    1.42637   1.43812   1.46416   1.47963   1.49566
  Beta virt. eigenvalues --    1.49587   1.50571   1.51027   1.54137   1.55384
  Beta virt. eigenvalues --    1.55399   1.64217   1.65146   1.68292   1.69803
  Beta virt. eigenvalues --    1.71856   1.72756   1.77762   1.79140   1.82978
  Beta virt. eigenvalues --    1.86252   1.88280   1.93044   1.93726   1.94219
  Beta virt. eigenvalues --    1.94970   1.95334   1.96216   1.96944   1.98151
  Beta virt. eigenvalues --    1.98984   1.99678   2.00971   2.02038   2.02896
  Beta virt. eigenvalues --    2.05438   2.05761   2.06423   2.08218   2.09049
  Beta virt. eigenvalues --    2.10179   2.10476   2.12124   2.13733   2.15371
  Beta virt. eigenvalues --    2.15613   2.18467   2.22758   2.23493   2.23965
  Beta virt. eigenvalues --    2.24381   2.25302   2.26609   2.30048   2.30719
  Beta virt. eigenvalues --    2.35641   2.36426   2.38571   2.39016   2.41005
  Beta virt. eigenvalues --    2.43701   2.48784   2.50697   2.51292   2.52936
  Beta virt. eigenvalues --    2.54231   2.56053   2.58100   2.59319   2.61094
  Beta virt. eigenvalues --    2.63705   2.65905   2.67271   2.71640   2.72300
  Beta virt. eigenvalues --    2.75865   2.76911   2.81223   2.86445   2.86591
  Beta virt. eigenvalues --    2.88144   2.88977   2.91904   2.95325   2.97219
  Beta virt. eigenvalues --    2.98495   3.01671   3.02373   3.04432   3.04705
  Beta virt. eigenvalues --    3.06194   3.09895   3.11402   3.12941   3.17298
  Beta virt. eigenvalues --    3.17337   3.21577   3.22266   3.27634   3.31688
  Beta virt. eigenvalues --    3.34838   3.41353   3.47792   3.66022   3.69489
  Beta virt. eigenvalues --    3.70443   3.74205   3.82654   3.86565   3.95352
  Beta virt. eigenvalues --    4.06570
          Condensed to atoms (all electrons):
               1          2          3          4          5          6
     1  O    7.718175   0.782476  -0.131364   0.014502   0.000915  -0.000000
     2  C    0.782476   4.907042   0.278127  -0.093394   0.021889  -0.000121
     3  C   -0.131364   0.278127   5.698289   0.238628   0.081793   0.002393
     4  C    0.014502  -0.093394   0.238628   5.289232   0.275031  -0.059708
     5  C    0.000915   0.021889   0.081793   0.275031   5.349788   0.184032
     6  Br  -0.000000  -0.000121   0.002393  -0.059708   0.184032  35.086481
     7  C   -0.000014  -0.000004  -0.112186   0.030297   0.314502  -0.055581
     8  C   -0.000091   0.012964   0.021771  -0.090301   0.076210   0.002958
     9  C    0.002771  -0.036612   0.283443  -0.004636  -0.152728   0.000977
    10  C    0.006870  -0.030948  -0.086961   0.012449   0.001071   0.000018
    11  C   -0.153100   0.105982  -0.200904   0.028837  -0.000466   0.000001
    12  C    0.011217  -0.016201   0.009672  -0.000496  -0.000003  -0.000000
    13  C   -0.004097  -0.005540  -0.003739   0.000080   0.000000   0.000000
    14  C    0.011220  -0.016156   0.009653  -0.000496  -0.000003  -0.000000
    15  H    0.009887  -0.012287  -0.064933   0.440717  -0.085447  -0.001213
    16  H   -0.000000  -0.000016  -0.001419   0.014200  -0.077784  -0.002115
    17  H    0.000001  -0.000790   0.017687  -0.001749   0.016301  -0.000200
    18  H   -0.000113  -0.000944   0.002058  -0.000498   0.000112  -0.000000
    19  H   -0.000113  -0.000938   0.002053  -0.000499   0.000112  -0.000000
    20  H   -0.000116   0.001656   0.001423  -0.000027  -0.000001   0.000000
    21  H    0.016860  -0.007116   0.004161  -0.000083  -0.000004  -0.000000
    22  H    0.000121   0.000141   0.000086  -0.000001  -0.000000  -0.000000
    23  H   -0.000013   0.000029  -0.000076  -0.000001   0.000000  -0.000000
    24  H   -0.000116   0.001655   0.001424  -0.000027  -0.000001   0.000000
    25  H    0.016868  -0.007116   0.004160  -0.000083  -0.000004  -0.000000
               7          8          9         10         11         12
     1  O   -0.000014  -0.000091   0.002771   0.006870  -0.153100   0.011217
     2  C   -0.000004   0.012964  -0.036612  -0.030948   0.105982  -0.016201
     3  C   -0.112186   0.021771   0.283443  -0.086961  -0.200904   0.009672
     4  C    0.030297  -0.090301  -0.004636   0.012449   0.028837  -0.000496
     5  C    0.314502   0.076210  -0.152728   0.001071  -0.000466  -0.000003
     6  Br  -0.055581   0.002958   0.000977   0.000018   0.000001  -0.000000
     7  C    5.159173   0.289993   0.069733   0.011973  -0.001279   0.000009
     8  C    0.289993   5.091659   0.386853  -0.087612   0.008113  -0.000065
     9  C    0.069733   0.386853   5.332236   0.320445  -0.067678   0.005072
    10  C    0.011973  -0.087612   0.320445   4.903233   0.156505  -0.037117
    11  C   -0.001279   0.008113  -0.067678   0.156505   6.301700   0.232672
    12  C    0.000009  -0.000065   0.005072  -0.037117   0.232672   4.888805
    13  C   -0.000001   0.000029  -0.000451  -0.002047  -0.084727   0.359088
    14  C    0.000009  -0.000065   0.005073  -0.037096   0.232646  -0.235179
    15  H    0.012564  -0.001287   0.017087  -0.001021   0.002682  -0.000038
    16  H    0.431609  -0.061473   0.015537  -0.000445   0.000029  -0.000000
    17  H   -0.082717   0.446420  -0.079478  -0.020051   0.001287  -0.000026
    18  H   -0.000436  -0.002816   0.005691   0.309339   0.007489  -0.011900
    19  H   -0.000435  -0.002817   0.005689   0.309352   0.007480   0.003467
    20  H    0.000003  -0.000151  -0.000242  -0.014968  -0.005447   0.341205
    21  H    0.000001   0.000033  -0.000593   0.009828  -0.030798   0.352365
    22  H    0.000000  -0.000001   0.000007  -0.001077   0.000114   0.005807
    23  H    0.000000   0.000011   0.000168   0.005096   0.001568  -0.017470
    24  H    0.000003  -0.000151  -0.000243  -0.014969  -0.005449   0.016995
    25  H    0.000001   0.000033  -0.000593   0.009829  -0.030802   0.003940
              13         14         15         16         17         18
     1  O   -0.004097   0.011220   0.009887  -0.000000   0.000001  -0.000113
     2  C   -0.005540  -0.016156  -0.012287  -0.000016  -0.000790  -0.000944
     3  C   -0.003739   0.009653  -0.064933  -0.001419   0.017687   0.002058
     4  C    0.000080  -0.000496   0.440717   0.014200  -0.001749  -0.000498
     5  C    0.000000  -0.000003  -0.085447  -0.077784   0.016301   0.000112
     6  Br   0.000000  -0.000000  -0.001213  -0.002115  -0.000200  -0.000000
     7  C   -0.000001   0.000009   0.012564   0.431609  -0.082717  -0.000436
     8  C    0.000029  -0.000065  -0.001287  -0.061473   0.446420  -0.002816
     9  C   -0.000451   0.005073   0.017087   0.015537  -0.079478   0.005691
    10  C   -0.002047  -0.037096  -0.001021  -0.000445  -0.020051   0.309339
    11  C   -0.084727   0.232646   0.002682   0.000029   0.001287   0.007489
    12  C    0.359088  -0.235179  -0.000038  -0.000000  -0.000026  -0.011900
    13  C    4.807626   0.359111   0.000004   0.000000   0.000003  -0.000185
    14  C    0.359111   4.888749  -0.000038  -0.000000  -0.000026   0.003466
    15  H    0.000004  -0.000038   0.714453  -0.000256   0.000050   0.000024
    16  H    0.000000  -0.000000  -0.000256   0.743291  -0.014163   0.000008
    17  H    0.000003  -0.000026   0.000050  -0.014163   0.771401   0.003082
    18  H   -0.000185   0.003466   0.000024   0.000008   0.003082   0.710011
    19  H   -0.000186  -0.011899   0.000024   0.000008   0.003082  -0.023847
    20  H   -0.012691   0.016993   0.000001  -0.000000   0.000003   0.006654
    21  H   -0.019692   0.003941  -0.000043   0.000000  -0.000002   0.000184
    22  H    0.326166   0.005806  -0.000000  -0.000000  -0.000000   0.000023
    23  H    0.353664  -0.017472   0.000000  -0.000000   0.000000  -0.000323
    24  H   -0.012695   0.341210   0.000001  -0.000000   0.000003   0.000288
    25  H   -0.019693   0.352367  -0.000043   0.000000  -0.000002  -0.000582
              19         20         21         22         23         24
     1  O   -0.000113  -0.000116   0.016860   0.000121  -0.000013  -0.000116
     2  C   -0.000938   0.001656  -0.007116   0.000141   0.000029   0.001655
     3  C    0.002053   0.001423   0.004161   0.000086  -0.000076   0.001424
     4  C   -0.000499  -0.000027  -0.000083  -0.000001  -0.000001  -0.000027
     5  C    0.000112  -0.000001  -0.000004  -0.000000   0.000000  -0.000001
     6  Br  -0.000000   0.000000  -0.000000  -0.000000  -0.000000   0.000000
     7  C   -0.000435   0.000003   0.000001   0.000000   0.000000   0.000003
     8  C   -0.002817  -0.000151   0.000033  -0.000001   0.000011  -0.000151
     9  C    0.005689  -0.000242  -0.000593   0.000007   0.000168  -0.000243
    10  C    0.309352  -0.014968   0.009828  -0.001077   0.005096  -0.014969
    11  C    0.007480  -0.005447  -0.030798   0.000114   0.001568  -0.005449
    12  C    0.003467   0.341205   0.352365   0.005807  -0.017470   0.016995
    13  C   -0.000186  -0.012691  -0.019692   0.326166   0.353664  -0.012695
    14  C   -0.011899   0.016993   0.003941   0.005806  -0.017472   0.341210
    15  H    0.000024   0.000001  -0.000043  -0.000000   0.000000   0.000001
    16  H    0.000008  -0.000000   0.000000  -0.000000  -0.000000  -0.000000
    17  H    0.003082   0.000003  -0.000002  -0.000000   0.000000   0.000003
    18  H   -0.023847   0.006654   0.000184   0.000023  -0.000323   0.000288
    19  H    0.710005   0.000288  -0.000582   0.000023  -0.000323   0.006653
    20  H    0.000288   0.715456  -0.028813   0.003346  -0.014141  -0.001072
    21  H   -0.000582  -0.028813   0.686140  -0.013243   0.007325  -0.001007
    22  H    0.000023   0.003346  -0.013243   0.727651  -0.037606   0.003347
    23  H   -0.000323  -0.014141   0.007325  -0.037606   0.725863  -0.014141
    24  H    0.006653  -0.001072  -0.001007   0.003347  -0.014141   0.715454
    25  H    0.000183  -0.001007   0.006648  -0.013243   0.007325  -0.028813
              25
     1  O    0.016868
     2  C   -0.007116
     3  C    0.004160
     4  C   -0.000083
     5  C   -0.000004
     6  Br  -0.000000
     7  C    0.000001
     8  C    0.000033
     9  C   -0.000593
    10  C    0.009829
    11  C   -0.030802
    12  C    0.003940
    13  C   -0.019693
    14  C    0.352367
    15  H   -0.000043
    16  H    0.000000
    17  H   -0.000002
    18  H   -0.000582
    19  H    0.000183
    20  H   -0.001007
    21  H    0.006648
    22  H   -0.013243
    23  H    0.007325
    24  H   -0.028813
    25  H    0.686135
          Atomic-Atomic Spin Densities.
               1          2          3          4          5          6
     1  O    0.301753  -0.091056  -0.010656   0.003239  -0.000005  -0.000000
     2  C   -0.091056   0.214177   0.097473  -0.018276  -0.000333   0.000001
     3  C   -0.010656   0.097473   0.180142  -0.118880   0.000813   0.000171
     4  C    0.003239  -0.018276  -0.118880   0.396400   0.010314  -0.002144
     5  C   -0.000005  -0.000333   0.000813   0.010314  -0.151545   0.011106
     6  Br  -0.000000   0.000001   0.000171  -0.002144   0.011106  -0.008589
     7  C   -0.000008   0.000542   0.012714  -0.025472  -0.013971  -0.001665
     8  C    0.000024  -0.001522  -0.012839   0.008852   0.003130   0.000079
     9  C    0.000655  -0.018369  -0.076571   0.016881   0.002331  -0.000030
    10  C   -0.000202  -0.000119   0.007030  -0.000306  -0.000071  -0.000001
    11  C   -0.003910   0.044476   0.003933  -0.001041  -0.000028   0.000000
    12  C    0.003327  -0.017080  -0.003684   0.000221   0.000001  -0.000000
    13  C   -0.000043   0.001141   0.000031  -0.000001  -0.000000  -0.000000
    14  C    0.003332  -0.017022  -0.003703   0.000220   0.000001  -0.000000
    15  H   -0.000204   0.000124  -0.001426   0.006396  -0.000387   0.000225
    16  H    0.000000   0.000001  -0.000056  -0.000217  -0.000903   0.000393
    17  H    0.000000  -0.000004  -0.000058  -0.000021   0.000024   0.000002
    18  H    0.000006  -0.000018   0.000072   0.000017  -0.000005   0.000000
    19  H    0.000006  -0.000017   0.000072   0.000017  -0.000005   0.000000
    20  H   -0.000233   0.001690   0.000521  -0.000031  -0.000000   0.000000
    21  H    0.000177  -0.001954  -0.000172   0.000015   0.000000   0.000000
    22  H   -0.000003  -0.000025   0.000000   0.000000  -0.000000   0.000000
    23  H    0.000000  -0.000016   0.000003  -0.000000  -0.000000   0.000000
    24  H   -0.000233   0.001686   0.000522  -0.000031  -0.000000   0.000000
    25  H    0.000178  -0.001953  -0.000173   0.000015   0.000000   0.000000
               7          8          9         10         11         12
     1  O   -0.000008   0.000024   0.000655  -0.000202  -0.003910   0.003327
     2  C    0.000542  -0.001522  -0.018369  -0.000119   0.044476  -0.017080
     3  C    0.012714  -0.012839  -0.076571   0.007030   0.003933  -0.003684
     4  C   -0.025472   0.008852   0.016881  -0.000306  -0.001041   0.000221
     5  C   -0.013971   0.003130   0.002331  -0.000071  -0.000028   0.000001
     6  Br  -0.001665   0.000079  -0.000030  -0.000001   0.000000  -0.000000
     7  C    0.467687  -0.104343  -0.016417   0.000440   0.000122  -0.000014
     8  C   -0.104343   0.062077   0.055738  -0.000960  -0.001157   0.000161
     9  C   -0.016417   0.055738   0.094573  -0.001299  -0.005000   0.001998
    10  C    0.000440  -0.000960  -0.001299  -0.013733   0.008825  -0.001529
    11  C    0.000122  -0.001157  -0.005000   0.008825  -0.010959  -0.028529
    12  C   -0.000014   0.000161   0.001998  -0.001529  -0.028529   0.161698
    13  C    0.000000  -0.000002   0.000030  -0.000040   0.003115  -0.004740
    14  C   -0.000014   0.000161   0.002001  -0.001503  -0.028597  -0.084673
    15  H   -0.000162   0.000015  -0.000196   0.000004  -0.000050   0.000001
    16  H    0.006935  -0.000896  -0.000202   0.000012  -0.000001   0.000000
    17  H   -0.001128   0.002979  -0.000807   0.000187  -0.000011   0.000001
    18  H   -0.000007  -0.000151   0.000151   0.001008   0.000133   0.000265
    19  H   -0.000007  -0.000151   0.000151   0.001008   0.000133  -0.000230
    20  H    0.000004  -0.000052  -0.000470   0.000482   0.005426  -0.015652
    21  H   -0.000000   0.000001   0.000008  -0.000010   0.000876   0.003800
    22  H   -0.000000  -0.000000  -0.000001   0.000006  -0.000003  -0.000035
    23  H   -0.000000   0.000000  -0.000003   0.000012  -0.000067   0.000028
    24  H    0.000004  -0.000052  -0.000471   0.000480   0.005431   0.004379
    25  H   -0.000000   0.000001   0.000008  -0.000010   0.000874  -0.001952
              13         14         15         16         17         18
     1  O   -0.000043   0.003332  -0.000204   0.000000   0.000000   0.000006
     2  C    0.001141  -0.017022   0.000124   0.000001  -0.000004  -0.000018
     3  C    0.000031  -0.003703  -0.001426  -0.000056  -0.000058   0.000072
     4  C   -0.000001   0.000220   0.006396  -0.000217  -0.000021   0.000017
     5  C   -0.000000   0.000001  -0.000387  -0.000903   0.000024  -0.000005
     6  Br  -0.000000  -0.000000   0.000225   0.000393   0.000002   0.000000
     7  C    0.000000  -0.000014  -0.000162   0.006935  -0.001128  -0.000007
     8  C   -0.000002   0.000161   0.000015  -0.000896   0.002979  -0.000151
     9  C    0.000030   0.002001  -0.000196  -0.000202  -0.000807   0.000151
    10  C   -0.000040  -0.001503   0.000004   0.000012   0.000187   0.001008
    11  C    0.003115  -0.028597  -0.000050  -0.000001  -0.000011   0.000133
    12  C   -0.004740  -0.084673   0.000001   0.000000   0.000001   0.000265
    13  C    0.003208  -0.004728  -0.000000   0.000000  -0.000000  -0.000027
    14  C   -0.004728   0.161684   0.000001   0.000000   0.000001  -0.000231
    15  H   -0.000000   0.000001  -0.017766   0.000006  -0.000001  -0.000000
    16  H    0.000000   0.000000   0.000006  -0.021702   0.000300  -0.000000
    17  H   -0.000000   0.000001  -0.000001   0.000300  -0.003451  -0.000018
    18  H   -0.000027  -0.000231  -0.000000  -0.000000  -0.000018  -0.002231
    19  H   -0.000027   0.000264  -0.000000  -0.000000  -0.000018   0.000662
    20  H    0.001956   0.004378  -0.000000  -0.000000   0.000000  -0.000079
    21  H    0.000054  -0.001950   0.000002  -0.000000   0.000000  -0.000003
    22  H    0.000519  -0.000035   0.000000  -0.000000   0.000000   0.000001
    23  H    0.000027   0.000026  -0.000000   0.000000  -0.000000   0.000001
    24  H    0.001955  -0.015654  -0.000000  -0.000000   0.000000   0.000029
    25  H    0.000054   0.003804   0.000002  -0.000000   0.000000   0.000006
              19         20         21         22         23         24
     1  O    0.000006  -0.000233   0.000177  -0.000003   0.000000  -0.000233
     2  C   -0.000017   0.001690  -0.001954  -0.000025  -0.000016   0.001686
     3  C    0.000072   0.000521  -0.000172   0.000000   0.000003   0.000522
     4  C    0.000017  -0.000031   0.000015   0.000000  -0.000000  -0.000031
     5  C   -0.000005  -0.000000   0.000000  -0.000000  -0.000000  -0.000000
     6  Br   0.000000   0.000000   0.000000   0.000000   0.000000   0.000000
     7  C   -0.000007   0.000004  -0.000000  -0.000000  -0.000000   0.000004
     8  C   -0.000151  -0.000052   0.000001  -0.000000   0.000000  -0.000052
     9  C    0.000151  -0.000470   0.000008  -0.000001  -0.000003  -0.000471
    10  C    0.001008   0.000482  -0.000010   0.000006   0.000012   0.000480
    11  C    0.000133   0.005426   0.000876  -0.000003  -0.000067   0.005431
    12  C   -0.000230  -0.015652   0.003800  -0.000035   0.000028   0.004379
    13  C   -0.000027   0.001956   0.000054   0.000519   0.000027   0.001955
    14  C    0.000264   0.004378  -0.001950  -0.000035   0.000026  -0.015654
    15  H   -0.000000  -0.000000   0.000002   0.000000  -0.000000  -0.000000
    16  H   -0.000000  -0.000000  -0.000000  -0.000000   0.000000  -0.000000
    17  H   -0.000018   0.000000   0.000000   0.000000  -0.000000   0.000000
    18  H    0.000662  -0.000079  -0.000003   0.000001   0.000001   0.000029
    19  H   -0.002231   0.000029   0.000006   0.000001   0.000001  -0.000079
    20  H    0.000029   0.004430  -0.000682  -0.000012   0.000026  -0.000181
    21  H    0.000006  -0.000682  -0.002108  -0.000056  -0.000005   0.000073
    22  H    0.000001  -0.000012  -0.000056  -0.000591  -0.000027  -0.000012
    23  H    0.000001   0.000026  -0.000005  -0.000027  -0.000053   0.000027
    24  H   -0.000079  -0.000181   0.000073  -0.000012   0.000027   0.004432
    25  H   -0.000003   0.000074  -0.000152  -0.000056  -0.000005  -0.000683
              25
     1  O    0.000178
     2  C   -0.001953
     3  C   -0.000173
     4  C    0.000015
     5  C    0.000000
     6  Br   0.000000
     7  C   -0.000000
     8  C    0.000001
     9  C    0.000008
    10  C   -0.000010
    11  C    0.000874
    12  C   -0.001952
    13  C    0.000054
    14  C    0.003804
    15  H    0.000002
    16  H   -0.000000
    17  H    0.000000
    18  H    0.000006
    19  H   -0.000003
    20  H    0.000074
    21  H   -0.000152
    22  H   -0.000056
    23  H   -0.000005
    24  H   -0.000683
    25  H   -0.002107
 Mulliken charges and spin densities:
               1          2
     1  O   -0.302747   0.206145
     2  C    0.116224   0.193548
     3  C   -0.055241   0.075281
     4  C   -0.091974   0.276167
     5  C   -0.005316  -0.139534
     6  Br  -0.157920  -0.000452
     7  C   -0.067218   0.325240
     8  C   -0.090215   0.011094
     9  C   -0.107531   0.054689
    10  C    0.278304  -0.000288
    11  C   -0.506455  -0.006010
    12  C    0.088180   0.017761
    13  C   -0.040028   0.002481
    14  C    0.088186   0.017763
    15  H   -0.030890  -0.013420
    16  H   -0.047009  -0.016331
    17  H   -0.060118  -0.002024
    18  H   -0.006783  -0.000418
    19  H   -0.006781  -0.000418
    20  H   -0.008353   0.001622
    21  H    0.014491  -0.002081
    22  H   -0.007465  -0.000331
    23  H    0.000518  -0.000026
    24  H   -0.008351   0.001623
    25  H    0.014493  -0.002081
 Sum of Mulliken charges =  -1.00000   1.00000
 Mulliken charges and spin densities with hydrogens summed into heavy atoms:
               1          2
     1  O   -0.302747   0.206145
     2  C    0.116224   0.193548
     3  C   -0.055241   0.075281
     4  C   -0.122863   0.262747
     5  C   -0.005316  -0.139534
     6  Br  -0.157920  -0.000452
     7  C   -0.114227   0.308909
     8  C   -0.150333   0.009070
     9  C   -0.107531   0.054689
    10  C    0.264740  -0.001124
    11  C   -0.506455  -0.006010
    12  C    0.094318   0.017303
    13  C   -0.046976   0.002124
    14  C    0.094327   0.017305
 Electronic spatial extent (au):  <R**2>=           4916.8267
 Charge=             -1.0000 electrons
 Dipole moment (field-independent basis, Debye):
    X=              0.3999    Y=              3.0740    Z=              0.0000  Tot=              3.0999
 Quadrupole moment (field-independent basis, Debye-Ang):
   XX=           -128.1285   YY=           -110.1695   ZZ=           -101.0121
   XY=             -7.9007   XZ=              0.0001   YZ=              0.0002
 Traceless Quadrupole moment (field-independent basis, Debye-Ang):
   XX=            -15.0251   YY=              2.9339   ZZ=             12.0913
   XY=             -7.9007   XZ=              0.0001   YZ=              0.0002
 Octapole moment (field-independent basis, Debye-Ang**2):
  XXX=            144.2343  YYY=             -0.0491  ZZZ=              0.0009  XYY=             56.7803
  XXY=              3.3016  XXZ=             -0.0000  XZZ=             39.6983  YZZ=             -9.8803
  YYZ=              0.0002  XYZ=             -0.0002
 Hexadecapole moment (field-independent basis, Debye-Ang**3):
 XXXX=          -5423.7675 YYYY=           -872.0132 ZZZZ=           -248.9178 XXXY=            -48.6695
 XXXZ=              0.0025 YYYX=            -83.8070 YYYZ=              0.0006 ZZZX=              0.0011
 ZZZY=             -0.0002 XXYY=           -985.9323 XXZZ=           -896.7503 YYZZ=           -181.0372
 XXYZ=              0.0010 YYXZ=              0.0010 ZZXY=            -16.7120
 N-N= 1.112144230362D+03 E-N=-9.645743231076D+03  KE= 3.104153656527D+03
 There are a total of      573256 grid points.
 ElSum from          density=      127.0000124137
 ElSum from atomic densities=      126.0000548761
 Hirshfeld populations at iteration   1 (CA, CB, DipXYZ):
               1          2          3          4          5
     1  O    4.286645   4.091069   0.017064   0.164666  -0.000001
     2  C    3.059865   2.889422  -0.039441   0.001461  -0.000011
     3  C    3.085125   2.988902   0.024492  -0.018878   0.000002
     4  C    3.133150   2.966736  -0.047022  -0.034549   0.000001
     5  C    2.997549   3.020881   0.083189  -0.020544   0.000002
     6  Br  17.563370  17.568095  -0.142873   0.035180  -0.000001
     7  C    3.162789   2.966284  -0.016159   0.020080   0.000000
     8  C    3.073403   3.025434   0.004810   0.041080   0.000003
     9  C    3.045012   2.982282  -0.074864   0.016415   0.000001
    10  C    3.032540   3.025577   0.008523  -0.020415  -0.000001
    11  C    3.007254   2.993667   0.004475   0.019211   0.000006
    12  C    3.039471   3.023489  -0.004052   0.001692  -0.000231
    13  C    3.034082   3.031458   0.007098  -0.014082  -0.000000
    14  C    3.039470   3.023488  -0.004050   0.001694   0.000233
    15  H    0.495683   0.483422   0.009524  -0.143186  -0.000003
    16  H    0.505995   0.491116   0.092070   0.105105   0.000003
    17  H    0.496526   0.492910  -0.021571   0.134892   0.000003
    18  H    0.491970   0.491094  -0.031961   0.070480  -0.103966
    19  H    0.491970   0.491093  -0.031958   0.070474   0.103971
    20  H    0.495629   0.494038   0.005822   0.074281  -0.102416
    21  H    0.488650   0.488328  -0.005804  -0.123374  -0.043374
    22  H    0.496055   0.495633  -0.095802  -0.085547   0.000001
    23  H    0.493523   0.493223  -0.037668   0.126245   0.000006
    24  H    0.495629   0.494037   0.005829   0.074274   0.102421
    25  H    0.488649   0.488328  -0.005805  -0.123374   0.043369
       Tot  64.000006  63.000007  -0.296133   0.373280   0.000014

 Dip from Atomic Chgs              0.453523   0.836108  -0.000008
         Total Dipole              0.157390   1.209388   0.000007

 Hirshfeld charges, spin densities, dipoles, and CM5 charges using IRadAn=      5:
              Q-H        S-H        Dx         Dy         Dz        Q-CM5   
     1  O   -0.377714   0.195576   0.017064   0.164666  -0.000001  -0.425965
     2  C    0.050713   0.170444  -0.039441   0.001461  -0.000011   0.083981
     3  C   -0.074028   0.096223   0.024492  -0.018878   0.000002  -0.076518
     4  C   -0.099886   0.166414  -0.047022  -0.034549   0.000001  -0.148687
     5  C   -0.018430  -0.023331   0.083189  -0.020544   0.000002  -0.039463
     6  Br  -0.131465  -0.004726  -0.142873   0.035180  -0.000001  -0.116338
     7  C   -0.129073   0.196505  -0.016159   0.020080   0.000000  -0.181617
     8  C   -0.098836   0.047969   0.004810   0.041080   0.000003  -0.150760
     9  C   -0.027294   0.062730  -0.074864   0.016415   0.000001  -0.037708
    10  C   -0.058117   0.006964   0.008523  -0.020415  -0.000001  -0.153262
    11  C   -0.000921   0.013588   0.004475   0.019211   0.000006  -0.017754
    12  C   -0.062960   0.015981  -0.004052   0.001692  -0.000231  -0.163840
    13  C   -0.065540   0.002624   0.007098  -0.014082  -0.000000  -0.170299
    14  C   -0.062959   0.015982  -0.004050   0.001694   0.000233  -0.163838
    15  H    0.020894   0.012261   0.009524  -0.143186  -0.000003   0.078348
    16  H    0.002889   0.014880   0.092070   0.105105   0.000003   0.058681
    17  H    0.010565   0.003616  -0.021571   0.134892   0.000003   0.065684
    18  H    0.016936   0.000877  -0.031961   0.070480  -0.103966   0.072122
    19  H    0.016937   0.000877  -0.031958   0.070474   0.103971   0.072123
    20  H    0.010333   0.001591   0.005822   0.074281  -0.102416   0.063448
    21  H    0.023022   0.000321  -0.005804  -0.123374  -0.043374   0.080287
    22  H    0.008312   0.000423  -0.095802  -0.085547   0.000001   0.060593
    23  H    0.013253   0.000300  -0.037668   0.126245   0.000006   0.067031
    24  H    0.010334   0.001591   0.005829   0.074274   0.102421   0.063449
    25  H    0.023023   0.000321  -0.005805  -0.123374   0.043369   0.080289
       Tot  -1.000012   0.999999  -0.296133   0.373280   0.000014  -1.000012
 Hirshfeld charges and spin densities with hydrogens summed into heavy atoms:
              Q-H        S-H       Q-CM5   
     1  O   -0.377714   0.195576  -0.425965
     2  C    0.050713   0.170444   0.083981
     3  C   -0.074028   0.096223  -0.076518
     4  C   -0.078991   0.178675  -0.070339
     5  C   -0.018430  -0.023331  -0.039463
     6  Br  -0.131465  -0.004726  -0.116338
     7  C   -0.126184   0.211384  -0.122936
     8  C   -0.088272   0.051586  -0.085076
     9  C   -0.027294   0.062730  -0.037708
    10  C   -0.024244   0.008717  -0.009017
    11  C   -0.000921   0.013588  -0.017754
    12  C   -0.029605   0.017894  -0.020104
    13  C   -0.043975   0.003347  -0.042675
    14  C   -0.029602   0.017894  -0.020100
 
 EQQ= 0.914046903266E-01 EQD=-0.273738187471E-01 EDD= 0.204322327105E-04
 EQQ+QD+DD= 0.640513038122E-01
 
                          Isotropic Fermi Contact Couplings
        Atom                 a.u.       MegaHertz       Gauss      10(-4) cm-1
     1  O(17)              0.08250     -50.01377     -17.84616     -16.68280
     2  C(13)              0.01876      21.09367       7.52675       7.03609
     3  C(13)             -0.00709      -7.97560      -2.84589      -2.66037
     4  C(13)              0.03944      44.33661      15.82040      14.78910
     5  C(13)             -0.04313     -48.48526     -17.30075     -16.17294
     6  Br(79)            -0.00406      -4.55780      -1.62634      -1.52032
     7  C(13)              0.05041      56.66826      20.22064      18.90250
     8  C(13)             -0.00904     -10.16019      -3.62541      -3.38908
     9  C(13)              0.00545       6.12629       2.18601       2.04351
    10  C(13)             -0.00254      -2.85725      -1.01954      -0.95308
    11  C(13)             -0.01709     -19.21506      -6.85641      -6.40946
    12  C(13)              0.03126      35.14292      12.53987      11.72242
    13  C(13)             -0.00172      -1.93144      -0.68919      -0.64426
    14  C(13)              0.03126      35.13822      12.53819      11.72085
    15  H(1)              -0.00381     -17.00944      -6.06939      -5.67374
    16  H(1)              -0.00450     -20.10664      -7.17455      -6.70685
    17  H(1)              -0.00058      -2.61075      -0.93158      -0.87085
    18  H(1)               0.00013       0.58765       0.20969       0.19602
    19  H(1)               0.00013       0.58828       0.20991       0.19623
    20  H(1)              -0.00032      -1.43384      -0.51163      -0.47828
    21  H(1)              -0.00041      -1.85188      -0.66080      -0.61772
    22  H(1)              -0.00007      -0.29304      -0.10456      -0.09775
    23  H(1)               0.00001       0.02325       0.00830       0.00776
    24  H(1)              -0.00032      -1.43369      -0.51158      -0.47823
    25  H(1)              -0.00041      -1.85209      -0.66087      -0.61779
 --------------------------------------------------------
       Center         ----  Spin Dipole Couplings  ----
                      3XX-RR        3YY-RR        3ZZ-RR
 --------------------------------------------------------
     1   Atom       -0.417194     -0.439649      0.856843
     2   Atom       -0.125376     -0.107471      0.232847
     3   Atom       -0.046376     -0.059639      0.106014
     4   Atom       -0.132815     -0.133327      0.266141
     5   Atom        0.051304      0.061400     -0.112704
     6   Atom        0.071200      0.015552     -0.086751
     7   Atom       -0.162007     -0.164928      0.326935
     8   Atom       -0.014702     -0.021240      0.035942
     9   Atom       -0.041018     -0.033700      0.074718
    10   Atom       -0.001401      0.002960     -0.001559
    11   Atom        0.007866     -0.000133     -0.007733
    12   Atom        0.010579     -0.009514     -0.001066
    13   Atom        0.002665     -0.002295     -0.000369
    14   Atom        0.010576     -0.009512     -0.001064
    15   Atom       -0.014370      0.016510     -0.002140
    16   Atom        0.002985     -0.003476      0.000491
    17   Atom       -0.003788      0.006787     -0.002999
    18   Atom        0.001367      0.001496     -0.002863
    19   Atom        0.001367      0.001496     -0.002862
    20   Atom        0.000596     -0.001712      0.001117
    21   Atom        0.003075     -0.001226     -0.001849
    22   Atom        0.002000     -0.001241     -0.000759
    23   Atom        0.001522     -0.000494     -0.001028
    24   Atom        0.000595     -0.001712      0.001117
    25   Atom        0.003075     -0.001226     -0.001849
 --------------------------------------------------------
                        XY            XZ            YZ
 --------------------------------------------------------
     1   Atom       -0.001080      0.000047      0.000108
     2   Atom        0.006500      0.000003     -0.000001
     3   Atom        0.004594     -0.000029     -0.000027
     4   Atom       -0.000010     -0.000007     -0.000004
     5   Atom        0.005075      0.000002      0.000004
     6   Atom       -0.020726      0.000004      0.000000
     7   Atom        0.006542     -0.000007     -0.000005
     8   Atom        0.000819      0.000003      0.000002
     9   Atom        0.005785      0.000000     -0.000005
    10   Atom       -0.002073     -0.000000      0.000001
    11   Atom       -0.002177      0.000001     -0.000000
    12   Atom        0.006732      0.017508      0.005842
    13   Atom       -0.000746     -0.000000      0.000000
    14   Atom        0.006735     -0.017509     -0.005845
    15   Atom       -0.006225     -0.000000      0.000000
    16   Atom        0.023686      0.000000      0.000000
    17   Atom       -0.000345      0.000000      0.000000
    18   Atom       -0.002256      0.001453     -0.001479
    19   Atom       -0.002256     -0.001453      0.001479
    20   Atom       -0.001136      0.002928     -0.002193
    21   Atom        0.000197      0.004018      0.000827
    22   Atom        0.000067     -0.000000     -0.000000
    23   Atom       -0.001324     -0.000000      0.000000
    24   Atom       -0.001136     -0.002928      0.002193
    25   Atom        0.000196     -0.004019     -0.000826
 --------------------------------------------------------


 ---------------------------------------------------------------------------------
              Anisotropic Spin Dipole Couplings in Principal Axis System
 ---------------------------------------------------------------------------------

       Atom             a.u.   MegaHertz   Gauss  10(-4) cm-1        Axes

              Baa    -0.4397    31.816    11.353    10.613  0.0479  0.9989 -0.0001
     1 O(17)  Bbb    -0.4171    30.184    10.770    10.068  0.9989 -0.0479 -0.0000
              Bcc     0.8568   -62.001   -22.123   -20.681  0.0000  0.0001  1.0000
 
              Baa    -0.1275   -17.107    -6.104    -5.706  0.9511 -0.3089 -0.0000
     2 C(13)  Bbb    -0.1054   -14.138    -5.045    -4.716  0.3089  0.9511 -0.0000
              Bcc     0.2328    31.246    11.149    10.422  0.0000 -0.0000  1.0000
 
              Baa    -0.0611    -8.196    -2.924    -2.734 -0.2983  0.9545  0.0001
     3 C(13)  Bbb    -0.0449    -6.031    -2.152    -2.012  0.9545  0.2983  0.0002
              Bcc     0.1060    14.226     5.076     4.745 -0.0002 -0.0002  1.0000
 
              Baa    -0.1333   -17.891    -6.384    -5.968  0.0196  0.9998  0.0000
     4 C(13)  Bbb    -0.1328   -17.822    -6.359    -5.945  0.9998 -0.0196  0.0000
              Bcc     0.2661    35.714    12.744    11.913 -0.0000 -0.0000  1.0000
 
              Baa    -0.1127   -15.124    -5.397    -5.045 -0.0000 -0.0000  1.0000
     5 C(13)  Bbb     0.0492     6.601     2.356     2.202  0.9234 -0.3839  0.0000
              Bcc     0.0635     8.522     3.041     2.843  0.3839  0.9234  0.0000
 
              Baa    -0.0868   -11.637    -4.152    -3.882 -0.0000 -0.0000  1.0000
     6 Br(79) Bbb     0.0087     1.164     0.416     0.388  0.3147  0.9492  0.0000
              Bcc     0.0781    10.472     3.737     3.493  0.9492 -0.3147  0.0000
 
              Baa    -0.1702   -22.835    -8.148    -7.617 -0.6253  0.7804 -0.0000
     7 C(13)  Bbb    -0.1568   -21.036    -7.506    -7.017  0.7804  0.6253  0.0000
              Bcc     0.3269    43.872    15.654    14.634 -0.0000 -0.0000  1.0000
 
              Baa    -0.0213    -2.864    -1.022    -0.955 -0.1224  0.9925 -0.0000
     8 C(13)  Bbb    -0.0146    -1.959    -0.699    -0.654  0.9925  0.1224 -0.0001
              Bcc     0.0359     4.823     1.721     1.609  0.0001  0.0000  1.0000
 
              Baa    -0.0442    -5.932    -2.117    -1.979  0.8759 -0.4824 -0.0000
     9 C(13)  Bbb    -0.0305    -4.095    -1.461    -1.366  0.4824  0.8759  0.0000
              Bcc     0.0747    10.026     3.578     3.344  0.0000 -0.0000  1.0000
 
              Baa    -0.0022    -0.299    -0.107    -0.100  0.9286  0.3710 -0.0004
    10 C(13)  Bbb    -0.0016    -0.209    -0.075    -0.070  0.0004  0.0000  1.0000
              Bcc     0.0038     0.508     0.181     0.170 -0.3710  0.9286  0.0001
 
              Baa    -0.0077    -1.038    -0.370    -0.346 -0.0001  0.0000  1.0000
    11 C(13)  Bbb    -0.0007    -0.092    -0.033    -0.031  0.2467  0.9691 -0.0000
              Bcc     0.0084     1.130     0.403     0.377  0.9691 -0.2467  0.0001
 
              Baa    -0.0140    -1.874    -0.669    -0.625 -0.4892 -0.3231  0.8101
    12 C(13)  Bbb    -0.0115    -1.542    -0.550    -0.514 -0.3839  0.9138  0.1327
              Bcc     0.0255     3.417     1.219     1.140  0.7831  0.2461  0.5711
 
              Baa    -0.0024    -0.323    -0.115    -0.108  0.1455  0.9894  0.0000
    13 C(13)  Bbb    -0.0004    -0.050    -0.018    -0.017  0.0001 -0.0000  1.0000
              Bcc     0.0028     0.372     0.133     0.124  0.9894 -0.1455 -0.0001
 
              Baa    -0.0140    -1.875    -0.669    -0.625  0.4892  0.3232  0.8101
    14 C(13)  Bbb    -0.0115    -1.542    -0.550    -0.514 -0.3840  0.9137 -0.1326
              Bcc     0.0255     3.417     1.219     1.140  0.7831  0.2462 -0.5711
 
              Baa    -0.0156    -8.311    -2.966    -2.772  0.9817  0.1904  0.0000
    15 H(1)   Bbb    -0.0021    -1.142    -0.407    -0.381 -0.0000 -0.0000  1.0000
              Bcc     0.0177     9.453     3.373     3.153 -0.1904  0.9817  0.0000
 
              Baa    -0.0242   -12.886    -4.598    -4.298 -0.6576  0.7534  0.0000
    16 H(1)   Bbb     0.0005     0.262     0.094     0.087 -0.0000 -0.0000  1.0000
              Bcc     0.0237    12.623     4.504     4.211  0.7534  0.6576  0.0000
 
              Baa    -0.0038    -2.027    -0.723    -0.676  0.9995  0.0326 -0.0002
    17 H(1)   Bbb    -0.0030    -1.600    -0.571    -0.534  0.0002 -0.0000  1.0000
              Bcc     0.0068     3.627     1.294     1.210 -0.0326  0.9995  0.0000
 
              Baa    -0.0035    -1.848    -0.659    -0.616 -0.1969  0.1968  0.9605
    18 H(1)   Bbb    -0.0008    -0.441    -0.157    -0.147  0.7160  0.6981  0.0037
              Bcc     0.0043     2.289     0.817     0.763 -0.6698  0.6884 -0.2784
 
              Baa    -0.0035    -1.848    -0.659    -0.616  0.1969 -0.1969  0.9604
    19 H(1)   Bbb    -0.0008    -0.441    -0.157    -0.147  0.7160  0.6981 -0.0037
              Bcc     0.0043     2.289     0.817     0.763 -0.6698  0.6884  0.2784
 
              Baa    -0.0030    -1.600    -0.571    -0.534 -0.2207  0.7869  0.5763
    20 H(1)   Bbb    -0.0017    -0.903    -0.322    -0.301  0.7635  0.5070 -0.4000
              Bcc     0.0047     2.504     0.893     0.835  0.6069 -0.3517  0.7127
 
              Baa    -0.0042    -2.258    -0.806    -0.753 -0.4673 -0.2059  0.8598
    21 H(1)   Bbb    -0.0011    -0.611    -0.218    -0.204 -0.1764  0.9747  0.1376
              Bcc     0.0054     2.869     1.024     0.957  0.8663  0.0874  0.4918
 
              Baa    -0.0012    -0.663    -0.237    -0.221 -0.0208  0.9998  0.0000
    22 H(1)   Bbb    -0.0008    -0.405    -0.145    -0.135  0.0000 -0.0000  1.0000
              Bcc     0.0020     1.068     0.381     0.356  0.9998  0.0208 -0.0000
 
              Baa    -0.0011    -0.613    -0.219    -0.205  0.4440  0.8960  0.0002
    23 H(1)   Bbb    -0.0010    -0.548    -0.196    -0.183 -0.0001 -0.0002  1.0000
              Bcc     0.0022     1.162     0.415     0.388  0.8960 -0.4440 -0.0000
 
              Baa    -0.0030    -1.600    -0.571    -0.534 -0.2208  0.7869 -0.5762
    24 H(1)   Bbb    -0.0017    -0.903    -0.322    -0.301  0.7635  0.5070  0.3999
              Bcc     0.0047     2.504     0.893     0.835 -0.6069  0.3516  0.7128
 
              Baa    -0.0042    -2.258    -0.806    -0.753  0.4674  0.2059  0.8598
    25 H(1)   Bbb    -0.0011    -0.611    -0.218    -0.204 -0.1763  0.9747 -0.1376
              Bcc     0.0054     2.869     1.024     0.957  0.8663  0.0873 -0.4918
 

 ---------------------------------------------------------------------------------

 Running external command "gaunbo6 R"
         input file       "/home/rpaton/arbr500/dzvp/fukui/Gau-1918235.EIn"
         output file      "/home/rpaton/arbr500/dzvp/fukui/Gau-1918235.EOu"
         message file     "/home/rpaton/arbr500/dzvp/fukui/Gau-1918235.EMs"
         fchk file        "/home/rpaton/arbr500/dzvp/fukui/Gau-1918235.EFC"
         mat. el file     "/home/rpaton/arbr500/dzvp/fukui/Gau-1918235.EUF"

 Writing WrtUnf unformatted file "/home/rpaton/arbr500/dzvp/fukui/Gau-1918235.EUF"
 Gaussian matrix elements                                         Version   2 NLab=11 Len12L=8 Len4L=8
 Write SHELL TO ATOM MAP                   from file      0 offset           0 length                 123 to matrix element file.
 Write SHELL TYPES                         from file      0 offset           0 length                 123 to matrix element file.
 Write NUMBER OF PRIMITIVES PER SHELL      from file      0 offset           0 length                 123 to matrix element file.
 Write PRIMITIVE EXPONENTS                 from file      0 offset           0 length                 241 to matrix element file.
 Write CONTRACTION COEFFICIENTS            from file      0 offset           0 length                 241 to matrix element file.
 Write P(S=P) CONTRACTION COEFFICIENTS     from file      0 offset           0 length                 241 to matrix element file.
 Write COORDINATES OF EACH SHELL           from file      0 offset           0 length                 369 to matrix element file.
 Write BONDS PER ATOM                      from file      0 offset           0 length                  25 to matrix element file.
 Write BONDED ATOMS                        from file      0 offset           0 length                  54 to matrix element file.
 Write BOND TYPES                          from file      0 offset           0 length                  54 to matrix element file.
 Write ONIOM CHARGE/MULT                   from file      0 offset           0 length                  32 to matrix element file.
 Write ONIOM ATOM LAYERS                   from file      0 offset           0 length                  25 to matrix element file.
 Write ONIOM ATOM MODIFIERS                from file      0 offset           0 length                  25 to matrix element file.
 Write ONIOM ATOM TYPES                    from file      0 offset           0 length                  25 to matrix element file.
 Write ONIOM LINK ATOMS                    from file      0 offset           0 length                  25 to matrix element file.
 Write ONIOM LINK CHARGES                  from file      0 offset           0 length                  25 to matrix element file.
 Write ONIOM LINK DISTANCES                from file      0 offset           0 length                 100 to matrix element file.
 Write SYMINF INTS                         from file      0 offset           0 length                  26 to matrix element file.
 Write ROTTR TO SO                         from file      0 offset           0 length                  12 to matrix element file.
 Write GAUSSIAN SCALARS                    from file    501 offset           0 to matrix element file.
 Write OPTIMIZATION FLAGS                  from file      0 offset           0 length                  25 to matrix element file.
 Write INTEGER ISO                         from file      0 offset           0 length                  25 to matrix element file.
 Write INTEGER SPIN                        from file      0 offset           0 length                  25 to matrix element file.
 Write REAL ZEFFECTIVE                     from file      0 offset           0 length                  25 to matrix element file.
 Write REAL QUADRUPOLEMOMENT               from file      0 offset           0 length                  25 to matrix element file.
 Write REAL GFACTOR                        from file      0 offset           0 length                  25 to matrix element file.
 Write REAL ZNUCLEAR                       from file      0 offset           0 length                  25 to matrix element file.
 Write MULLIKEN CHARGES                    from file      0 offset           0 length                  25 to matrix element file.
 Write TYPE 6 CHARGES                      from file      0 offset           0 length                  25 to matrix element file.
 Write TYPE 7 CHARGES                      from file      0 offset           0 length                  25 to matrix element file.
 Write NUCLEAR GRADIENT                    from file  10584 offset           0 length                  75 to matrix element file.
 Array NUCLEAR FORCE CONSTANTS              on  file  10585 does not exist.
 Write ELECTRIC DIPOLE MOMENT              from file      0 offset           0 length                   3 to matrix element file.
 Write NON-ADIABATIC COUPLING              from file  10810 offset           0 length                  75 to matrix element file.
 Write FINITE EM FIELD                     from file  10521 offset           0 length                  35 to matrix element file.
 Write OVERLAP                             from file  10514 offset           0 length               36315 to matrix element file.
 Write CORE HAMILTONIAN ALPHA              from file  10515 offset           0 length               36315 to matrix element file.
 Write CORE HAMILTONIAN BETA               from file  10515 offset       36315 length               36315 to matrix element file.
 Write KINETIC ENERGY                      from file  10516 offset           0 length               36315 to matrix element file.
 Write ORTHOGONAL BASIS                    from file  10685 offset           0 length               72361 to matrix element file.
 Write DIPOLE INTEGRALS                    from file  10518 offset           0 length              108945 to matrix element file.
 Array DIP VEL INTEGRALS                    on  file  10572 does not exist.
 Array R X DEL INTEGRALS                    on  file  10572 does not exist.
 Write ALPHA ORBITAL ENERGIES              from file      0 offset           0 length                 269 to matrix element file.
 Write BETA ORBITAL ENERGIES               from file      0 offset           0 length                 269 to matrix element file.
 Write ALPHA MO COEFFICIENTS               from file  10524 offset           0 length               72361 to matrix element file.
 Write BETA MO COEFFICIENTS                from file  10526 offset           0 length               72361 to matrix element file.
 Write ALPHA DENSITY MATRIX                from file      0 offset           0 length               36315 to matrix element file.
 Write BETA DENSITY MATRIX                 from file      0 offset           0 length               36315 to matrix element file.
 Write ALPHA FOCK MATRIX                   from file  10536 offset           0 length               36315 to matrix element file.
 Write BETA FOCK MATRIX                    from file  10538 offset           0 length               36315 to matrix element file.
 Write ENERGY-WEIGHTED DENSITY             from file  10571 offset           0 length               36315 to matrix element file.
 Write ALPHA SCF DENSITY MATRIX            from file      0 offset           0 length               36315 to matrix element file.
 Write BETA SCF DENSITY MATRIX             from file      0 offset           0 length               36315 to matrix element file.
 No 2e integrals to process.
 Perform NBO analysis...

 *********************************** NBO 7.0 ***********************************
             N A T U R A L   A T O M I C   O R B I T A L   A N D
          N A T U R A L   B O N D   O R B I T A L   A N A L Y S I S
 **************************** Robert Paton (I101709) ***************************
  (c) Copyright 1996-2019 Board of Regents of the University of Wisconsin System
      on behalf of the Theoretical Chemistry Institute.  All rights reserved.

          Cite this program [NBO 7.0.5 (4-Jun-2019)] as:

          NBO 7.0.  E. D. Glendening, J. K. Badenhoop, A. E. Reed,
          J. E. Carpenter, J. A. Bohmann, C. M. Morales, P. Karafiloglou,
          C. R. Landis, and F. Weinhold, Theoretical Chemistry Institute,
          University of Wisconsin, Madison, WI (2018)

 Filename set to /home/rpaton/arbr500/dzvp/fukui/Gau-1918235

 Job title:  arbr39_wb97xd_redcreated by GaussianPrep


 NATURAL POPULATIONS:  Natural atomic orbital occupancies

  NAO Atom No lang   Type(AO)    Occupancy     Spin
 -----------------------------------------------------
   1    O  1  s      Cor( 1s)     1.99995     0.00000
   2    O  1  s      Val( 2s)     1.66404     0.00403
   3    O  1  s      Ryd( 3s)     0.00080    -0.00001
   4    O  1  px     Val( 2p)     1.85783     0.00254
   5    O  1  px     Ryd( 3p)     0.00332    -0.00003
   6    O  1  py     Val( 2p)     1.64166    -0.00091
   7    O  1  py     Ryd( 3p)     0.00087     0.00001
   8    O  1  pz     Val( 2p)     1.52485     0.20344
   9    O  1  pz     Ryd( 3p)     0.00218     0.00186
  10    O  1  dxy    Ryd( 3d)     0.00197    -0.00001
  11    O  1  dxz    Ryd( 3d)     0.00001     0.00000
  12    O  1  dyz    Ryd( 3d)     0.00218    -0.00014
  13    O  1  dx2y2  Ryd( 3d)     0.00235    -0.00001
  14    O  1  dz2    Ryd( 3d)     0.00079     0.00001

  15    C  2  s      Cor( 1s)     1.99995     0.00000
  16    C  2  s      Val( 2s)     0.76381     0.00602
  17    C  2  s      Ryd( 3s)     0.00523     0.00014
  18    C  2  px     Val( 2p)     0.98831     0.00207
  19    C  2  px     Ryd( 3p)     0.00676    -0.00022
  20    C  2  py     Val( 2p)     0.80717    -0.00064
  21    C  2  py     Ryd( 3p)     0.02451    -0.00014
  22    C  2  pz     Val( 2p)     0.92941     0.18306
  23    C  2  pz     Ryd( 3p)     0.00497     0.00053
  24    C  2  dxy    Ryd( 3d)     0.00392    -0.00002
  25    C  2  dxz    Ryd( 3d)     0.00055     0.00018
  26    C  2  dyz    Ryd( 3d)     0.00312     0.00067
  27    C  2  dx2y2  Ryd( 3d)     0.00163    -0.00002
  28    C  2  dz2    Ryd( 3d)     0.00064    -0.00011

  29    C  3  s      Cor( 1s)     1.99996     0.00000
  30    C  3  s      Val( 2s)     0.86100    -0.00025
  31    C  3  s      Ryd( 3s)     0.00307     0.00005
  32    C  3  px     Val( 2p)     1.11940    -0.00436
  33    C  3  px     Ryd( 3p)     0.00469     0.00006
  34    C  3  py     Val( 2p)     1.09123    -0.00183
  35    C  3  py     Ryd( 3p)     0.00641     0.00005
  36    C  3  pz     Val( 2p)     1.09457     0.08623
  37    C  3  pz     Ryd( 3p)     0.00396     0.00282
  38    C  3  dxy    Ryd( 3d)     0.00077     0.00000
  39    C  3  dxz    Ryd( 3d)     0.00115     0.00072
  40    C  3  dyz    Ryd( 3d)     0.00052    -0.00001
  41    C  3  dx2y2  Ryd( 3d)     0.00098    -0.00002
  42    C  3  dz2    Ryd( 3d)     0.00060    -0.00006

  43    C  4  s      Cor( 1s)     1.99994     0.00000
  44    C  4  s      Val( 2s)     0.91502     0.00869
  45    C  4  s      Ryd( 3s)     0.00148    -0.00002
  46    C  4  px     Val( 2p)     1.07097     0.00456
  47    C  4  px     Ryd( 3p)     0.00560    -0.00005
  48    C  4  py     Val( 2p)     1.19712     0.00558
  49    C  4  py     Ryd( 3p)     0.00755     0.00004
  50    C  4  pz     Val( 2p)     1.08695     0.21261
  51    C  4  pz     Ryd( 3p)     0.00651     0.00562
  52    C  4  dxy    Ryd( 3d)     0.00095     0.00001
  53    C  4  dxz    Ryd( 3d)     0.00058     0.00005
  54    C  4  dyz    Ryd( 3d)     0.00044    -0.00003
  55    C  4  dx2y2  Ryd( 3d)     0.00069     0.00000
  56    C  4  dz2    Ryd( 3d)     0.00066    -0.00013

  57    C  5  s      Cor( 1s)     1.99997     0.00000
  58    C  5  s      Val( 2s)     0.92335    -0.00776
  59    C  5  s      Ryd( 3s)     0.00090     0.00000
  60    C  5  px     Val( 2p)     0.95190    -0.00433
  61    C  5  px     Ryd( 3p)     0.00676     0.00008
  62    C  5  py     Val( 2p)     1.10346    -0.00790
  63    C  5  py     Ryd( 3p)     0.00575     0.00001
  64    C  5  pz     Val( 2p)     1.10230    -0.07837
  65    C  5  pz     Ryd( 3p)     0.00100     0.00010
  66    C  5  dxy    Ryd( 3d)     0.00139     0.00000
  67    C  5  dxz    Ryd( 3d)     0.00081     0.00009
  68    C  5  dyz    Ryd( 3d)     0.00134     0.00066
  69    C  5  dx2y2  Ryd( 3d)     0.00175    -0.00001
  70    C  5  dz2    Ryd( 3d)     0.00091     0.00004

  71   Br  6  s      Cor( 1s)     2.00000     0.00000
  72   Br  6  s      Cor( 2s)     2.00000     0.00000
  73   Br  6  s      Cor( 3s)     2.00000     0.00000
  74   Br  6  s      Val( 4s)     1.84072    -0.00015
  75   Br  6  s      Ryd( 5s)     0.00307    -0.00003
  76   Br  6  px     Cor( 2p)     2.00000     0.00000
  77   Br  6  px     Cor( 3p)     2.00000     0.00000
  78   Br  6  px     Val( 4p)     1.30294     0.00334
  79   Br  6  px     Ryd( 5p)     0.00265    -0.00001
  80   Br  6  py     Cor( 2p)     2.00000     0.00000
  81   Br  6  py     Cor( 3p)     2.00000     0.00000
  82   Br  6  py     Val( 4p)     1.90630     0.00011
  83   Br  6  py     Ryd( 5p)     0.00132    -0.00001
  84   Br  6  pz     Cor( 2p)     2.00000     0.00000
[...]
                                                     85(v),86(v),191(v),67(g)
                                                     81(v),173(v)
   36. BD ( 1) C  2- C 11       0.98352    -0.44687  68(v),95(v),82(g),64(g)
                                                     114(v),113(v),85(g),86(g)
                                                     83(v),84(v),81(v),200(v)
                                                     218(v),66(g)
   37. BD ( 1) C  3- C  4       0.97989    -0.49849  74(v),69(g),66(g),71(g)
                                                     81(v),73(g),131(v),67(v)
                                                     132(v),104(v),173(v)
   38. BD ( 1) C  3- C  9       0.97999    -0.49244  68(g),79(g),80(v),64(v)
                                                     66(g),73(v),81(g),163(v)
                                                     122(v),183(v),83(v),84(v)
                                                     108(v),190(r)
   39. BD ( 2) C  3- C  9       0.80857    -0.12399  72(v),77(v),65(v),83(v)
                                                     84(v),165(v),126(v),106(v)
                                                     70(g)
   40. BD ( 1) C  4- C  5       0.98832    -0.53647  75(g),68(g),66(v),113(v)
                                                     73(g),78(v),154(v),226(v)
   41. BD ( 2) C  4- C  5       0.85574    -0.16489  77(v),70(v),156(v),140(v)
                                                     116(v),117(v)
   42. BD ( 1) C  4- H 15       0.98871    -0.39698  69(v),75(v),68(g),74(v)
                                                     131(v),71(g),113(v)
   43. BD ( 1) C  5-Br  6       0.99318    -0.50604  76(v),68(v),154(v),122(v)
                                                     123(v)
   44. BD ( 1) C  5- C  7       0.98832    -0.53608  71(g),76(g),73(v),80(v)
                                                     78(g),164(v),163(v),123(v)
                                                     122(v),230(v)
   45. BD ( 1) C  7- C  8       0.98333    -0.51167  74(v),81(v),79(g),75(g)
                                                     172(v),78(g),80(g),131(v)
                                                     132(v),234(v),230(v)
   46. BD ( 2) C  7- C  8       0.83567    -0.14098  70(v),72(v),174(v),133(v)
                                                     165(g),176(v),135(v),156(g)
   47. BD ( 1) C  7- H 16       0.98941    -0.40648  71(v),79(v),131(v),74(v)
                                                     76(g),75(g),163(v),80(v)
   48. BD ( 1) C  8- C  9       0.98603    -0.50977  69(g),76(g),81(g),78(v)
                                                     66(v),80(g),155(v),154(v)
                                                     183(v),114(v),82(v),234(v)
   49. BD ( 1) C  8- H 17       0.99035    -0.41524  75(v),69(v),79(g),76(g)
                                                     172(v),154(v),78(v)
   50. BD ( 1) C  9- C 10       0.98578    -0.46617  68(v),79(g),69(g),76(v)
                                                     82(g),163(v),85(v),86(v)
                                                     67(v),114(v),83(g),84(g)
                                                     190(v),191(v),66(v)
   51. BD ( 1) C 10- C 11       0.98466    -0.45475  79(v),64(v),81(g),89(v)
                                                     94(v),199(v),217(v),173(v)
                                                     85(g),86(g),67(g),83(g)
                                                     84(g),201(v),219(v)
   52. BD ( 1) C 10- H 18       0.98760    -0.40998  70(v),86(v),69(v),174(v)
                                                     85(v),67(v),193(v),81(g)
   53. BD ( 1) C 10- H 19       0.98760    -0.40998  70(v),85(v),69(v),174(v)
                                                     86(v),67(v),193(v),81(g)
   54. BD ( 1) C 11- C 12       0.97864    -0.43128  65(v),91(v),93(v),67(g)
                                                     106(v),82(g),104(v),181(v)
                                                     87(g),208(v),182(v),84(v)
                                                     66(v),86(g),88(g),89(g)
                                                     217(v),83(v)
   55. BD ( 1) C 11- C 14       0.97864    -0.43129  65(v),91(v),88(v),67(g)
                                                     106(v),82(g),104(v),181(v)
                                                     90(g),208(v),182(v),83(v)
                                                     66(v),85(g),93(g),94(g)
                                                     199(v),84(v)
   56. BD ( 1) C 12- C 13       0.99142    -0.45612  93(v),67(v),85(g),90(g)
                                                     91(g),217(v)
   57. BD ( 1) C 12- H 20       0.99527    -0.42516  190(v),209(v),92(v)
   58. BD ( 1) C 12- H 21       0.99077    -0.41084  82(v),92(v),91(v),67(v)
                                                     191(v),208(v)
   59. BD ( 1) C 13- C 14       0.99142    -0.45612  88(v),67(v),86(g),87(g)
                                                     91(g),199(v)
   60. BD ( 1) C 13- H 22       0.99586    -0.43610
   61. BD ( 1) C 13- H 23       0.99181    -0.43033  89(v),94(v),199(v),217(v)
                                                     88(v),93(v)
   62. BD ( 1) C 14- H 24       0.99527    -0.42516  190(v),209(v),92(v)
   63. BD ( 1) C 14- H 25       0.99077    -0.41084  82(v),92(v),91(v),67(v)
                                                     191(v),208(v)
 ------ non-Lewis ----------------------------------
   64. BD*( 1) O  1- C  2       0.00543     0.91186
   65. BD*( 2) O  1- C  2       0.04947     0.31533
   66. BD*( 1) C  2- C  3       0.03522     0.74629
   67. BD*( 1) C  2- C 11       0.04195     0.66878
   68. BD*( 1) C  3- C  4       0.01287     0.85096
   69. BD*( 1) C  3- C  9       0.01468     0.84551
   70. BD*( 2) C  3- C  9       0.16879     0.27847
   71. BD*( 1) C  4- C  5       0.01213     0.82707
   72. BD*( 2) C  4- C  5       0.17187     0.24678
   73. BD*( 1) C  4- H 15       0.00891     0.71952
   74. BD*( 1) C  5-Br  6       0.01757     0.33585
   75. BD*( 1) C  5- C  7       0.01334     0.80509
   76. BD*( 1) C  7- C  8       0.00829     0.83599
   77. BD*( 2) C  7- C  8       0.14521     0.26277
   78. BD*( 1) C  7- H 16       0.00733     0.70821
   79. BD*( 1) C  8- C  9       0.01303     0.83847
   80. BD*( 1) C  8- H 17       0.00799     0.69827
   81. BD*( 1) C  9- C 10       0.01300     0.66807
   82. BD*( 1) C 10- C 11       0.01191     0.61936
   83. BD*( 1) C 10- H 18       0.00813     0.66348
   84. BD*( 1) C 10- H 19       0.00813     0.66348
   85. BD*( 1) C 11- C 12       0.00869     0.58699
   86. BD*( 1) C 11- C 14       0.00869     0.58700
   87. BD*( 1) C 12- C 13       0.00237     0.58257
   88. BD*( 1) C 12- H 20       0.00770     0.67647
   89. BD*( 1) C 12- H 21       0.00808     0.68371
   90. BD*( 1) C 13- C 14       0.00237     0.58258
   91. BD*( 1) C 13- H 22       0.00841     0.67158
   92. BD*( 1) C 13- H 23       0.00688     0.65864
   93. BD*( 1) C 14- H 24       0.00770     0.67647
   94. BD*( 1) C 14- H 25       0.00808     0.68371
   95. RY ( 1) O  1             0.00154     1.50926
   96. RY ( 2) O  1             0.00015     1.95705
   97. RY ( 3) O  1             0.00011     1.42003
   98. RY ( 4) O  1             0.00002     1.33556
   99. RY ( 5) O  1             0.00000     3.24553
  100. RY ( 6) O  1             0.00000     3.54582
  101. RY ( 7) O  1             0.00000     2.96371
  102. RY ( 8) O  1             0.00000     3.07203
  103. RY ( 9) O  1             0.00000     3.07388
  104. RY ( 1) C  2             0.01065     0.86390
  105. RY ( 2) C  2             0.00442     1.54627
  106. RY ( 3) C  2             0.00260     1.11509
  107. RY ( 4) C  2             0.00119     2.25617
  108. RY ( 5) C  2             0.00082     1.33650
  109. RY ( 6) C  2             0.00033     2.11094
  110. RY ( 7) C  2             0.00012     2.46548
  111. RY ( 8) C  2             0.00001     2.11880
  112. RY ( 9) C  2             0.00001     2.42284
  113. RY ( 1) C  3             0.00309     1.37090
  114. RY ( 2) C  3             0.00219     1.35567
  115. RY ( 3) C  3             0.00086     1.08851
  116. RY ( 4) C  3             0.00054     0.95141
  117. RY ( 5) C  3             0.00032     2.19521
  118. RY ( 6) C  3             0.00010     2.13843
  119. RY ( 7) C  3             0.00009     2.61064
  120. RY ( 8) C  3             0.00006     2.58250
  121. RY ( 9) C  3             0.00001     2.47714
  122. RY ( 1) C  4             0.00353     1.37300
  123. RY ( 2) C  4             0.00209     0.91671
  124. RY ( 3) C  4             0.00056     1.19135
  125. RY ( 4) C  4             0.00035     0.79994
  126. RY ( 5) C  4             0.00025     1.81688
  127. RY ( 6) C  4             0.00004     2.65303
  128. RY ( 7) C  4             0.00002     2.63593
  129. RY ( 8) C  4             0.00001     2.15417
  130. RY ( 9) C  4             0.00000     2.47231
  131. RY ( 1) C  5             0.00327     1.34040
  132. RY ( 2) C  5             0.00256     0.98073
  133. RY ( 3) C  5             0.00073     1.30994
  134. RY ( 4) C  5             0.00043     0.85134
  135. RY ( 5) C  5             0.00039     2.15400
  136. RY ( 6) C  5             0.00028     2.54501
  137. RY ( 7) C  5             0.00017     2.27773
  138. RY ( 8) C  5             0.00005     1.54084
  139. RY ( 9) C  5             0.00000     2.41721
  140. RY ( 1)Br  6             0.00189     0.81291
  141. RY ( 2)Br  6             0.00076     0.91389
  142. RY ( 3)Br  6             0.00026     0.75051
  143. RY ( 4)Br  6             0.00005     1.17017
  144. RY ( 5)Br  6             0.00003     0.76083
  145. RY ( 6)Br  6             0.00001     1.11374
  146. RY ( 7)Br  6             0.00000     1.07602
  147. RY ( 8)Br  6             0.00000     0.90189
  148. RY ( 9)Br  6             0.00000     1.05359
  149. RY (10)Br  6             0.00000     3.72661
  150. RY (11)Br  6             0.00000     3.57849
  151. RY (12)Br  6             0.00000     3.65686
  152. RY (13)Br  6             0.00000     3.85117
  153. RY (14)Br  6             0.00000     3.59006
  154. RY ( 1) C  7             0.00299     1.34552
  155. RY ( 2) C  7             0.00131     0.95075
  156. RY ( 3) C  7             0.00066     1.23619
  157. RY ( 4) C  7             0.00038     0.79647
  158. RY ( 5) C  7             0.00026     1.77228
  159. RY ( 6) C  7             0.00006     2.59617
  160. RY ( 7) C  7             0.00002     2.61696
  161. RY ( 8) C  7             0.00001     2.11862
  162. RY ( 9) C  7             0.00000     2.46452
  163. RY ( 1) C  8             0.00292     1.38721
  164. RY ( 2) C  8             0.00124     0.95796
  165. RY ( 3) C  8             0.00054     1.08239
  166. RY ( 4) C  8             0.00023     0.89520
  167. RY ( 5) C  8             0.00022     1.94814
  168. RY ( 6) C  8             0.00004     2.55504
  169. RY ( 7) C  8             0.00001     2.59569
  170. RY ( 8) C  8             0.00000     2.46833
  171. RY ( 9) C  8             0.00000     2.12342
  172. RY ( 1) C  9             0.00247     1.35387
  173. RY ( 2) C  9             0.00164     1.51732
  174. RY ( 3) C  9             0.00118     1.02026
  175. RY ( 4) C  9             0.00052     0.92068
  176. RY ( 5) C  9             0.00042     2.17986
  177. RY ( 6) C  9             0.00009     2.06755
  178. RY ( 7) C  9             0.00006     2.56093
  179. RY ( 8) C  9             0.00004     2.43997
  180. RY ( 9) C  9             0.00000     2.46246
  181. RY ( 1) C 10             0.00195     0.87493
  182. RY ( 2) C 10             0.00183     1.18772
  183. RY ( 3) C 10             0.00152     0.95544
  184. RY ( 4) C 10             0.00039     1.24084
  185. RY ( 5) C 10             0.00021     2.32348
  186. RY ( 6) C 10             0.00004     2.34083
  187. RY ( 7) C 10             0.00001     2.37016
  188. RY ( 8) C 10             0.00001     2.48222
  189. RY ( 9) C 10             0.00000     2.52103
  190. RY ( 1) C 11             0.00351     1.36732
  191. RY ( 2) C 11             0.00186     1.35756
  192. RY ( 3) C 11             0.00111     1.42231
  193. RY ( 4) C 11             0.00107     1.20874
  194. RY ( 5) C 11             0.00022     2.27536
  195. RY ( 6) C 11             0.00020     2.19651
  196. RY ( 7) C 11             0.00013     2.42892
  197. RY ( 8) C 11             0.00007     2.33325
  198. RY ( 9) C 11             0.00002     2.28961
  199. RY ( 1) C 12             0.00268     1.25805
  200. RY ( 2) C 12             0.00129     1.04292
  201. RY ( 3) C 12             0.00072     0.95307
  202. RY ( 4) C 12             0.00018     1.08635
  203. RY ( 5) C 12             0.00010     2.20887
  204. RY ( 6) C 12             0.00006     1.99220
  205. RY ( 7) C 12             0.00001     2.51429
  206. RY ( 8) C 12             0.00001     2.53434
  207. RY ( 9) C 12             0.00000     2.43398
  208. RY ( 1) C 13             0.00216     1.26589
  209. RY ( 2) C 13             0.00106     1.16359
  210. RY ( 3) C 13             0.00018     1.35071
  211. RY ( 4) C 13             0.00013     1.11596
  212. RY ( 5) C 13             0.00010     1.74870
  213. RY ( 6) C 13             0.00003     2.09719
  214. RY ( 7) C 13             0.00001     2.34390
  215. RY ( 8) C 13             0.00000     2.43548
  216. RY ( 9) C 13             0.00000     2.36260
  217. RY ( 1) C 14             0.00268     1.25805
  218. RY ( 2) C 14             0.00129     1.04290
  219. RY ( 3) C 14             0.00072     0.95306
  220. RY ( 4) C 14             0.00018     1.08635
  221. RY ( 5) C 14             0.00010     2.20889
  222. RY ( 6) C 14             0.00006     1.99221
  223. RY ( 7) C 14             0.00001     2.51429
  224. RY ( 8) C 14             0.00001     2.53434
  225. RY ( 9) C 14             0.00000     2.43399
  226. RY ( 1) H 15             0.00177     0.57920
  227. RY ( 2) H 15             0.00007     1.92902
  228. RY ( 3) H 15             0.00003     2.47379
  229. RY ( 4) H 15             0.00002     2.40802
  230. RY ( 1) H 16             0.00093     0.59394
  231. RY ( 2) H 16             0.00009     1.90443
  232. RY ( 3) H 16             0.00003     2.35149
  233. RY ( 4) H 16             0.00002     2.45284
  234. RY ( 1) H 17             0.00085     0.58618
  235. RY ( 2) H 17             0.00011     1.90403
  236. RY ( 3) H 17             0.00002     2.48869
  237. RY ( 4) H 17             0.00002     2.31135
  238. RY ( 1) H 18             0.00104     0.59904
  239. RY ( 2) H 18             0.00005     2.09930
  240. RY ( 3) H 18             0.00004     2.05863
  241. RY ( 4) H 18             0.00001     2.51534
  242. RY ( 1) H 19             0.00104     0.59904
  243. RY ( 2) H 19             0.00005     2.09929
  244. RY ( 3) H 19             0.00004     2.05863
  245. RY ( 4) H 19             0.00001     2.51534
  246. RY ( 1) H 20             0.00088     0.57981
  247. RY ( 2) H 20             0.00004     2.15708
  248. RY ( 3) H 20             0.00003     1.97099
  249. RY ( 4) H 20             0.00001     2.48665
  250. RY ( 1) H 21             0.00247     0.59165
  251. RY ( 2) H 21             0.00004     1.95877
  252. RY ( 3) H 21             0.00004     2.18215
  253. RY ( 4) H 21             0.00001     2.47559
  254. RY ( 1) H 22             0.00101     0.54344
  255. RY ( 2) H 22             0.00004     2.15391
  256. RY ( 3) H 22             0.00003     1.93227
  257. RY ( 4) H 22             0.00001     2.50500
  258. RY ( 1) H 23             0.00104     0.56152
  259. RY ( 2) H 23             0.00005     1.91338
  260. RY ( 3) H 23             0.00004     2.14424
  261. RY ( 4) H 23             0.00000     2.49403
  262. RY ( 1) H 24             0.00088     0.57982
  263. RY ( 2) H 24             0.00004     2.15706
  264. RY ( 3) H 24             0.00003     1.97101
  265. RY ( 4) H 24             0.00001     2.48665
  266. RY ( 1) H 25             0.00247     0.59166
  267. RY ( 2) H 25             0.00004     1.95874
  268. RY ( 3) H 25             0.00004     2.18218
  269. RY ( 4) H 25             0.00001     2.47558
          -------------------------------
                 Total Lewis   62.04805  ( 98.4890%)
           Valence non-Lewis    0.84422  (  1.3400%)
           Rydberg non-Lewis    0.10774  (  0.1710%)
          -------------------------------
               Total unit  1   63.00000  (100.0000%)
              Charge unit  1    0.00000

 $CHOOSE
  ALPHA
   LONE 1 3 6 3 7 1 END
   BOND S 1 2 D 2 3 S 2 11 S 3 4 S 3 9 D 4 5 S 4 15 S 5 6 S 5 7 S 7 8 S 7 16
        D 8 9 S 8 17 S 9 10 S 10 11 S 10 18 S 10 19 S 11 12 S 11 14 S 12 13
        S 12 20 S 12 21 S 13 14 S 13 22 S 13 23 S 14 24 S 14 25 END
  END
  BETA
   LONE 1 2 6 3 END
   BOND D 1 2 S 2 3 S 2 11 S 3 4 D 3 9 D 4 5 S 4 15 S 5 6 S 5 7 D 7 8 S 7 16
        S 8 9 S 8 17 S 9 10 S 10 11 S 10 18 S 10 19 S 11 12 S 11 14 S 12 13
        S 12 20 S 12 21 S 13 14 S 13 22 S 13 23 S 14 24 S 14 25 END
  END
 $END

 NBO analysis completed in 4.00 CPU seconds (4 wall seconds)
 Maximum scratch memory used by NBO was 1130017 words (8.62 MB)
 Maximum scratch memory used by G16NBO was 154651 words (1.18 MB)

 Opening RunExU unformatted file "/home/rpaton/arbr500/dzvp/fukui/Gau-1918235.EUF"
 Read unf file /home/rpaton/arbr500/dzvp/fukui/Gau-1918235.EUF:
 Label Gaussian matrix elements                                         IVers= 2 NLab= 2 Version=ES64L-G16RevC.01
 Title arbr39_wb97xd_redcreated by GaussianPrep                        
 NAtoms=    25 NBasis=   269 NBsUse=   269 ICharg=    -1 Multip=     2 NE=   127 Len12L=8 Len4L=8 IOpCl= 1 ICGU=112
 GAUSSIAN SCALARS                    NI= 1 NR= 1 NTot=       1 LenBuf=    2 NRI=1 N=    1000
 NPA CHARGES                         NI= 0 NR= 1 NTot=      25 LenBuf= 2048 NRI=1 N=      25
 Recovered energy= -3112.46276561     dipole=      0.157321752215      1.209411382703      0.000006506386
 Unable to Open any file for archive entry.
 1\1\GINC-DYNAMO\SP\UwB97XD\def2SVP\C12H11Br1O1(1-,2)\RPATON\28-Sep-202
 4\0\\# pop=(nbo6,hirshfeld) wb97xd/def2svp\\arbr39_wb97xd_redcreated b
 y GaussianPrep\\-1,2\O,0,1.734501,-2.189052,-0.00001\C,0,1.619555,-0.9
 8803,0.000106\C,0,0.354225,-0.212893,0.000047\C,0,-0.949743,-0.706681,
 0.00003\C,0,-1.984577,0.220469,0.000003\Br,0,-3.781015,-0.374294,-0.00
 0011\C,0,-1.721483,1.598374,-0.00001\C,0,-0.410386,2.068554,-0.000001\
 C,0,0.639903,1.150428,0.000023\C,0,2.127929,1.407871,0.000001\C,0,2.77
 8383,0.008775,0.000015\C,0,3.875817,-0.243289,1.07218\C,0,4.95564,-0.0
 02161,-0.000061\C,0,3.875741,-0.243356,-1.07221\H,0,-1.132502,-1.78268
 ,0.000049\H,0,-2.555483,2.302381,-0.000032\H,0,-0.219689,3.144138,-0.0
 00023\H,0,2.419042,1.998245,0.883647\H,0,2.419011,1.9982,-0.883685\H,0
 ,3.86162,0.410506,1.956895\H,0,3.850396,-1.293801,1.397112\H,0,5.82945
 1,-0.668754,-0.00007\H,0,5.309848,1.039621,-0.000107\H,0,3.861484,0.41
 0382,-1.956966\H,0,3.850298,-1.29389,-1.397073\\Version=ES64L-G16RevC.
 01\State=2-A\HF=-3112.4627656\S2=0.770281\S2-1=0.\S2A=0.750243\RMSD=3.
 698e-09\Dipole=-0.1573217,1.2094114,-0.0000065\Quadrupole=-11.1708262,
 2.1812679,8.9895583,5.8739935,0.0000382,-0.0001736\PG=C01 [X(C12H11Br1
 O1)]\\@
 The archive entry for this job was punched.


 IT IS WELL TO REMEMBER THAT MAN IS A PART OF NATURE AND THAT HIS WORKS,
 WHATEVER THEY MAY BE, ARE NO MORE "UNNATURAL" THAN 
 THE FLIGHT OF AN EAGLE OR THE PASSAGE OF A TORNADO.

                                    -- CHARLES MCCARRY IN "THE GREAT SOUTHWEST"
 Job cpu time:       0 days  0 hours 25 minutes 46.7 seconds.
 Elapsed time:       0 days  0 hours  1 minutes  5.1 seconds.
 File lengths (MBytes):  RWF=     73 Int=      0 D2E=      0 Chk=      6 Scr=      1
 Normal termination of Gaussian 16 at Sat Sep 28 11:42:14 2024.
