 Entering Gaussian System, Link 0=/usr/local/Gaussian/G16C/g16/g16
 Input=arbr34_wb97xd_nmr.com
 Output=arbr34_wb97xd_nmr.log
 Initial command:
 /usr/local/Gaussian/G16C/g16/l1.exe "/home/rpaton/opt/dzvp/nmr/Gau-991219.inp" -scrdir="/home/rpaton/opt/dzvp/nmr/"
 Entering Link 1 = /usr/local/Gaussian/G16C/g16/l1.exe PID=    991220.
  
 Copyright (c) 1988-2019, Gaussian, Inc.  All Rights Reserved.
  
 This is part of the Gaussian(R) 16 program.  It is based on
 the Gaussian(R) 09 system (copyright 2009, Gaussian, Inc.),
 the Gaussian(R) 03 system (copyright 2003, Gaussian, Inc.),
 the Gaussian(R) 98 system (copyright 1998, Gaussian, Inc.),
 the Gaussian(R) 94 system (copyright 1995, Gaussian, Inc.),
 the Gaussian 92(TM) system (copyright 1992, Gaussian, Inc.),
 the Gaussian 90(TM) system (copyright 1990, Gaussian, Inc.),
 the Gaussian 88(TM) system (copyright 1988, Gaussian, Inc.),
 the Gaussian 86(TM) system (copyright 1986, Carnegie Mellon
 University), and the Gaussian 82(TM) system (copyright 1983,
 Carnegie Mellon University). Gaussian is a federally registered
 trademark of Gaussian, Inc.
  
 This software contains proprietary and confidential information,
 including trade secrets, belonging to Gaussian, Inc.
  
 This software is provided under written license and may be
 used, copied, transmitted, or stored only in accord with that
 written license.
  
 The following legend is applicable only to US Government
 contracts under FAR:
  
                    RESTRICTED RIGHTS LEGEND
  
 Use, reproduction and disclosure by the US Government is
 subject to restrictions as set forth in subparagraphs (a)
 and (c) of the Commercial Computer Software - Restricted
 Rights clause in FAR 52.227-19.
  
 Gaussian, Inc.
 340 Quinnipiac St., Bldg. 40, Wallingford CT 06492
  
  
 ---------------------------------------------------------------
 Warning -- This program may not be used in any manner that
 competes with the business of Gaussian, Inc. or will provide
 assistance to any competitor of Gaussian, Inc.  The licensee
 of this program is prohibited from giving any competitor of
 Gaussian, Inc. access to this program.  By using this program,
 the user acknowledges that Gaussian, Inc. is engaged in the
 business of creating and licensing software in the field of
 computational chemistry and represents and warrants to the
 licensee that it is not a competitor of Gaussian, Inc. and that
 it will not use this program in any manner prohibited above.
 ---------------------------------------------------------------
  

 Cite this work as:
 Gaussian 16, Revision C.01,
 M. J. Frisch, G. W. Trucks, H. B. Schlegel, G. E. Scuseria, 
 M. A. Robb, J. R. Cheeseman, G. Scalmani, V. Barone, 
 G. A. Petersson, H. Nakatsuji, X. Li, M. Caricato, A. V. Marenich, 
 J. Bloino, B. G. Janesko, R. Gomperts, B. Mennucci, H. P. Hratchian, 
 J. V. Ortiz, A. F. Izmaylov, J. L. Sonnenberg, D. Williams-Young, 
 F. Ding, F. Lipparini, F. Egidi, J. Goings, B. Peng, A. Petrone, 
 T. Henderson, D. Ranasinghe, V. G. Zakrzewski, J. Gao, N. Rega, 
 G. Zheng, W. Liang, M. Hada, M. Ehara, K. Toyota, R. Fukuda, 
 J. Hasegawa, M. Ishida, T. Nakajima, Y. Honda, O. Kitao, H. Nakai, 
 T. Vreven, K. Throssell, J. A. Montgomery, Jr., J. E. Peralta, 
 F. Ogliaro, M. J. Bearpark, J. J. Heyd, E. N. Brothers, K. N. Kudin, 
 V. N. Staroverov, T. A. Keith, R. Kobayashi, J. Normand, 
 K. Raghavachari, A. P. Rendell, J. C. Burant, S. S. Iyengar, 
 J. Tomasi, M. Cossi, J. M. Millam, M. Klene, C. Adamo, R. Cammi, 
 J. W. Ochterski, R. L. Martin, K. Morokuma, O. Farkas, 
 J. B. Foresman, and D. J. Fox, Gaussian, Inc., Wallingford CT, 2019.
 
 ******************************************
 Gaussian 16:  ES64L-G16RevC.01  3-Jul-2019
                26-Sep-2024 
 ******************************************
 %chk=arbr34_wb97xd_nmr.chk
 %mem=48GB
 %nprocshared=24
 Will use up to   24 processors via shared memory.
 ---------------------------
 # nmr=giao mpw1pw91/def2svp
 ---------------------------
 1/38=1,172=1/1;
 2/12=2,17=6,18=5,40=1/2;
 3/5=43,7=101,11=2,25=1,30=1,74=-7/1,2,3,8;
 4//1;
 5/5=2,38=5/2;
 8/6=1,10=90,11=11/1;
 10/13=100,45=16/2;
 6/7=2,8=2,9=2,10=2,28=1/1;
 99/9=1/99;
 ----------------------------------------
 arbr34_wb97xd_nmrcreated by GaussianPrep
 ----------------------------------------
 Symbolic Z-matrix:
 Charge =  0 Multiplicity = 1
 Br                    3.83229  -0.11274  0. 
 C                     1.95558   0.14338   0. 
 C                     1.44448   1.44348   0. 
 C                     0.06516   1.64522   0. 
 C                    -0.78433   0.54079   0. 
 C                    -0.25656  -0.76217   0. 
 C                     1.11655  -0.97299   0. 
 C                    -1.37428  -1.77708  0. 
 C                    -2.61136  -0.91072   0. 
 C                    -3.95059  -1.28339   0. 
 C                    -4.92987  -0.28716  0. 
 C                    -4.57173   1.06394   0. 
 C                    -3.22954   1.44286  0. 
 C                    -2.25217   0.44881  0. 
 H                     2.12692   2.29455  0. 
 H                    -0.33443   2.6616   0. 
 H                     1.53716  -1.98021   0. 
 H                    -1.33094  -2.43241  -0.88576 
 H                    -1.33094  -2.43241   0.88575 
 H                    -4.23678  -2.33801   0. 
 H                    -5.98576  -0.5663   0. 
 H                    -5.35057   1.82957   0. 
 H                    -2.95303   2.49965  0. 
 
                          Input orientation:                          
 ---------------------------------------------------------------------
 Center     Atomic      Atomic             Coordinates (Angstroms)
 Number     Number       Type             X           Y           Z
 ---------------------------------------------------------------------
      1         35           0        3.832292   -0.112738   -0.000001
      2          6           0        1.955577    0.143382    0.000003
      3          6           0        1.444482    1.443484    0.000001
      4          6           0        0.065161    1.645215    0.000001
      5          6           0       -0.784325    0.540792    0.000001
      6          6           0       -0.256555   -0.762172    0.000001
      7          6           0        1.116555   -0.972986    0.000003
      8          6           0       -1.374280   -1.777081   -0.000002
      9          6           0       -2.611360   -0.910720    0.000001
     10          6           0       -3.950585   -1.283392    0.000002
     11          6           0       -4.929868   -0.287160   -0.000001
     12          6           0       -4.571730    1.063936    0.000001
     13          6           0       -3.229545    1.442857   -0.000003
     14          6           0       -2.252172    0.448808   -0.000002
     15          1           0        2.126916    2.294546   -0.000001
     16          1           0       -0.334429    2.661602   -0.000001
     17          1           0        1.537161   -1.980207    0.000002
     18          1           0       -1.330937   -2.432411   -0.885757
     19          1           0       -1.330939   -2.432413    0.885750
     20          1           0       -4.236777   -2.338007    0.000001
     21          1           0       -5.985756   -0.566295   -0.000001
     22          1           0       -5.350569    1.829566    0.000001
     23          1           0       -2.953031    2.499653   -0.000001
 ---------------------------------------------------------------------
                    Distance matrix (angstroms):
                    1          2          3          4          5
     1  Br   0.000000
     2  C    1.894111   0.000000
     3  C    2.850169   1.396955   0.000000
     4  C    4.157123   2.414368   1.393995   0.000000
     5  C    4.662645   2.768573   2.404669   1.393333   0.000000
     6  C    4.140101   2.390305   2.785399   2.428788   1.405794
     7  C    2.848729   1.396508   2.438619   2.821419   2.429994
     8  C    5.466117   3.843973   4.279890   3.712694   2.391774
     9  C    6.492875   4.687008   4.689577   3.700888   2.333440
    10  C    7.870426   6.076054   6.045048   4.970207   3.654155
    11  C    8.763896   6.898893   6.605109   5.355781   4.227414
    12  C    8.485997   6.591901   6.028172   4.673183   3.823365
    13  C    7.231142   5.345477   4.674027   3.300914   2.606304
    14  C    6.110322   4.218819   3.828137   2.607954   1.470726
    15  H    2.950140   2.157977   1.090882   2.161588   3.398673
    16  H    5.005849   3.403757   2.156000   1.092115   2.168004
    17  H    2.958896   2.164417   3.424945   3.912859   3.427059
    18  H    5.729257   4.268542   4.848719   4.400078   3.150125
    19  H    5.729258   4.268542   4.848721   4.400079   3.150125
    20  H    8.370287   6.671022   6.824689   5.862826   4.495210
    21  H    9.828519   7.972980   7.697249   6.442389   5.317944
    22  H    9.386026   7.498199   6.806010   5.418867   4.744631
    23  H    7.270846   5.444855   4.522567   3.136805   2.922400
                    6          7          8          9         10
     6  C    0.000000
     7  C    1.389199   0.000000
     8  C    1.509751   2.617409   0.000000
     9  C    2.359486   3.728435   1.510281   0.000000
    10  C    3.730620   5.076639   2.623181   1.390111   0.000000
    11  C    4.697392   6.085194   3.855136   2.400897   1.396951
    12  C    4.685660   6.041990   4.277273   2.782502   2.428121
    13  C    3.701462   4.972412   3.716182   2.433409   2.819988
    14  C    2.334301   3.656476   2.392755   1.406177   2.425927
    15  H    3.876140   3.420175   5.369965   5.720576   7.052493
    16  H    3.424660   3.913513   4.558859   4.236260   5.351594
    17  H    2.168185   1.091514   2.918518   4.284160   5.531809
    18  H    2.174526   2.984076   1.102678   2.177061   2.994557
    19  H    2.174525   2.984075   1.102676   2.177057   2.994552
    20  H    4.280820   5.524622   2.916938   2.163129   1.092757
    21  H    5.732548   7.113945   4.767779   3.391928   2.157811
    22  H    5.715425   7.048262   5.368312   3.874588   3.413277
    23  H    4.232078   5.349837   4.558828   3.427446   3.912358
                   11         12         13         14         15
    11  C    0.000000
    12  C    1.397756   0.000000
    13  C    2.425708   1.394648   0.000000
    14  C    2.776996   2.399736   1.394056   0.000000
    15  H    7.514214   6.810746   5.423749   4.752174   0.000000
    16  H    5.460152   4.528494   3.141184   2.928173   2.488564
    17  H    6.684974   6.825347   5.868463   4.501017   4.315243
    18  H    4.282402   4.848892   4.405335   3.151929   5.923296
    19  H    4.282401   4.848890   4.405335   3.151930   5.923298
    20  H    2.164798   3.418393   3.912729   3.421256   7.871286
    21  H    1.092161   2.158037   3.410776   3.869119   8.602317
    22  H    2.158128   1.092144   2.155989   3.392132   7.491928
    23  H    3.416754   2.163670   1.092373   2.167295   5.084086
                   16         17         18         19         20
    16  H    0.000000
    17  H    5.004922   0.000000
    18  H    5.265602   3.035629   0.000000
    19  H    5.265603   3.035628   1.771507   0.000000
    20  H    6.342272   5.785013   3.039307   3.039302   0.000000
    21  H    6.508211   7.654634   5.092572   5.092570   2.489556
    22  H    5.084677   7.871162   5.925070   5.925069   4.313838
    23  H    2.623605   6.342789   5.266973   5.266974   5.005093
                   21         22         23
    21  H    0.000000
    22  H    2.478631   0.000000
    23  H    4.312477   2.489419   0.000000
 Stoichiometry    C13H9Br
 Framework group  C1[X(C13H9Br)]
 Deg. of freedom    63
 Full point group                 C1      NOp   1
 Largest Abelian subgroup         C1      NOp   1
 Largest concise Abelian subgroup C1      NOp   1
                         Standard orientation:                         
 ---------------------------------------------------------------------
 Center     Atomic      Atomic             Coordinates (Angstroms)
 Number     Number       Type             X           Y           Z
 ---------------------------------------------------------------------
      1         35           0       -3.832292   -0.112738    0.000001
      2          6           0       -1.955577    0.143382   -0.000003
      3          6           0       -1.444482    1.443484   -0.000001
      4          6           0       -0.065161    1.645215   -0.000001
      5          6           0        0.784325    0.540792   -0.000001
      6          6           0        0.256555   -0.762172   -0.000001
      7          6           0       -1.116555   -0.972986   -0.000003
      8          6           0        1.374280   -1.777081    0.000002
      9          6           0        2.611360   -0.910720   -0.000001
     10          6           0        3.950585   -1.283392   -0.000002
     11          6           0        4.929868   -0.287160    0.000001
     12          6           0        4.571730    1.063936   -0.000001
     13          6           0        3.229545    1.442857    0.000003
     14          6           0        2.252172    0.448808    0.000002
     15          1           0       -2.126916    2.294546    0.000001
     16          1           0        0.334429    2.661602    0.000001
     17          1           0       -1.537161   -1.980207   -0.000002
     18          1           0        1.330937   -2.432411    0.885757
     19          1           0        1.330939   -2.432413   -0.885750
     20          1           0        4.236777   -2.338007   -0.000001
     21          1           0        5.985756   -0.566295    0.000001
     22          1           0        5.350569    1.829566   -0.000001
     23          1           0        2.953031    2.499653    0.000001
 ---------------------------------------------------------------------
 Rotational constants (GHZ):           2.1455877           0.2135613           0.1944651
 Standard basis: def2SVP (5D, 7F)
 There are   275 symmetry adapted cartesian basis functions of A   symmetry.
 There are   259 symmetry adapted basis functions of A   symmetry.
   259 basis functions,   468 primitive gaussians,   275 cartesian basis functions
    61 alpha electrons       61 beta electrons
       nuclear repulsion energy      1038.6404984401 Hartrees.
 NAtoms=   23 NActive=   23 NUniq=   23 SFac= 1.00D+00 NAtFMM=   60 NAOKFM=F Big=F
 Integral buffers will be    131072 words long.
 Raffenetti 2 integral format.
 Two-electron integral symmetry is turned on.
 One-electron integrals computed using PRISM.
   1 Symmetry operations used in ECPInt.
 ECPInt:  NShTT=    6903 NPrTT=   27032 LenC2=    6463 LenP2D=   18469.
 LDataN:  DoStor=T MaxTD1= 4 Len=   56
 NBasis=   259 RedAO= T EigKep=  2.46D-04  NBF=   259
 NBsUse=   259 1.00D-06 EigRej= -1.00D+00 NBFU=   259
 ExpMin= 1.22D-01 ExpMax= 1.13D+05 ExpMxC= 1.70D+04 IAcc=3 IRadAn=         5 AccDes= 0.00D+00
 Harris functional with IExCor=  908 and IRadAn=       5 diagonalized for initial guess.
 HarFok:  IExCor=  908 AccDes= 0.00D+00 IRadAn=         5 IDoV= 1 UseB2=F ITyADJ=14
 ICtDFT=  3500011 ScaDFX=  1.000000  1.000000  1.000000  1.000000
 FoFCou: FMM=F IPFlag=           0 FMFlag=      100000 FMFlg1=           0
         NFxFlg=           0 DoJE=T BraDBF=F KetDBF=T FulRan=T
         wScrn=  0.000000 ICntrl=       500 IOpCl=  0 I1Cent=   200000004 NGrid=           0
         NMat0=    1 NMatS0=      1 NMatT0=    0 NMatD0=    1 NMtDS0=    0 NMtDT0=    0
 Petite list used in FoFCou.
 Requested convergence on RMS density matrix=1.00D-08 within 128 cycles.
 Requested convergence on MAX density matrix=1.00D-06.
 Requested convergence on             energy=1.00D-06.
 No special actions if energy rises.
 Integral accuracy reduced to 1.0D-05 until final iterations.
 Initial convergence to 1.0D-05 achieved.  Increase integral accuracy.
 SCF Done:  E(RmPW1PW91) =  -3074.39218400     A.U. after   14 cycles
            NFock= 14  Conv=0.66D-08     -V/T= 2.0028
 DoSCS=F DFT=T ScalE2(SS,OS)=  1.000000  1.000000
 Range of M.O.s used for correlation:     1   259
 NBasis=   259 NAE=    61 NBE=    61 NFC=     0 NFV=     0
 NROrb=    259 NOA=    61 NOB=    61 NVA=   198 NVB=   198

 **** Warning!!: The largest alpha MO coefficient is  0.16291483D+02

          Differentiating once with respect to magnetic field using GIAOs.
          Electric field/nuclear overlap derivatives assumed to be zero.
 FoFCou: FMM=F IPFlag=           0 FMFlag=      100000 FMFlg1=           0
         NFxFlg=           0 DoJE=F BraDBF=F KetDBF=T FulRan=T
         wScrn=  0.000000 ICntrl=      6100 IOpCl=  0 I1Cent=           7 NGrid=          23
         NMat0=    1 NMatS0=      1 NMatT0=    0 NMatD0=    1 NMtDS0=    0 NMtDT0=    0
 Symmetry not used in FoFCou.
   1 Symmetry operations used in ECPInt.
 ECPInt:  NShTT=    6903 NPrTT=   27032 LenC2=    6904 LenP2D=   27032.
 LDataN:  DoStor=T MaxTD1= 5 Len=  102
 FoFJK:  IHMeth= 1 ICntrl=    6127 DoSepK=F KAlg= 0 I1Cent=           0 FoldK=F
 IRaf=         1 NMat=       1 IRICut=       1 DoRegI=T DoRafI=F ISym2E= 0 IDoP0=0 IntGTp=1.
          There are     3 degrees of freedom in the 1st order CPHF.  IDoFFX=0 NUNeed=     3.
      3 vectors produced by pass  0 Test12= 4.03D-13 3.33D-08 XBig12= 4.89D+01 1.67D+00.
 AX will form     3 AO Fock derivatives at one time.
      3 vectors produced by pass  1 Test12= 4.03D-13 3.33D-08 XBig12= 2.18D-01 1.68D-01.
      3 vectors produced by pass  2 Test12= 4.03D-13 3.33D-08 XBig12= 7.96D-04 6.34D-03.
      3 vectors produced by pass  3 Test12= 4.03D-13 3.33D-08 XBig12= 1.44D-06 3.03D-04.
      3 vectors produced by pass  4 Test12= 4.03D-13 3.33D-08 XBig12= 5.29D-09 2.72D-05.
      3 vectors produced by pass  5 Test12= 4.03D-13 3.33D-08 XBig12= 3.49D-11 1.67D-06.
      1 vectors produced by pass  6 Test12= 4.03D-13 3.33D-08 XBig12= 1.21D-13 8.00D-08.
 InvSVY:  IOpt=1 It=  1 EMax= 1.33D-15
 Solved reduced A of dimension    19 with     3 vectors.
 Calculating GIAO nuclear magnetic shielding tensors.
 SCF GIAO Magnetic shielding tensor (ppm):
      1  Br   Isotropic =  2102.6403   Anisotropy =  1227.3681
   XX=  2897.7839   YX=   166.7723   ZX=    -0.0038
   XY=   163.8094   YY=  1738.2483   ZY=    -0.0005
   XZ=    -0.0018   YZ=     0.0009   ZZ=  1671.8886
   Eigenvalues:  1671.8886  1715.1465  2920.8857
      2  C    Isotropic =    57.7087   Anisotropy =   114.5975
   XX=   -22.8365   YX=   -11.7643   ZX=     0.0002
   XY=   -12.7651   YY=    61.8556   ZY=    -0.0000
   XZ=     0.0005   YZ=     0.0001   ZZ=   134.1070
   Eigenvalues:   -24.5769    63.5960   134.1070
      3  C    Isotropic =    64.6752   Anisotropy =   149.6660
   XX=    27.6132   YX=    38.3506   ZX=     0.0001
   XY=    42.3206   YY=     1.9598   ZY=    -0.0003
   XZ=     0.0003   YZ=    -0.0006   ZZ=   164.4526
   Eigenvalues:   -27.5394    57.1125   164.4526
      4  C    Isotropic =    74.3209   Anisotropy =   164.1811
   XX=    47.0715   YX=   -23.1000   ZX=    -0.0001
   XY=   -21.0041   YY=    -7.8837   ZY=    -0.0002
   XZ=    -0.0003   YZ=    -0.0005   ZZ=   183.7750
   Eigenvalues:   -15.6383    54.8261   183.7750
      5  C    Isotropic =    53.1207   Anisotropy =   157.7759
   XX=   -29.7508   YX=    -4.5090   ZX=    -0.0004
   XY=   -16.3396   YY=    30.8082   ZY=    -0.0000
   XZ=    -0.0006   YZ=     0.0000   ZZ=   158.3046
   Eigenvalues:   -31.4949    32.5523   158.3046
      6  C    Isotropic =    49.4562   Anisotropy =   164.0507
   XX=     1.8910   YX=    21.2415   ZX=    -0.0003
   XY=    31.1553   YY=   -12.3457   ZY=     0.0002
   XZ=    -0.0008   YZ=    -0.0001   ZZ=   158.8234
   Eigenvalues:   -32.3756    21.9209   158.8234
      7  C    Isotropic =    66.8038   Anisotropy =   141.0120
   XX=    49.5909   YX=   -25.2023   ZX=    -0.0001
   XY=   -26.4706   YY=    -9.9913   ZY=     0.0001
   XZ=     0.0001   YZ=     0.0004   ZZ=   160.8118
   Eigenvalues:   -19.6341    59.2337   160.8118
      8  C    Isotropic =   155.7152   Anisotropy =    32.4506
   XX=   177.2213   YX=    -1.7514   ZX=     0.0001
   XY=    -1.7150   YY=   153.8240   ZY=    -0.0001
   XZ=     0.0001   YZ=    -0.0002   ZZ=   136.1004
   Eigenvalues:   136.1004   153.6963   177.3490
      9  C    Isotropic =    51.0967   Anisotropy =   167.3251
   XX=    -3.2179   YX=   -23.6701   ZX=     0.0003
   XY=   -35.0497   YY=    -6.1387   ZY=    -0.0000
   XZ=     0.0001   YZ=    -0.0002   ZZ=   162.6468
   Eigenvalues:   -34.0745    24.7179   162.6468
     10  C    Isotropic =    70.0733   Anisotropy =   167.7106
   XX=    47.9664   YX=    18.2090   ZX=    -0.0000
   XY=    18.3195   YY=   -19.6268   ZY=    -0.0001
   XZ=     0.0001   YZ=     0.0001   ZZ=   181.8804
   Eigenvalues:   -24.2462    52.5859   181.8804
     11  C    Isotropic =    67.8533   Anisotropy =   174.7584
   XX=   -26.2274   YX=    19.9115   ZX=    -0.0002
   XY=    21.8763   YY=    45.4283   ZY=     0.0000
   XZ=    -0.0003   YZ=     0.0001   ZZ=   184.3589
   Eigenvalues:   -31.8747    51.0756   184.3589
     12  C    Isotropic =    67.7554   Anisotropy =   176.3714
   XX=    10.5952   YX=   -39.7594   ZX=     0.0003
   XY=   -42.7563   YY=     7.3345   ZY=     0.0001
   XZ=     0.0003   YZ=     0.0002   ZZ=   185.3363
   Eigenvalues:   -32.3251    50.2549   185.3363
     13  C    Isotropic =    74.7439   Anisotropy =   168.5094
   XX=    52.0845   YX=    14.8121   ZX=     0.0001
   XY=    13.7970   YY=   -14.9364   ZY=    -0.0000
   XZ=     0.0000   YZ=     0.0000   ZZ=   187.0834
   Eigenvalues:   -17.8618    55.0099   187.0834
     14  C    Isotropic =    53.0838   Anisotropy =   157.7108
   XX=   -28.1845   YX=    13.1051   ZX=    -0.0002
   XY=    24.9953   YY=    29.2116   ZY=    -0.0002
   XZ=     0.0001   YZ=     0.0002   ZZ=   158.2243
   Eigenvalues:   -33.9319    34.9589   158.2243
     15  H    Isotropic =    24.1173   Anisotropy =     9.0537
   XX=    26.8415   YX=     3.5092   ZX=     0.0000
   XY=     3.1489   YY=    26.8064   ZY=    -0.0000
   XZ=     0.0000   YZ=     0.0000   ZZ=    18.7039
   Eigenvalues:    18.7039    23.4949    30.1530
     16  H    Isotropic =    23.7573   Anisotropy =     6.9774
   XX=    28.2372   YX=    -1.0877   ZX=     0.0000
   XY=    -0.5254   YY=    24.6201   ZY=    -0.0000
   XZ=     0.0000   YZ=    -0.0000   ZZ=    18.4145
   Eigenvalues:    18.4145    24.4484    28.4089
     17  H    Isotropic =    24.0090   Anisotropy =    10.6268
   XX=    29.5214   YX=    -3.2424   ZX=     0.0000
   XY=    -3.2448   YY=    24.4013   ZY=     0.0000
   XZ=     0.0000   YZ=     0.0000   ZZ=    18.1044
   Eigenvalues:    18.1044    22.8292    31.0935
     18  H    Isotropic =    27.7423   Anisotropy =     8.4147
   XX=    28.4371   YX=    -0.2238   ZX=    -0.1143
   XY=    -0.2019   YY=    28.7596   ZY=    -3.5312
   XZ=    -0.5116   YZ=    -8.0660   ZZ=    26.0301
   Eigenvalues:    21.4175    28.4573    33.3521
     19  H    Isotropic =    27.7423   Anisotropy =     8.4147
   XX=    28.4372   YX=    -0.2238   ZX=     0.1143
   XY=    -0.2019   YY=    28.7596   ZY=     3.5312
   XZ=     0.5116   YZ=     8.0660   ZZ=    26.0301
   Eigenvalues:    21.4175    28.4573    33.3521
     20  H    Isotropic =    24.0180   Anisotropy =     6.7866
   XX=    28.4793   YX=     0.2494   ZX=    -0.0000
   XY=     0.8287   YY=    23.9404   ZY=     0.0000
   XZ=     0.0000   YZ=    -0.0000   ZZ=    19.6344
   Eigenvalues:    19.6344    23.8773    28.5424
     21  H    Isotropic =    24.2498   Anisotropy =     4.6081
   XX=    25.1527   YX=     0.7982   ZX=     0.0000
   XY=     0.7949   YY=    27.0293   ZY=     0.0000
   XZ=    -0.0000   YZ=     0.0000   ZZ=    20.5673
   Eigenvalues:    20.5673    24.8602    27.3218
     22  H    Isotropic =    24.1229   Anisotropy =     4.8596
   XX=    26.4316   YX=    -1.1505   ZX=    -0.0000
   XY=    -1.3667   YY=    25.6615   ZY=     0.0000
   XZ=     0.0000   YZ=     0.0000   ZZ=    20.2758
   Eigenvalues:    20.2758    24.7303    27.3627
     23  H    Isotropic =    23.6725   Anisotropy =     7.3758
   XX=    28.3476   YX=     1.2541   ZX=     0.0000
   XY=     0.8189   YY=    24.1525   ZY=     0.0000
   XZ=    -0.0000   YZ=    -0.0000   ZZ=    18.5175
   Eigenvalues:    18.5175    23.9103    28.5897
 End of Minotr F.D. properties file   721 does not exist.
 End of Minotr F.D. properties file   722 does not exist.
 End of Minotr F.D. properties file   788 does not exist.

 **********************************************************************

            Population analysis using the SCF Density.

 **********************************************************************

 Orbital symmetries:
       Occupied  (A) (A) (A) (A) (A) (A) (A) (A) (A) (A) (A) (A)
                 (A) (A) (A) (A) (A) (A) (A) (A) (A) (A) (A) (A)
                 (A) (A) (A) (A) (A) (A) (A) (A) (A) (A) (A) (A)
                 (A) (A) (A) (A) (A) (A) (A) (A) (A) (A) (A) (A)
                 (A) (A) (A) (A) (A) (A) (A) (A) (A) (A) (A) (A)
                 (A)
       Virtual   (A) (A) (A) (A) (A) (A) (A) (A) (A) (A) (A) (A)
                 (A) (A) (A) (A) (A) (A) (A) (A) (A) (A) (A) (A)
                 (A) (A) (A) (A) (A) (A) (A) (A) (A) (A) (A) (A)
                 (A) (A) (A) (A) (A) (A) (A) (A) (A) (A) (A) (A)
                 (A) (A) (A) (A) (A) (A) (A) (A) (A) (A) (A) (A)
                 (A) (A) (A) (A) (A) (A) (A) (A) (A) (A) (A) (A)
                 (A) (A) (A) (A) (A) (A) (A) (A) (A) (A) (A) (A)
                 (A) (A) (A) (A) (A) (A) (A) (A) (A) (A) (A) (A)
                 (A) (A) (A) (A) (A) (A) (A) (A) (A) (A) (A) (A)
                 (A) (A) (A) (A) (A) (A) (A) (A) (A) (A) (A) (A)
                 (A) (A) (A) (A) (A) (A) (A) (A) (A) (A) (A) (A)
                 (A) (A) (A) (A) (A) (A) (A) (A) (A) (A) (A) (A)
                 (A) (A) (A) (A) (A) (A) (A) (A) (A) (A) (A) (A)
                 (A) (A) (A) (A) (A) (A) (A) (A) (A) (A) (A) (A)
                 (A) (A) (A) (A) (A) (A) (A) (A) (A) (A) (A) (A)
                 (A) (A) (A) (A) (A) (A) (A) (A) (A) (A) (A) (A)
                 (A) (A) (A) (A) (A) (A)
 The electronic state is 1-A.
 Alpha  occ. eigenvalues -- -483.27728 -62.64207 -56.43848 -56.43502 -56.43492
 Alpha  occ. eigenvalues --  -10.30719 -10.26808 -10.26776 -10.26674 -10.26589
 Alpha  occ. eigenvalues --  -10.26497 -10.26373 -10.26213 -10.26084 -10.25830
 Alpha  occ. eigenvalues --  -10.25796 -10.25692 -10.25648  -8.77308  -6.58964
 Alpha  occ. eigenvalues --   -6.57693  -6.57666  -2.67607  -2.67238  -2.67217
 Alpha  occ. eigenvalues --   -2.66196  -2.66196  -0.92192  -0.88467  -0.84366
 Alpha  occ. eigenvalues --   -0.81047  -0.78234  -0.77021  -0.72531  -0.71519
 Alpha  occ. eigenvalues --   -0.65506  -0.61076  -0.60433  -0.59604  -0.54257
 Alpha  occ. eigenvalues --   -0.51026  -0.50336  -0.47264  -0.47234  -0.46119
 Alpha  occ. eigenvalues --   -0.45855  -0.43980  -0.43285  -0.42333  -0.40212
 Alpha  occ. eigenvalues --   -0.38595  -0.37851  -0.37633  -0.35950  -0.35424
 Alpha  occ. eigenvalues --   -0.33563  -0.30061  -0.28700  -0.27802  -0.26653
 Alpha  occ. eigenvalues --   -0.23320
 Alpha virt. eigenvalues --   -0.04238  -0.02421  -0.00239   0.01584   0.02813
 Alpha virt. eigenvalues --    0.07450   0.08332   0.09542   0.10870   0.11929
 Alpha virt. eigenvalues --    0.12295   0.13571   0.15056   0.17539   0.18201
 Alpha virt. eigenvalues --    0.19023   0.21061   0.22334   0.23529   0.25462
 Alpha virt. eigenvalues --    0.26134   0.27809   0.29477   0.30859   0.32677
 Alpha virt. eigenvalues --    0.33819   0.34894   0.35214   0.36273   0.38083
 Alpha virt. eigenvalues --    0.38888   0.39303   0.41134   0.43641   0.44078
 Alpha virt. eigenvalues --    0.45490   0.46795   0.47841   0.48216   0.48431
 Alpha virt. eigenvalues --    0.48699   0.49703   0.50228   0.50423   0.51078
 Alpha virt. eigenvalues --    0.52385   0.52442   0.53520   0.54602   0.54654
 Alpha virt. eigenvalues --    0.55811   0.56466   0.59308   0.60671   0.62699
 Alpha virt. eigenvalues --    0.63083   0.63754   0.64456   0.65381   0.66117
 Alpha virt. eigenvalues --    0.66393   0.66660   0.67167   0.68717   0.68954
 Alpha virt. eigenvalues --    0.68993   0.70709   0.70984   0.72230   0.72264
 Alpha virt. eigenvalues --    0.72921   0.73699   0.74287   0.75407   0.75766
 Alpha virt. eigenvalues --    0.77711   0.78524   0.79684   0.80038   0.82391
 Alpha virt. eigenvalues --    0.83313   0.84581   0.91858   0.93006   0.94134
 Alpha virt. eigenvalues --    0.95815   1.00107   1.01930   1.04687   1.09087
 Alpha virt. eigenvalues --    1.12735   1.16310   1.18047   1.19425   1.20531
 Alpha virt. eigenvalues --    1.20781   1.22154   1.23024   1.24561   1.25527
 Alpha virt. eigenvalues --    1.26370   1.28008   1.28061   1.29909   1.30934
 Alpha virt. eigenvalues --    1.32190   1.39305   1.40488   1.47763   1.48883
 Alpha virt. eigenvalues --    1.50954   1.53676   1.55092   1.62845   1.67501
 Alpha virt. eigenvalues --    1.69024   1.70148   1.70858   1.70981   1.71780
 Alpha virt. eigenvalues --    1.73110   1.73253   1.74320   1.76003   1.78023
 Alpha virt. eigenvalues --    1.78062   1.79461   1.80105   1.81843   1.83181
 Alpha virt. eigenvalues --    1.83339   1.85618   1.86579   1.87499   1.89972
 Alpha virt. eigenvalues --    1.92363   1.94664   1.95131   1.97027   1.98127
 Alpha virt. eigenvalues --    1.99787   2.00090   2.02065   2.04455   2.09333
 Alpha virt. eigenvalues --    2.10563   2.13102   2.13753   2.16156   2.16435
 Alpha virt. eigenvalues --    2.17408   2.18115   2.19868   2.23906   2.28070
 Alpha virt. eigenvalues --    2.28213   2.28517   2.30870   2.33077   2.33622
 Alpha virt. eigenvalues --    2.35533   2.37076   2.37181   2.39606   2.45964
 Alpha virt. eigenvalues --    2.46753   2.49419   2.58473   2.59471   2.60909
 Alpha virt. eigenvalues --    2.60962   2.64228   2.64787   2.66315   2.70181
 Alpha virt. eigenvalues --    2.70686   2.73319   2.74901   2.78914   2.86025
 Alpha virt. eigenvalues --    2.87722   2.89548   2.90713   2.95029   2.98081
 Alpha virt. eigenvalues --    2.99772   3.04462   3.07300   3.14947   3.18979
 Alpha virt. eigenvalues --    3.33710   3.44940   3.48614   3.50178   3.53115
 Alpha virt. eigenvalues --    3.65411   3.66499   3.85597
          Condensed to atoms (all electrons):
               1          2          3          4          5          6
     1  Br  34.929233   0.228728  -0.062368   0.003196   0.000996   0.003315
     2  C    0.228728   5.319617   0.305895   0.069226  -0.154139   0.089932
     3  C   -0.062368   0.305895   4.991709   0.360768   0.083047  -0.123835
     4  C    0.003196   0.069226   0.360768   5.049113   0.337162  -0.016068
     5  C    0.000996  -0.154139   0.083047   0.337162   5.330667   0.338792
     6  C    0.003315   0.089932  -0.123835  -0.016068   0.338792   5.287314
     7  C   -0.064421   0.315086   0.046284  -0.089343   0.032399   0.376414
     8  C   -0.000133   0.013851  -0.001342   0.021534  -0.110089   0.310185
     9  C    0.000001  -0.001863   0.000401   0.010741  -0.032298  -0.079153
    10  C   -0.000000   0.000004   0.000006  -0.000500   0.018273   0.011278
    11  C    0.000000  -0.000000   0.000001   0.000089   0.001718  -0.001423
    12  C    0.000000   0.000001  -0.000009  -0.000220   0.014409  -0.000130
    13  C   -0.000000   0.000081  -0.000208  -0.008157  -0.087417   0.011499
    14  C    0.000021   0.003355   0.011609  -0.082588   0.216747  -0.026346
    15  H   -0.000392  -0.064068   0.433174  -0.051340   0.013413  -0.001011
    16  H   -0.000176   0.014424  -0.070911   0.443318  -0.053787   0.016306
    17  H    0.000295  -0.065427   0.012663  -0.001537   0.015219  -0.050669
    18  H    0.000001  -0.000268   0.000076  -0.000492   0.002043   0.002704
    19  H    0.000001  -0.000268   0.000076  -0.000492   0.002043   0.002704
    20  H    0.000000  -0.000000  -0.000000   0.000002  -0.000796   0.000811
    21  H   -0.000000   0.000000   0.000000  -0.000001   0.000016   0.000020
    22  H    0.000000   0.000000  -0.000000   0.000003  -0.000416   0.000008
    23  H   -0.000000  -0.000014   0.000136   0.004374  -0.023090  -0.000461
               7          8          9         10         11         12
     1  Br  -0.064421  -0.000133   0.000001  -0.000000   0.000000   0.000000
     2  C    0.315086   0.013851  -0.001863   0.000004  -0.000000   0.000001
     3  C    0.046284  -0.001342   0.000401   0.000006   0.000001  -0.000009
     4  C   -0.089343   0.021534   0.010741  -0.000500   0.000089  -0.000220
     5  C    0.032399  -0.110089  -0.032298   0.018273   0.001718   0.014409
     6  C    0.376414   0.310185  -0.079153   0.011278  -0.001423  -0.000130
     7  C    5.003261  -0.089774   0.014254  -0.000352   0.000005   0.000002
     8  C   -0.089774   4.878284   0.295828  -0.079529   0.011495   0.000071
     9  C    0.014254   0.295828   5.346173   0.344332   0.072795  -0.135508
    10  C   -0.000352  -0.079529   0.344332   5.041595   0.328248   0.064213
    11  C    0.000005   0.011495   0.072795   0.328248   5.038697   0.315820
    12  C    0.000002   0.000071  -0.135508   0.064213   0.315820   5.029272
    13  C   -0.000512   0.019961  -0.014041  -0.104625   0.054030   0.335808
    14  C    0.014040  -0.108668   0.352119   0.027026  -0.127511   0.071861
    15  H    0.012408   0.000027   0.000010  -0.000000   0.000000  -0.000000
    16  H   -0.001992  -0.000621  -0.000298   0.000035  -0.000015   0.000122
    17  H    0.435635  -0.016724   0.000900   0.000015  -0.000000  -0.000000
    18  H   -0.002559   0.327739   0.002541  -0.002482  -0.000282   0.000078
    19  H   -0.002559   0.327738   0.002541  -0.002482  -0.000282   0.000078
    20  H    0.000012  -0.016407  -0.065533   0.446539  -0.067686   0.013088
    21  H   -0.000000  -0.000346   0.014414  -0.065255   0.441973  -0.066771
    22  H   -0.000000   0.000033  -0.001001   0.012806  -0.066275   0.440017
    23  H    0.000034  -0.000584   0.016579  -0.001782   0.012795  -0.068874
              13         14         15         16         17         18
     1  Br  -0.000000   0.000021  -0.000392  -0.000176   0.000295   0.000001
     2  C    0.000081   0.003355  -0.064068   0.014424  -0.065427  -0.000268
     3  C   -0.000208   0.011609   0.433174  -0.070911   0.012663   0.000076
     4  C   -0.008157  -0.082588  -0.051340   0.443318  -0.001537  -0.000492
     5  C   -0.087417   0.216747   0.013413  -0.053787   0.015219   0.002043
     6  C    0.011499  -0.026346  -0.001011   0.016306  -0.050669   0.002704
     7  C   -0.000512   0.014040   0.012408  -0.001992   0.435635  -0.002559
     8  C    0.019961  -0.108668   0.000027  -0.000621  -0.016724   0.327739
     9  C   -0.014041   0.352119   0.000010  -0.000298   0.000900   0.002541
    10  C   -0.104625   0.027026  -0.000000   0.000035   0.000015  -0.002482
    11  C    0.054030  -0.127511   0.000000  -0.000015  -0.000000  -0.000282
    12  C    0.335808   0.071861  -0.000000   0.000122  -0.000000   0.000078
    13  C    5.089060   0.362325   0.000005   0.003998   0.000002  -0.000480
    14  C    0.362325   5.279808  -0.000405  -0.022495  -0.000804   0.002272
    15  H    0.000005  -0.000405   0.644997  -0.011296  -0.000236  -0.000000
    16  H    0.003998  -0.022495  -0.011296   0.669612   0.000031   0.000014
    17  H    0.000002  -0.000804  -0.000236   0.000031   0.656161   0.001977
    18  H   -0.000480   0.002272  -0.000000   0.000014   0.001977   0.614045
    19  H   -0.000480   0.002273  -0.000000   0.000014   0.001977  -0.016135
    20  H   -0.001523   0.015705   0.000000   0.000001   0.000000   0.002067
    21  H    0.013261  -0.001277  -0.000000  -0.000000  -0.000000   0.000005
    22  H   -0.062935   0.013936  -0.000000   0.000006   0.000000  -0.000000
    23  H    0.437905  -0.051189   0.000006   0.000918   0.000001   0.000014
              19         20         21         22         23
     1  Br   0.000001   0.000000  -0.000000   0.000000  -0.000000
     2  C   -0.000268  -0.000000   0.000000   0.000000  -0.000014
     3  C    0.000076  -0.000000   0.000000  -0.000000   0.000136
     4  C   -0.000492   0.000002  -0.000001   0.000003   0.004374
     5  C    0.002043  -0.000796   0.000016  -0.000416  -0.023090
     6  C    0.002704   0.000811   0.000020   0.000008  -0.000461
     7  C   -0.002559   0.000012  -0.000000  -0.000000   0.000034
     8  C    0.327738  -0.016407  -0.000346   0.000033  -0.000584
     9  C    0.002541  -0.065533   0.014414  -0.001001   0.016579
    10  C   -0.002482   0.446539  -0.065255   0.012806  -0.001782
    11  C   -0.000282  -0.067686   0.441973  -0.066275   0.012795
    12  C    0.000078   0.013088  -0.066771   0.440017  -0.068874
    13  C   -0.000480  -0.001523   0.013261  -0.062935   0.437905
    14  C    0.002273   0.015705  -0.001277   0.013936  -0.051189
    15  H   -0.000000   0.000000  -0.000000  -0.000000   0.000006
    16  H    0.000014   0.000001  -0.000000   0.000006   0.000918
    17  H    0.001977   0.000000  -0.000000   0.000000   0.000001
    18  H   -0.016135   0.002067   0.000005  -0.000000   0.000014
    19  H    0.614046   0.002067   0.000005  -0.000000   0.000014
    20  H    0.002067   0.678876  -0.011232  -0.000244   0.000034
    21  H    0.000005  -0.011232   0.665798  -0.011666  -0.000245
    22  H   -0.000000  -0.000244  -0.011666   0.666520  -0.011050
    23  H    0.000014   0.000034  -0.000245  -0.011050   0.677984
 Mulliken charges:
               1
     1  Br  -0.038296
     2  C   -0.074152
     3  C    0.012829
     4  C   -0.048787
     5  C    0.055087
     6  C   -0.152186
     7  C    0.001676
     8  C    0.217469
     9  C   -0.143931
    10  C   -0.037361
    11  C   -0.014192
    12  C   -0.013329
    13  C   -0.047559
    14  C    0.048188
    15  H    0.024709
    16  H    0.012794
    17  H    0.010521
    18  H    0.067125
    19  H    0.067124
    20  H    0.004220
    21  H    0.021299
    22  H    0.020260
    23  H    0.006495
 Sum of Mulliken charges =  -0.00000
 Mulliken charges with hydrogens summed into heavy atoms:
               1
     1  Br  -0.038296
     2  C   -0.074152
     3  C    0.037538
     4  C   -0.035993
     5  C    0.055087
     6  C   -0.152186
     7  C    0.012197
     8  C    0.351717
     9  C   -0.143931
    10  C   -0.033141
    11  C    0.007107
    12  C    0.006931
    13  C   -0.041064
    14  C    0.048188
 Electronic spatial extent (au):  <R**2>=           4889.3504
 Charge=             -0.0000 electrons
 Dipole moment (field-independent basis, Debye):
    X=              1.8726    Y=             -0.3682    Z=              0.0000  Tot=              1.9084
 Quadrupole moment (field-independent basis, Debye-Ang):
   XX=            -90.3594   YY=            -81.7181   ZZ=            -97.8469
   XY=             -1.0674   XZ=             -0.0000   YZ=             -0.0000
 Traceless Quadrupole moment (field-independent basis, Debye-Ang):
   XX=             -0.3846   YY=              8.2567   ZZ=             -7.8721
   XY=             -1.0674   XZ=             -0.0000   YZ=             -0.0000
 Octapole moment (field-independent basis, Debye-Ang**2):
  XXX=            -79.1883  YYY=             -1.2491  ZZZ=              0.0001  XYY=            -30.1102
  XXY=             -1.3031  XXZ=              0.0001  XZZ=            -51.7962  YZZ=             -5.1617
  YYZ=              0.0000  XYZ=             -0.0000
 Hexadecapole moment (field-independent basis, Debye-Ang**3):
 XXXX=          -4645.4966 YYYY=           -696.1196 ZZZZ=           -114.2020 XXXY=             21.5814
 XXXZ=             -0.0003 YYYX=              9.0574 YYYZ=             -0.0000 ZZZX=             -0.0001
 ZZZY=             -0.0001 XXYY=           -893.0906 XXZZ=           -917.9668 YYZZ=           -152.3704
 XXYZ=             -0.0001 YYXZ=             -0.0001 ZZXY=              1.1417
 N-N= 1.038640498440D+03 E-N=-9.387188777146D+03  KE= 3.065949442463D+03
 Unable to Open any file for archive entry.
 1\1\GINC-DYNAMO\SP\RmPW1PW91\def2SVP\C13H9Br1\RPATON\26-Sep-2024\0\\# 
 nmr=giao mpw1pw91/def2svp\\arbr34_wb97xd_nmrcreated by GaussianPrep\\0
 ,1\Br,0,3.832292,-0.112738,-0.000001\C,0,1.955577,0.143382,0.000003\C,
 0,1.444482,1.443484,0.000001\C,0,0.065161,1.645215,0.000001\C,0,-0.784
 325,0.540792,0.000001\C,0,-0.256555,-0.762172,0.000001\C,0,1.116555,-0
 .972986,0.000003\C,0,-1.37428,-1.777081,-0.000002\C,0,-2.61136,-0.9107
 2,0.000001\C,0,-3.950585,-1.283392,0.000002\C,0,-4.929868,-0.28716,-0.
 000001\C,0,-4.57173,1.063936,0.000001\C,0,-3.229545,1.442857,-0.000003
 \C,0,-2.252172,0.448808,-0.000002\H,0,2.126916,2.294546,-0.000001\H,0,
 -0.334429,2.661602,-0.000001\H,0,1.537161,-1.980207,0.000002\H,0,-1.33
 0937,-2.432411,-0.885757\H,0,-1.330939,-2.432413,0.88575\H,0,-4.236777
 ,-2.338007,0.000001\H,0,-5.985756,-0.566295,-0.000001\H,0,-5.350569,1.
 829566,0.000001\H,0,-2.953031,2.499653,-0.000001\\Version=ES64L-G16Rev
 C.01\State=1-A\HF=-3074.392184\RMSD=6.597e-09\Dipole=-0.7367294,-0.144
 8482,-0.0000022\Quadrupole=-0.2859504,6.1386352,-5.8526849,0.7935831,-
 0.0000053,0.0000032\PG=C01 [X(C13H9Br1)]\\@
 The archive entry for this job was punched.


 NEVER LISTEN TO CRITICISM
 OR YOU'LL BE DOIN' EVERYBODY ELSE'S THING BUT BUT YOUR OWN.

                                               -- ANDY CAPP
 Job cpu time:       0 days  0 hours 12 minutes 23.9 seconds.
 Elapsed time:       0 days  0 hours  0 minutes 34.5 seconds.
 File lengths (MBytes):  RWF=     45 Int=      0 D2E=      0 Chk=      6 Scr=      1
 Normal termination of Gaussian 16 at Thu Sep 26 10:41:54 2024.
