 Entering Gaussian System, Link 0=/usr/local/Gaussian/G16C/g16/g16
 Input=arbr47_wb97xd_popn.com
 Output=arbr47_wb97xd_popn.log
 Initial command:
 /usr/local/Gaussian/G16C/g16/l1.exe "/home/rpaton/opt/dzvp/popn/Gau-1000084.inp" -scrdir="/home/rpaton/opt/dzvp/popn/"
 Entering Link 1 = /usr/local/Gaussian/G16C/g16/l1.exe PID=   1000085.
  
 Copyright (c) 1988-2019, Gaussian, Inc.  All Rights Reserved.
  
 This is part of the Gaussian(R) 16 program.  It is based on
 the Gaussian(R) 09 system (copyright 2009, Gaussian, Inc.),
 the Gaussian(R) 03 system (copyright 2003, Gaussian, Inc.),
 the Gaussian(R) 98 system (copyright 1998, Gaussian, Inc.),
 the Gaussian(R) 94 system (copyright 1995, Gaussian, Inc.),
 the Gaussian 92(TM) system (copyright 1992, Gaussian, Inc.),
 the Gaussian 90(TM) system (copyright 1990, Gaussian, Inc.),
 the Gaussian 88(TM) system (copyright 1988, Gaussian, Inc.),
 the Gaussian 86(TM) system (copyright 1986, Carnegie Mellon
 University), and the Gaussian 82(TM) system (copyright 1983,
 Carnegie Mellon University). Gaussian is a federally registered
 trademark of Gaussian, Inc.
  
 This software contains proprietary and confidential information,
 including trade secrets, belonging to Gaussian, Inc.
  
 This software is provided under written license and may be
 used, copied, transmitted, or stored only in accord with that
 written license.
  
 The following legend is applicable only to US Government
 contracts under FAR:
  
                    RESTRICTED RIGHTS LEGEND
  
 Use, reproduction and disclosure by the US Government is
 subject to restrictions as set forth in subparagraphs (a)
 and (c) of the Commercial Computer Software - Restricted
 Rights clause in FAR 52.227-19.
  
 Gaussian, Inc.
 340 Quinnipiac St., Bldg. 40, Wallingford CT 06492
  
  
 ---------------------------------------------------------------
 Warning -- This program may not be used in any manner that
 competes with the business of Gaussian, Inc. or will provide
 assistance to any competitor of Gaussian, Inc.  The licensee
 of this program is prohibited from giving any competitor of
 Gaussian, Inc. access to this program.  By using this program,
 the user acknowledges that Gaussian, Inc. is engaged in the
 business of creating and licensing software in the field of
 computational chemistry and represents and warrants to the
 licensee that it is not a competitor of Gaussian, Inc. and that
 it will not use this program in any manner prohibited above.
 ---------------------------------------------------------------
  

 Cite this work as:
 Gaussian 16, Revision C.01,
 M. J. Frisch, G. W. Trucks, H. B. Schlegel, G. E. Scuseria, 
 M. A. Robb, J. R. Cheeseman, G. Scalmani, V. Barone, 
 G. A. Petersson, H. Nakatsuji, X. Li, M. Caricato, A. V. Marenich, 
 J. Bloino, B. G. Janesko, R. Gomperts, B. Mennucci, H. P. Hratchian, 
 J. V. Ortiz, A. F. Izmaylov, J. L. Sonnenberg, D. Williams-Young, 
 F. Ding, F. Lipparini, F. Egidi, J. Goings, B. Peng, A. Petrone, 
 T. Henderson, D. Ranasinghe, V. G. Zakrzewski, J. Gao, N. Rega, 
 G. Zheng, W. Liang, M. Hada, M. Ehara, K. Toyota, R. Fukuda, 
 J. Hasegawa, M. Ishida, T. Nakajima, Y. Honda, O. Kitao, H. Nakai, 
 T. Vreven, K. Throssell, J. A. Montgomery, Jr., J. E. Peralta, 
 F. Ogliaro, M. J. Bearpark, J. J. Heyd, E. N. Brothers, K. N. Kudin, 
 V. N. Staroverov, T. A. Keith, R. Kobayashi, J. Normand, 
 K. Raghavachari, A. P. Rendell, J. C. Burant, S. S. Iyengar, 
 J. Tomasi, M. Cossi, J. M. Millam, M. Klene, C. Adamo, R. Cammi, 
 J. W. Ochterski, R. L. Martin, K. Morokuma, O. Farkas, 
 J. B. Foresman, and D. J. Fox, Gaussian, Inc., Wallingford CT, 2019.
 
 ******************************************
 Gaussian 16:  ES64L-G16RevC.01  3-Jul-2019
                26-Sep-2024 
 ******************************************
 %chk=arbr47_wb97xd_popn.chk
 %mem=48GB
 %nprocshared=24
 Will use up to   24 processors via shared memory.
 --------------------------------------------------
 # pop=(nbo6read,savenbos,hirshfeld) wb97xd/def2svp
 --------------------------------------------------
 1/38=1,163=2,172=1/1;
 2/12=2,17=6,18=5,40=1/2;
 3/5=43,7=101,11=2,25=1,30=1,74=-58/1,2,3;
 4//1;
 5/5=2,38=5/2;
 6/7=2,8=2,9=2,10=2,28=1,40=2,73=1,79=1,113=1,114=1,124=2103,126=1/1,12;
 99/5=1,9=1/99;
 -----------------------------------------
 arbr47_wb97xd_popncreated by GaussianPrep
 -----------------------------------------
 Symbolic Z-matrix:
 Charge =  0 Multiplicity = 1
 O                    -4.21408  -1.57107   0.46283 
 C                    -3.33965  -0.81931   0.12217 
 C                    -3.45003   0.67883   0.38165 
 O                    -2.49273   1.46579  -0.28749 
 C                    -1.20614   1.03454  -0.19202 
 C                    -0.1854    1.96938  -0.02917 
 C                     1.13693   1.5431    0.04781 
 C                     1.42459   0.18014  -0.0256 
 Br                    3.21889  -0.40799   0.10082 
 C                     0.4061   -0.75537  -0.19477 
 C                    -0.91901  -0.33206  -0.29376 
 C                    -2.06541  -1.26909  -0.5653 
 H                    -4.44348   1.021     0.06286 
 H                    -3.37786   0.82449   1.47648 
 H                    -0.44275   3.02734   0.0383 
 H                     1.94173   2.26804   0.17719 
 H                     0.64334  -1.81888  -0.26416 
 H                    -1.85251  -2.30797  -0.27879 
 H                    -2.2871   -1.27304  -1.64949 
 
                          Input orientation:                          
 ---------------------------------------------------------------------
 Center     Atomic      Atomic             Coordinates (Angstroms)
 Number     Number       Type             X           Y           Z
 ---------------------------------------------------------------------
      1          8           0       -4.214079   -1.571068    0.462829
      2          6           0       -3.339651   -0.819305    0.122165
      3          6           0       -3.450031    0.678828    0.381654
      4          8           0       -2.492730    1.465787   -0.287494
      5          6           0       -1.206140    1.034543   -0.192015
      6          6           0       -0.185399    1.969375   -0.029165
      7          6           0        1.136934    1.543098    0.047813
      8          6           0        1.424586    0.180135   -0.025604
      9         35           0        3.218892   -0.407989    0.100823
     10          6           0        0.406098   -0.755372   -0.194771
     11          6           0       -0.919009   -0.332063   -0.293756
     12          6           0       -2.065406   -1.269092   -0.565298
     13          1           0       -4.443476    1.021002    0.062862
     14          1           0       -3.377863    0.824485    1.476475
     15          1           0       -0.442753    3.027341    0.038304
     16          1           0        1.941726    2.268037    0.177189
     17          1           0        0.643339   -1.818878   -0.264164
     18          1           0       -1.852509   -2.307973   -0.278787
     19          1           0       -2.287101   -1.273037   -1.649485
 ---------------------------------------------------------------------
                    Distance matrix (angstroms):
                    1          2          3          4          5
     1  O    0.000000
     2  C    1.202424   0.000000
     3  C    2.377476   1.524441   0.000000
     4  O    3.570506   2.471182   1.408364   0.000000
     5  C    4.033079   2.843823   2.343219   1.360295   0.000000
     6  C    5.385820   4.212949   3.534417   2.375734   1.393680
     7  C    6.205128   5.062242   4.679600   3.645939   2.409594
     8  C    5.924510   4.870182   4.916955   4.131205   2.770997
     9  Br   7.532122   6.571463   6.762734   6.023658   4.663428
    10  C    4.737492   3.759677   4.154386   3.653129   2.408965
    11  C    3.600700   2.503977   2.807873   2.389331   1.400145
    12  C    2.401048   1.516118   2.570661   2.781968   2.486848
    13  H    2.632760   2.146783   1.098018   2.031254   3.247382
    14  H    2.732290   2.130179   1.106823   2.075166   2.746701
    15  H    5.962255   4.816195   3.831073   2.597499   2.146404
    16  H    7.260458   6.117814   5.624805   4.530335   3.401012
    17  H    4.917768   4.124634   4.838522   4.541420   3.401145
    18  H    2.582641   2.142075   3.450977   3.827692   3.405545
    19  H    2.874706   2.110090   3.047574   3.065691   2.935578
                    6          7          8          9         10
     6  C    0.000000
     7  C    1.391475   0.000000
     8  C    2.406957   1.394920   0.000000
     9  Br   4.154269   2.853787   1.892461   0.000000
    10  C    2.793124   2.424032   1.393237   2.849537   0.000000
    11  C    2.429981   2.803533   2.413854   4.157365   1.394596
    12  C    3.782794   4.305729   3.817273   5.395278   2.551378
    13  H    4.363382   5.604800   5.928662   7.794571   5.171097
    14  H    3.710735   4.789663   5.072962   6.850444   4.428021
    15  H    1.090906   2.167597   3.405528   5.021259   3.883785
    16  H    2.157879   1.090855   2.160531   2.966159   3.411379
    17  H    3.884957   3.412308   2.159470   2.959273   1.091853
    18  H    4.597529   4.886122   4.122394   5.428918   2.742067
    19  H    4.189967   4.747152   4.304105   5.841904   3.104431
                   11         12         13         14         15
    11  C    0.000000
    12  C    1.505319   0.000000
    13  H    3.792074   3.360704   0.000000
    14  H    3.243036   3.205378   1.781138   0.000000
    15  H    3.409205   4.632135   4.475688   3.941546   0.000000
    16  H    3.894370   5.396265   6.506840   5.663039   2.506306
    17  H    2.156948   2.780332   5.835028   5.117349   4.975633
    18  H    2.185376   1.098493   4.232246   3.901274   5.527525
    19  H    2.143621   1.106628   3.583950   3.919309   4.974284
                   16         17         18         19
    16  H    0.000000
    17  H    4.310856   0.000000
    18  H    5.961879   2.543361   0.000000
    19  H    5.810243   3.287025   1.771659   0.000000
 Stoichiometry    C9H7BrO2
 Framework group  C1[X(C9H7BrO2)]
 Deg. of freedom    51
 Full point group                 C1      NOp   1
 Largest Abelian subgroup         C1      NOp   1
 Largest concise Abelian subgroup C1      NOp   1
                         Standard orientation:                         
 ---------------------------------------------------------------------
 Center     Atomic      Atomic             Coordinates (Angstroms)
 Number     Number       Type             X           Y           Z
 ---------------------------------------------------------------------
      1          8           0        4.214079   -1.571068   -0.462829
      2          6           0        3.339651   -0.819305   -0.122165
      3          6           0        3.450031    0.678828   -0.381654
      4          8           0        2.492730    1.465787    0.287494
      5          6           0        1.206140    1.034543    0.192015
      6          6           0        0.185399    1.969375    0.029165
      7          6           0       -1.136934    1.543098   -0.047813
      8          6           0       -1.424586    0.180135    0.025604
      9         35           0       -3.218892   -0.407989   -0.100823
     10          6           0       -0.406098   -0.755372    0.194771
     11          6           0        0.919009   -0.332063    0.293756
     12          6           0        2.065406   -1.269092    0.565298
     13          1           0        4.443476    1.021002   -0.062862
     14          1           0        3.377863    0.824485   -1.476475
     15          1           0        0.442753    3.027341   -0.038304
     16          1           0       -1.941726    2.268037   -0.177189
     17          1           0       -0.643339   -1.818878    0.264164
     18          1           0        1.852509   -2.307973    0.278787
     19          1           0        2.287101   -1.273037    1.649485
 ---------------------------------------------------------------------
 Rotational constants (GHZ):           1.9358465           0.3053237           0.2688565
 Standard basis: def2SVP (5D, 7F)
 There are   235 symmetry adapted cartesian basis functions of A   symmetry.
 There are   221 symmetry adapted basis functions of A   symmetry.
   221 basis functions,   404 primitive gaussians,   235 cartesian basis functions
    56 alpha electrons       56 beta electrons
       nuclear repulsion energy       905.6291197828 Hartrees.
 NAtoms=   19 NActive=   19 NUniq=   19 SFac= 1.00D+00 NAtFMM=   60 NAOKFM=F Big=F
 Integral buffers will be    131072 words long.
 Raffenetti 2 integral format.
 Two-electron integral symmetry is turned on.
 Nuclear repulsion after empirical dispersion term =      905.6181081783 Hartrees.
 One-electron integrals computed using PRISM.
   1 Symmetry operations used in ECPInt.
 ECPInt:  NShTT=    4950 NPrTT=   19707 LenC2=    4713 LenP2D=   13904.
 LDataN:  DoStor=T MaxTD1= 4 Len=   56
 NBasis=   221 RedAO= T EigKep=  2.33D-04  NBF=   221
 NBsUse=   221 1.00D-06 EigRej= -1.00D+00 NBFU=   221
 ExpMin= 1.22D-01 ExpMax= 1.13D+05 ExpMxC= 1.70D+04 IAcc=3 IRadAn=         5 AccDes= 0.00D+00
 Harris functional with IExCor= 4639 and IRadAn=       5 diagonalized for initial guess.
 HarFok:  IExCor= 4639 AccDes= 0.00D+00 IRadAn=         5 IDoV= 1 UseB2=F ITyADJ=14
 ICtDFT=  3500011 ScaDFX=  1.000000  1.000000  1.000000  1.000000
 FoFCou: FMM=F IPFlag=           0 FMFlag=      100000 FMFlg1=           0
         NFxFlg=           0 DoJE=T BraDBF=F KetDBF=T FulRan=T
         wScrn=  0.000000 ICntrl=       500 IOpCl=  0 I1Cent=   200000004 NGrid=           0
         NMat0=    1 NMatS0=      1 NMatT0=    0 NMatD0=    1 NMtDS0=    0 NMtDT0=    0
 Petite list used in FoFCou.
 Requested convergence on RMS density matrix=1.00D-08 within 128 cycles.
 Requested convergence on MAX density matrix=1.00D-06.
 Requested convergence on             energy=1.00D-06.
 No special actions if energy rises.
 Integral accuracy reduced to 1.0D-05 until final iterations.
 Initial convergence to 1.0D-05 achieved.  Increase integral accuracy.
 SCF Done:  E(RwB97XD) =  -3070.98914376     A.U. after   16 cycles
            NFock= 16  Conv=0.58D-08     -V/T= 2.0025

 **********************************************************************

            Population analysis using the SCF Density.

 **********************************************************************

 Orbital symmetries:
       Occupied  (A) (A) (A) (A) (A) (A) (A) (A) (A) (A) (A) (A)
                 (A) (A) (A) (A) (A) (A) (A) (A) (A) (A) (A) (A)
                 (A) (A) (A) (A) (A) (A) (A) (A) (A) (A) (A) (A)
                 (A) (A) (A) (A) (A) (A) (A) (A) (A) (A) (A) (A)
                 (A) (A) (A) (A) (A) (A) (A) (A)
       Virtual   (A) (A) (A) (A) (A) (A) (A) (A) (A) (A) (A) (A)
                 (A) (A) (A) (A) (A) (A) (A) (A) (A) (A) (A) (A)
                 (A) (A) (A) (A) (A) (A) (A) (A) (A) (A) (A) (A)
                 (A) (A) (A) (A) (A) (A) (A) (A) (A) (A) (A) (A)
                 (A) (A) (A) (A) (A) (A) (A) (A) (A) (A) (A) (A)
                 (A) (A) (A) (A) (A) (A) (A) (A) (A) (A) (A) (A)
                 (A) (A) (A) (A) (A) (A) (A) (A) (A) (A) (A) (A)
                 (A) (A) (A) (A) (A) (A) (A) (A) (A) (A) (A) (A)
                 (A) (A) (A) (A) (A) (A) (A) (A) (A) (A) (A) (A)
                 (A) (A) (A) (A) (A) (A) (A) (A) (A) (A) (A) (A)
                 (A) (A) (A) (A) (A) (A) (A) (A) (A) (A) (A) (A)
                 (A) (A) (A) (A) (A) (A) (A) (A) (A) (A) (A) (A)
                 (A) (A) (A) (A) (A) (A) (A) (A) (A) (A) (A) (A)
                 (A) (A) (A) (A) (A) (A) (A) (A) (A)
 The electronic state is 1-A.
 Alpha  occ. eigenvalues -- -483.06390 -62.64598 -56.45373 -56.45007 -56.45001
 Alpha  occ. eigenvalues --  -19.30395 -19.26569 -10.40691 -10.37642 -10.37482
 Alpha  occ. eigenvalues --  -10.36213 -10.33269 -10.33123 -10.32857 -10.32668
 Alpha  occ. eigenvalues --  -10.32090  -8.81554  -6.64119  -6.62775  -6.62763
 Alpha  occ. eigenvalues --   -2.74492  -2.74098  -2.74090  -2.73018  -2.73018
 Alpha  occ. eigenvalues --   -1.18779  -1.15568  -0.98564  -0.92109  -0.90399
 Alpha  occ. eigenvalues --   -0.85531  -0.83839  -0.78700  -0.72415  -0.71268
 Alpha  occ. eigenvalues --   -0.65274  -0.63303  -0.60556  -0.59734  -0.56240
 Alpha  occ. eigenvalues --   -0.55654  -0.54334  -0.53654  -0.52711  -0.51099
 Alpha  occ. eigenvalues --   -0.50281  -0.48653  -0.46478  -0.46280  -0.43829
 Alpha  occ. eigenvalues --   -0.42681  -0.38514  -0.37527  -0.35805  -0.33969
 Alpha  occ. eigenvalues --   -0.31119
 Alpha virt. eigenvalues --    0.02909   0.04508   0.04785   0.07860   0.13685
 Alpha virt. eigenvalues --    0.16234   0.16807   0.17672   0.19495   0.20604
 Alpha virt. eigenvalues --    0.20779   0.21816   0.23081   0.26781   0.28476
 Alpha virt. eigenvalues --    0.31059   0.33413   0.33908   0.35492   0.37073
 Alpha virt. eigenvalues --    0.38779   0.39963   0.40810   0.41660   0.46863
 Alpha virt. eigenvalues --    0.47592   0.49794   0.52612   0.52914   0.53350
 Alpha virt. eigenvalues --    0.54972   0.55080   0.57083   0.57645   0.58229
 Alpha virt. eigenvalues --    0.58595   0.59582   0.61090   0.61518   0.62284
 Alpha virt. eigenvalues --    0.63815   0.65937   0.67288   0.68838   0.69916
 Alpha virt. eigenvalues --    0.70212   0.71057   0.71489   0.72093   0.72615
 Alpha virt. eigenvalues --    0.72775   0.73737   0.75983   0.76386   0.76968
 Alpha virt. eigenvalues --    0.77527   0.78843   0.80611   0.81439   0.82671
 Alpha virt. eigenvalues --    0.83164   0.85466   0.85637   0.88625   0.91345
 Alpha virt. eigenvalues --    0.92914   0.97194   1.01033   1.02261   1.04193
 Alpha virt. eigenvalues --    1.08038   1.11648   1.14696   1.16474   1.21014
 Alpha virt. eigenvalues --    1.23384   1.25337   1.28987   1.29542   1.31739
 Alpha virt. eigenvalues --    1.33343   1.34121   1.36516   1.37559   1.45889
 Alpha virt. eigenvalues --    1.47440   1.50245   1.55095   1.56582   1.59443
 Alpha virt. eigenvalues --    1.64299   1.66358   1.69529   1.71890   1.72558
 Alpha virt. eigenvalues --    1.74868   1.76064   1.79789   1.79853   1.80314
 Alpha virt. eigenvalues --    1.81842   1.82820   1.86186   1.87031   1.87205
 Alpha virt. eigenvalues --    1.89412   1.92585   1.93334   1.94589   1.96088
 Alpha virt. eigenvalues --    1.96228   1.97467   1.98855   2.03470   2.06674
 Alpha virt. eigenvalues --    2.09886   2.13526   2.14892   2.16803   2.19406
 Alpha virt. eigenvalues --    2.21609   2.26174   2.28562   2.32838   2.33843
 Alpha virt. eigenvalues --    2.36017   2.36421   2.38381   2.39771   2.42599
 Alpha virt. eigenvalues --    2.47174   2.47997   2.50561   2.54260   2.63737
 Alpha virt. eigenvalues --    2.65899   2.66884   2.69782   2.70855   2.75252
 Alpha virt. eigenvalues --    2.76092   2.79401   2.83293   2.87204   2.90110
 Alpha virt. eigenvalues --    2.91368   2.95356   2.97127   3.00084   3.05317
 Alpha virt. eigenvalues --    3.08855   3.13137   3.17831   3.24831   3.27891
 Alpha virt. eigenvalues --    3.42848   3.44054   3.52228   3.55415   3.56007
 Alpha virt. eigenvalues --    3.60243   3.70742   3.72777   3.74287   3.92024
          Condensed to atoms (all electrons):
               1          2          3          4          5          6
     1  O    7.639023   0.700833  -0.073790   0.001336   0.000519   0.000002
     2  C    0.700833   4.821155   0.324947  -0.037148  -0.018755   0.000028
     3  C   -0.073790   0.324947   4.753447   0.290022  -0.059599   0.000075
     4  O    0.001336  -0.037148   0.290022   7.896216   0.380746  -0.060387
     5  C    0.000519  -0.018755  -0.059599   0.380746   5.032463   0.360533
     6  C    0.000002   0.000028   0.000075  -0.060387   0.360533   5.029360
     7  C   -0.000000   0.000051   0.000214   0.004355   0.097476   0.313731
     8  C   -0.000000  -0.000717   0.000065   0.000069  -0.158010   0.079022
     9  Br  -0.000000   0.000001   0.000000   0.000001   0.001132   0.002485
    10  C   -0.000092   0.006227   0.000492   0.004144   0.062754  -0.090555
    11  C    0.004779  -0.001899   0.019443  -0.102244   0.219058   0.011089
    12  C   -0.085818   0.296472  -0.218406   0.016064  -0.084489   0.010201
    13  H    0.005146  -0.005785   0.365214  -0.018665   0.003505  -0.000381
    14  H    0.003154  -0.025451   0.362055  -0.030679   0.010653   0.002744
    15  H   -0.000000   0.000127  -0.000121   0.001073  -0.068193   0.448678
    16  H    0.000000   0.000001   0.000001  -0.000072   0.012969  -0.051199
    17  H   -0.000007   0.000500  -0.000068  -0.000087   0.013735  -0.001619
    18  H    0.007783  -0.007785   0.011753  -0.000045   0.006831  -0.000366
    19  H    0.000945  -0.003306   0.004189   0.001209   0.001108   0.000169
               7          8          9         10         11         12
     1  O   -0.000000  -0.000000  -0.000000  -0.000092   0.004779  -0.085818
     2  C    0.000051  -0.000717   0.000001   0.006227  -0.001899   0.296472
     3  C    0.000214   0.000065   0.000000   0.000492   0.019443  -0.218406
     4  O    0.004355   0.000069   0.000001   0.004144  -0.102244   0.016064
     5  C    0.097476  -0.158010   0.001132   0.062754   0.219058  -0.084489
     6  C    0.313731   0.079022   0.002485  -0.090555   0.011089   0.010201
     7  C    5.022693   0.304421  -0.058030   0.048788  -0.120074  -0.000994
     8  C    0.304421   5.277751   0.220960   0.340671   0.075968   0.012880
     9  Br  -0.058030   0.220960  34.930863  -0.060324   0.003575  -0.000116
    10  C    0.048788   0.340671  -0.060324   4.953418   0.368642  -0.047346
    11  C   -0.120074   0.075968   0.003575   0.368642   5.529088   0.201657
    12  C   -0.000994   0.012880  -0.000116  -0.047346   0.201657   5.096933
    13  H    0.000005   0.000001   0.000000   0.000060   0.000486   0.008414
    14  H   -0.000183  -0.000035   0.000000  -0.000383  -0.005005   0.006854
    15  H   -0.070008   0.014328  -0.000130  -0.002817   0.019401  -0.000304
    16  H    0.438908  -0.062007  -0.000536   0.012328  -0.001743   0.000011
    17  H    0.012190  -0.059425   0.000259   0.431876  -0.046142  -0.015856
    18  H    0.000073   0.000055  -0.000019  -0.005688  -0.006599   0.340923
    19  H    0.000045  -0.000231   0.000002  -0.007597  -0.013284   0.349821
              13         14         15         16         17         18
     1  O    0.005146   0.003154  -0.000000   0.000000  -0.000007   0.007783
     2  C   -0.005785  -0.025451   0.000127   0.000001   0.000500  -0.007785
     3  C    0.365214   0.362055  -0.000121   0.000001  -0.000068   0.011753
     4  O   -0.018665  -0.030679   0.001073  -0.000072  -0.000087  -0.000045
     5  C    0.003505   0.010653  -0.068193   0.012969   0.013735   0.006831
     6  C   -0.000381   0.002744   0.448678  -0.051199  -0.001619  -0.000366
     7  C    0.000005  -0.000183  -0.070008   0.438908   0.012190   0.000073
     8  C    0.000001  -0.000035   0.014328  -0.062007  -0.059425   0.000055
     9  Br   0.000000   0.000000  -0.000130  -0.000536   0.000259  -0.000019
    10  C    0.000060  -0.000383  -0.002817   0.012328   0.431876  -0.005688
    11  C    0.000486  -0.005005   0.019401  -0.001743  -0.046142  -0.006599
    12  C    0.008414   0.006854  -0.000304   0.000011  -0.015856   0.340923
    13  H    0.578235  -0.013598  -0.000059  -0.000000  -0.000001  -0.000307
    14  H   -0.013598   0.623080  -0.000081   0.000002   0.000000  -0.000529
    15  H   -0.000059  -0.000081   0.641518  -0.011325   0.000021   0.000006
    16  H   -0.000000   0.000002  -0.011325   0.630488  -0.000231  -0.000000
    17  H   -0.000001   0.000000   0.000021  -0.000231   0.642747   0.004925
    18  H   -0.000307  -0.000529   0.000006  -0.000000   0.004925   0.591278
    19  H   -0.000672   0.000267   0.000001   0.000000   0.000313  -0.004976
              19
     1  O    0.000945
     2  C   -0.003306
     3  C    0.004189
     4  O    0.001209
     5  C    0.001108
     6  C    0.000169
     7  C    0.000045
     8  C   -0.000231
     9  Br   0.000002
    10  C   -0.007597
    11  C   -0.013284
    12  C    0.349821
    13  H   -0.000672
    14  H    0.000267
    15  H    0.000001
    16  H    0.000000
    17  H    0.000313
    18  H   -0.004976
    19  H    0.572949
 Mulliken charges:
               1
     1  O   -0.203811
     2  C   -0.049496
     3  C    0.220067
     4  O   -0.345908
     5  C    0.185565
     6  C   -0.053608
     7  C    0.006338
     8  C   -0.045764
     9  Br  -0.040123
    10  C   -0.014599
    11  C   -0.156194
    12  C    0.113102
    13  H    0.078402
    14  H    0.067132
    15  H    0.027887
    16  H    0.032405
    17  H    0.016869
    18  H    0.062689
    19  H    0.099049
 Sum of Mulliken charges =  -0.00000
 Mulliken charges with hydrogens summed into heavy atoms:
               1
     1  O   -0.203811
     2  C   -0.049496
     3  C    0.365601
     4  O   -0.345908
     5  C    0.185565
     6  C   -0.025721
     7  C    0.038743
     8  C   -0.045764
     9  Br  -0.040123
    10  C    0.002270
    11  C   -0.156194
    12  C    0.274839
 Electronic spatial extent (au):  <R**2>=           3553.4435
 Charge=             -0.0000 electrons
 Dipole moment (field-independent basis, Debye):
    X=              0.0470    Y=              1.0636    Z=              0.3202  Tot=              1.1117
 Quadrupole moment (field-independent basis, Debye-Ang):
   XX=            -89.8002   YY=            -79.1439   ZZ=            -81.5103
   XY=              5.2126   XZ=              1.8942   YZ=             -3.6547
 Traceless Quadrupole moment (field-independent basis, Debye-Ang):
   XX=             -6.3154   YY=              4.3409   ZZ=              1.9745
   XY=              5.2126   XZ=              1.8942   YZ=             -3.6547
 Octapole moment (field-independent basis, Debye-Ang**2):
  XXX=           -118.7499  YYY=             -5.1162  ZZZ=             -4.1558  XYY=            -47.1235
  XXY=             35.1435  XXZ=              7.0203  XZZ=            -18.7434  YZZ=             -7.1512
  YYZ=             -0.5728  XYZ=            -10.2490
 Hexadecapole moment (field-independent basis, Debye-Ang**3):
 XXXX=          -3342.6107 YYYY=           -651.7659 ZZZZ=           -130.8111 XXXY=            247.3937
 XXXZ=             61.5044 YYYX=             40.5536 YYYZ=             -5.2332 ZZZX=              5.2688
 ZZZY=              0.9654 XXYY=           -712.9953 XXZZ=           -547.4826 YYZZ=           -142.6010
 XXYZ=            -37.0749 YYXZ=              9.4132 ZZXY=             10.5300
 N-N= 9.056181081783D+02 E-N=-9.120309171352D+03  KE= 3.063422214226D+03
 There are a total of      435278 grid points.
 ElSum from          density=      111.9999983031
 ElSum from atomic densities=      111.9999738723
 Hirshfeld populations at iteration   1 (CA, CB, DipXYZ):
               1          2          3          4          5
     1  O    4.123689   4.123689  -0.072067   0.065313   0.027373
     2  C    2.912893   2.912893  -0.022033   0.025086   0.016074
     3  C    2.983467   2.983467  -0.039158   0.035659   0.038986
     4  O    4.075551   4.075551  -0.032086  -0.130161  -0.081394
     5  C    2.965044   2.965044   0.119569   0.040823   0.015859
     6  C    3.022966   3.022966   0.009063   0.058025   0.005915
     7  C    3.020909   3.020909  -0.024343   0.053096  -0.004203
     8  C    3.000861   3.000861  -0.068693  -0.020745  -0.004709
     9  Br  17.521710  17.521710   0.026141   0.010836   0.001835
    10  C    3.022951   3.022951   0.009824  -0.053840   0.009014
    11  C    3.008557   3.008557   0.046767  -0.047910   0.017500
    12  C    3.025529   3.025529  -0.002780  -0.000359  -0.000207
    13  H    0.469833   0.469833   0.149527   0.054337   0.042657
    14  H    0.475204   0.475204   0.004323   0.022597  -0.152030
    15  H    0.473669   0.473669   0.030904   0.162079  -0.010420
    16  H    0.475659   0.475659  -0.105297   0.122987  -0.018708
    17  H    0.476617   0.476617  -0.019487  -0.157109   0.012089
    18  H    0.473452   0.473452  -0.031035  -0.151901  -0.034401
    19  H    0.471438   0.471438   0.033475  -0.008239   0.156957
       Tot  55.999999  55.999999   0.012613   0.080572   0.038186

 Dip from Atomic Chgs              0.005876   0.337829   0.087804
         Total Dipole              0.018489   0.418401   0.125990

 Hirshfeld charges, spin densities, dipoles, and CM5 charges using IRadAn=      5:
              Q-H        S-H        Dx         Dy         Dz        Q-CM5   
     1  O   -0.247379   0.000000  -0.072067   0.065313   0.027373  -0.297929
     2  C    0.174214   0.000000  -0.022033   0.025086   0.016074   0.198504
     3  C    0.033066   0.000000  -0.039158   0.035659   0.038986  -0.035782
     4  O   -0.151102   0.000000  -0.032086  -0.130161  -0.081394  -0.231625
     5  C    0.069912   0.000000   0.119569   0.040823   0.015859   0.089626
     6  C   -0.045932   0.000000   0.009063   0.058025   0.005915  -0.095180
     7  C   -0.041818   0.000000  -0.024343   0.053096  -0.004203  -0.094216
     8  C   -0.001722   0.000000  -0.068693  -0.020745  -0.004709  -0.022904
     9  Br  -0.043420   0.000000   0.026141   0.010836   0.001835  -0.028344
    10  C   -0.045902   0.000000   0.009824  -0.053840   0.009014  -0.096046
    11  C   -0.017115   0.000000   0.046767  -0.047910   0.017500  -0.025701
    12  C   -0.051057   0.000000  -0.002780  -0.000359  -0.000207  -0.142195
    13  H    0.060333   0.000000   0.149527   0.054337   0.042657   0.125617
    14  H    0.049592   0.000000   0.004323   0.022597  -0.152030   0.113109
    15  H    0.052662   0.000000   0.030904   0.162079  -0.010420   0.110493
    16  H    0.048682   0.000000  -0.105297   0.122987  -0.018708   0.104481
    17  H    0.046766   0.000000  -0.019487  -0.157109   0.012089   0.103249
    18  H    0.053097   0.000000  -0.031035  -0.151901  -0.034401   0.110890
    19  H    0.057125   0.000000   0.033475  -0.008239   0.156957   0.113955
       Tot   0.000002   0.000000   0.012613   0.080572   0.038186   0.000002
 Hirshfeld charges with hydrogens summed into heavy atoms:
              Q-H       Q-CM5   
     1  O   -0.247379  -0.297929
     2  C    0.174214   0.198504
     3  C    0.142991   0.202944
     4  O   -0.151102  -0.231625
     5  C    0.069912   0.089626
     6  C    0.006730   0.015313
     7  C    0.006864   0.010266
     8  C   -0.001722  -0.022904
     9  Br  -0.043420  -0.028344
    10  C    0.000864   0.007203
    11  C   -0.017115  -0.025701
    12  C    0.059164   0.082650
 
 EQQ= 0.000000000000E+00 EQD= 0.000000000000E+00 EDD= 0.222097678467E-02
 EQQ+QD+DD= 0.222097678467E-02
 
 Running external command "gaunbo6 R"
         input file       "/home/rpaton/opt/dzvp/popn/Gau-1000085.EIn"
         output file      "/home/rpaton/opt/dzvp/popn/Gau-1000085.EOu"
         message file     "/home/rpaton/opt/dzvp/popn/Gau-1000085.EMs"
         fchk file        "/home/rpaton/opt/dzvp/popn/Gau-1000085.EFC"
         mat. el file     "/home/rpaton/opt/dzvp/popn/Gau-1000085.EUF"

 Writing WrtUnf unformatted file "/home/rpaton/opt/dzvp/popn/Gau-1000085.EUF"
 Gaussian matrix elements                                         Version   2 NLab=11 Len12L=8 Len4L=8
 Write SHELL TO ATOM MAP                   from file      0 offset           0 length                  99 to matrix element file.
 Write SHELL TYPES                         from file      0 offset           0 length                  99 to matrix element file.
 Write NUMBER OF PRIMITIVES PER SHELL      from file      0 offset           0 length                  99 to matrix element file.
 Write PRIMITIVE EXPONENTS                 from file      0 offset           0 length                 197 to matrix element file.
 Write CONTRACTION COEFFICIENTS            from file      0 offset           0 length                 197 to matrix element file.
 Write P(S=P) CONTRACTION COEFFICIENTS     from file      0 offset           0 length                 197 to matrix element file.
 Write COORDINATES OF EACH SHELL           from file      0 offset           0 length                 297 to matrix element file.
 Write BONDS PER ATOM                      from file      0 offset           0 length                  19 to matrix element file.
 Write BONDED ATOMS                        from file      0 offset           0 length                  40 to matrix element file.
 Write BOND TYPES                          from file      0 offset           0 length                  40 to matrix element file.
 Write ONIOM CHARGE/MULT                   from file      0 offset           0 length                  32 to matrix element file.
 Write ONIOM ATOM LAYERS                   from file      0 offset           0 length                  19 to matrix element file.
 Write ONIOM ATOM MODIFIERS                from file      0 offset           0 length                  19 to matrix element file.
 Write ONIOM ATOM TYPES                    from file      0 offset           0 length                  19 to matrix element file.
 Write ONIOM LINK ATOMS                    from file      0 offset           0 length                  19 to matrix element file.
 Write ONIOM LINK CHARGES                  from file      0 offset           0 length                  19 to matrix element file.
 Write ONIOM LINK DISTANCES                from file      0 offset           0 length                  76 to matrix element file.
 Write SYMINF INTS                         from file      0 offset           0 length                  26 to matrix element file.
 Write ROTTR TO SO                         from file      0 offset           0 length                  12 to matrix element file.
 Write GAUSSIAN SCALARS                    from file    501 offset           0 to matrix element file.
 Write OPTIMIZATION FLAGS                  from file      0 offset           0 length                  19 to matrix element file.
 Write INTEGER ISO                         from file      0 offset           0 length                  19 to matrix element file.
 Write INTEGER SPIN                        from file      0 offset           0 length                  19 to matrix element file.
 Write REAL ZEFFECTIVE                     from file      0 offset           0 length                  19 to matrix element file.
 Write REAL QUADRUPOLEMOMENT               from file      0 offset           0 length                  19 to matrix element file.
 Write REAL GFACTOR                        from file      0 offset           0 length                  19 to matrix element file.
 Write REAL ZNUCLEAR                       from file      0 offset           0 length                  19 to matrix element file.
 Write MULLIKEN CHARGES                    from file      0 offset           0 length                  19 to matrix element file.
 Write TYPE 6 CHARGES                      from file      0 offset           0 length                  19 to matrix element file.
 Write TYPE 7 CHARGES                      from file      0 offset           0 length                  19 to matrix element file.
 Write NUCLEAR GRADIENT                    from file  10584 offset           0 length                  57 to matrix element file.
 Array NUCLEAR FORCE CONSTANTS              on  file  10585 does not exist.
 Write ELECTRIC DIPOLE MOMENT              from file      0 offset           0 length                   3 to matrix element file.
 Write NON-ADIABATIC COUPLING              from file  10810 offset           0 length                  57 to matrix element file.
 Write FINITE EM FIELD                     from file  10521 offset           0 length                  35 to matrix element file.
 Write OVERLAP                             from file  10514 offset           0 length               24531 to matrix element file.
 Write CORE HAMILTONIAN ALPHA              from file  10515 offset           0 length               24531 to matrix element file.
 Write CORE HAMILTONIAN BETA               from file  10515 offset       24531 length               24531 to matrix element file.
 Write KINETIC ENERGY                      from file  10516 offset           0 length               24531 to matrix element file.
 Write ORTHOGONAL BASIS                    from file  10685 offset           0 length               48841 to matrix element file.
 Write DIPOLE INTEGRALS                    from file  10518 offset           0 length               73593 to matrix element file.
 Array DIP VEL INTEGRALS                    on  file  10572 does not exist.
 Array R X DEL INTEGRALS                    on  file  10572 does not exist.
 Write ALPHA ORBITAL ENERGIES              from file      0 offset           0 length                 221 to matrix element file.
 Write ALPHA MO COEFFICIENTS               from file  10524 offset           0 length               48841 to matrix element file.
 Write ALPHA DENSITY MATRIX                from file      0 offset           0 length               24531 to matrix element file.
 Write ALPHA FOCK MATRIX                   from file  10536 offset           0 length               24531 to matrix element file.
 Write ENERGY-WEIGHTED DENSITY             from file  10571 offset           0 length               24531 to matrix element file.
 Write ALPHA SCF DENSITY MATRIX            from file      0 offset           0 length               24531 to matrix element file.
 Write INTEGER PARAMETERS                  from file      0 offset           0 length                   2 to matrix element file.
 No 2e integrals to process.
 Perform NBO analysis...

 *********************************** NBO 7.0 ***********************************
             N A T U R A L   A T O M I C   O R B I T A L   A N D
          N A T U R A L   B O N D   O R B I T A L   A N A L Y S I S
 **************************** Robert Paton (I101709) ***************************
  (c) Copyright 1996-2019 Board of Regents of the University of Wisconsin System
      on behalf of the Theoretical Chemistry Institute.  All rights reserved.

          Cite this program [NBO 7.0.5 (4-Jun-2019)] as:

          NBO 7.0.  E. D. Glendening, J. K. Badenhoop, A. E. Reed,
          J. E. Carpenter, J. A. Bohmann, C. M. Morales, P. Karafiloglou,
          C. R. Landis, and F. Weinhold, Theoretical Chemistry Institute,
          University of Wisconsin, Madison, WI (2018)

       /AONBO  / : Checkpoint the AO to NBO transformation
                   NBOs sorted by occupancy
       /BNDIDX / : Print bond indices based on the NAO density matrix

 Filename set to /home/rpaton/opt/dzvp/popn/Gau-1000085

 Job title:  arbr47_wb97xd_popncreated by GaussianPrep


 NATURAL POPULATIONS:  Natural atomic orbital occupancies

  NAO Atom No lang   Type(AO)    Occupancy      Energy
 -------------------------------------------------------
   1    O  1  s      Cor( 1s)     1.99996     -19.26379
   2    O  1  s      Val( 2s)     1.68242      -0.73259
   3    O  1  s      Ryd( 3s)     0.00119       1.56756
   4    O  1  px     Val( 2p)     1.64880      -0.35347
   5    O  1  px     Ryd( 3p)     0.00153       1.18050
   6    O  1  py     Val( 2p)     1.77450      -0.36138
   7    O  1  py     Ryd( 3p)     0.00281       1.22910
   8    O  1  pz     Val( 2p)     1.43260      -0.30642
   9    O  1  pz     Ryd( 3p)     0.00081       1.18353
  10    O  1  dxy    Ryd( 3d)     0.00244       3.18932
  11    O  1  dxz    Ryd( 3d)     0.00153       2.90670
  12    O  1  dyz    Ryd( 3d)     0.00126       2.84932
  13    O  1  dx2y2  Ryd( 3d)     0.00215       2.95196
  14    O  1  dz2    Ryd( 3d)     0.00107       2.86678

  15    C  2  s      Cor( 1s)     1.99995     -10.40606
  16    C  2  s      Val( 2s)     0.83266      -0.10018
  17    C  2  s      Ryd( 3s)     0.00549       0.62476
  18    C  2  px     Val( 2p)     0.83939      -0.00959
  19    C  2  px     Ryd( 3p)     0.01202       0.73967
  20    C  2  py     Val( 2p)     0.92362      -0.02289
  21    C  2  py     Ryd( 3p)     0.00979       0.79023
  22    C  2  pz     Val( 2p)     0.76211      -0.09266
  23    C  2  pz     Ryd( 3p)     0.00376       0.66155
  24    C  2  dxy    Ryd( 3d)     0.00187       2.38009
  25    C  2  dxz    Ryd( 3d)     0.00189       2.18805
  26    C  2  dyz    Ryd( 3d)     0.00141       2.09081
  27    C  2  dx2y2  Ryd( 3d)     0.00423       2.36193
  28    C  2  dz2    Ryd( 3d)     0.00127       2.12418

  29    C  3  s      Cor( 1s)     1.99994     -10.37354
  30    C  3  s      Val( 2s)     1.02979      -0.20174
  31    C  3  s      Ryd( 3s)     0.00231       0.94101
  32    C  3  px     Val( 2p)     1.00326      -0.09449
  33    C  3  px     Ryd( 3p)     0.00573       0.76108
  34    C  3  py     Val( 2p)     0.98111      -0.08456
  35    C  3  py     Ryd( 3p)     0.00467       0.59018
  36    C  3  pz     Val( 2p)     1.11470      -0.11418
  37    C  3  pz     Ryd( 3p)     0.00294       0.69232
  38    C  3  dxy    Ryd( 3d)     0.00133       2.22670
  39    C  3  dxz    Ryd( 3d)     0.00130       2.20217
  40    C  3  dyz    Ryd( 3d)     0.00075       2.14260
  41    C  3  dx2y2  Ryd( 3d)     0.00158       2.32733
  42    C  3  dz2    Ryd( 3d)     0.00159       2.44141

  43    O  4  s      Cor( 1s)     1.99995     -19.30339
  44    O  4  s      Val( 2s)     1.56792      -0.75499
  45    O  4  s      Ryd( 3s)     0.00044       1.67929
  46    O  4  px     Val( 2p)     1.41164      -0.34814
  47    O  4  px     Ryd( 3p)     0.00089       1.56036
  48    O  4  py     Val( 2p)     1.79276      -0.41146
  49    O  4  py     Ryd( 3p)     0.00288       1.32333
  50    O  4  pz     Val( 2p)     1.79028      -0.40101
  51    O  4  pz     Ryd( 3p)     0.00194       1.26339
  52    O  4  dxy    Ryd( 3d)     0.00130       3.12826
  53    O  4  dxz    Ryd( 3d)     0.00076       2.94368
  54    O  4  dyz    Ryd( 3d)     0.00131       2.85080
  55    O  4  dx2y2  Ryd( 3d)     0.00113       3.05140
  56    O  4  dz2    Ryd( 3d)     0.00092       2.90413

  57    C  5  s      Cor( 1s)     1.99995     -10.37540
  58    C  5  s      Val( 2s)     0.79660      -0.03781
  59    C  5  s      Ryd( 3s)     0.00211       0.73948
  60    C  5  px     Val( 2p)     0.79703       0.00492
  61    C  5  px     Ryd( 3p)     0.00678       0.97480
  62    C  5  py     Val( 2p)     1.05504      -0.03596
  63    C  5  py     Ryd( 3p)     0.00622       0.95684
  64    C  5  pz     Val( 2p)     0.99708      -0.13195
  65    C  5  pz     Ryd( 3p)     0.00216       0.68362
  66    C  5  dxy    Ryd( 3d)     0.00193       2.51138
  67    C  5  dxz    Ryd( 3d)     0.00194       1.99620
  68    C  5  dyz    Ryd( 3d)     0.00079       2.00750
  69    C  5  dx2y2  Ryd( 3d)     0.00193       2.47480
  70    C  5  dz2    Ryd( 3d)     0.00086       2.23679

  71    C  6  s      Cor( 1s)     1.99995     -10.31982
  72    C  6  s      Val( 2s)     0.94557      -0.08442
  73    C  6  s      Ryd( 3s)     0.00114       0.63637
  74    C  6  px     Val( 2p)     1.07207      -0.03246
  75    C  6  px     Ryd( 3p)     0.00461       0.77971
  76    C  6  py     Val( 2p)     1.19531      -0.08211
  77    C  6  py     Ryd( 3p)     0.00609       1.06822
  78    C  6  pz     Val( 2p)     1.01730      -0.12305
  79    C  6  pz     Ryd( 3p)     0.00116       0.63830
  80    C  6  dxy    Ryd( 3d)     0.00096       2.51416
  81    C  6  dxz    Ryd( 3d)     0.00063       2.02888
  82    C  6  dyz    Ryd( 3d)     0.00050       1.99051
  83    C  6  dx2y2  Ryd( 3d)     0.00067       2.55741
  84    C  6  dz2    Ryd( 3d)     0.00059       2.27219

  85    C  7  s      Cor( 1s)     1.99995     -10.32564
  86    C  7  s      Val( 2s)     0.94136      -0.08564
  87    C  7  s      Ryd( 3s)     0.00114       0.63892
  88    C  7  px     Val( 2p)     1.14259      -0.06007
  89    C  7  px     Ryd( 3p)     0.00640       0.93176
  90    C  7  py     Val( 2p)     1.13053      -0.06286
  91    C  7  py     Ryd( 3p)     0.00480       0.87984
  92    C  7  pz     Val( 2p)     0.99351      -0.12220
  93    C  7  pz     Ryd( 3p)     0.00106       0.63757
  94    C  7  dxy    Ryd( 3d)     0.00077       2.53830
  95    C  7  dxz    Ryd( 3d)     0.00060       1.98726
  96    C  7  dyz    Ryd( 3d)     0.00057       1.99195
  97    C  7  dx2y2  Ryd( 3d)     0.00096       2.48016
  98    C  7  dz2    Ryd( 3d)     0.00064       2.25720

  99    C  8  s      Cor( 1s)     1.99996     -10.36147
 100    C  8  s      Val( 2s)     0.92253      -0.13782
 101    C  8  s      Ryd( 3s)     0.00083       0.62519
 102    C  8  px     Val( 2p)     0.99264      -0.12154
 103    C  8  px     Ryd( 3p)     0.00713       1.02497
 104    C  8  py     Val( 2p)     1.09506      -0.07092
 105    C  8  py     Ryd( 3p)     0.00705       0.84020
 106    C  8  pz     Val( 2p)     1.09440      -0.15947
 107    C  8  pz     Ryd( 3p)     0.00152       0.66339
 108    C  8  dxy    Ryd( 3d)     0.00144       2.40328
 109    C  8  dxz    Ryd( 3d)     0.00096       1.89516
 110    C  8  dyz    Ryd( 3d)     0.00078       1.99716
 111    C  8  dx2y2  Ryd( 3d)     0.00166       2.35587
 112    C  8  dz2    Ryd( 3d)     0.00089       2.18750

 113   Br  9  s      Cor( 1s)     2.00000    -399.85965
 114   Br  9  s      Cor( 2s)     2.00000    -130.21410
 115   Br  9  s      Cor( 3s)     2.00000     -24.45148
 116   Br  9  s      Val( 4s)     1.84830      -0.76083
 117   Br  9  s      Ryd( 5s)     0.00303       0.56374
 118   Br  9  px     Cor( 2p)     2.00000     -38.14653
 119   Br  9  px     Cor( 3p)     2.00000     -24.94663
 120   Br  9  px     Val( 4p)     1.23859      -0.26097
 121   Br  9  px     Ryd( 5p)     0.00284       0.73663
 122   Br  9  py     Cor( 2p)     2.00000     -38.13937
 123   Br  9  py     Cor( 3p)     2.00000     -24.93990
 124   Br  9  py     Val( 4p)     1.89645      -0.35881
 125   Br  9  py     Ryd( 5p)     0.00131       0.75295
 126   Br  9  pz     Cor( 2p)     2.00000     -38.13866
 127   Br  9  pz     Cor( 3p)     2.00000     -24.93920
 128   Br  9  pz     Val( 4p)     1.94022      -0.36584
 129   Br  9  pz     Ryd( 5p)     0.00120       0.72907
 130   Br  9  dxy    Cor( 3d)     2.00000      -2.74095
 131   Br  9  dxy    Ryd( 4d)     0.00261       0.95059
 132   Br  9  dxy    Ryd( 5d)     0.00001       3.73726
 133   Br  9  dxz    Cor( 3d)     2.00000      -2.73996
 134   Br  9  dxz    Ryd( 4d)     0.00242       0.73773
 135   Br  9  dxz    Ryd( 5d)     0.00001       3.57032
 136   Br  9  dyz    Cor( 3d)     2.00000      -2.73127
 137   Br  9  dyz    Ryd( 4d)     0.00030       0.66113
 138   Br  9  dyz    Ryd( 5d)     0.00000       3.49886
 139   Br  9  dx2y2  Cor( 3d)     1.99999      -2.74102
 140   Br  9  dx2y2  Ryd( 4d)     0.00402       0.96485
 141   Br  9  dx2y2  Ryd( 5d)     0.00001       3.76642
 142   Br  9  dz2    Cor( 3d)     2.00000      -2.73396
 143   Br  9  dz2    Ryd( 4d)     0.00187       0.77079
 144   Br  9  dz2    Ryd( 5d)     0.00000       3.61062

 145    C 10  s      Cor( 1s)     1.99995     -10.32753
 146    C 10  s      Val( 2s)     0.92807      -0.07513
 147    C 10  s      Ryd( 3s)     0.00146       0.62975
 148    C 10  px     Val( 2p)     1.07238      -0.03692
 149    C 10  px     Ryd( 3p)     0.00417       0.75775
 150    C 10  py     Val( 2p)     1.20455      -0.09369
 151    C 10  py     Ryd( 3p)     0.00720       1.08275
 152    C 10  pz     Val( 2p)     0.99432      -0.12358
 153    C 10  pz     Ryd( 3p)     0.00114       0.63652
 154    C 10  dxy    Ryd( 3d)     0.00093       2.49666
 155    C 10  dxz    Ryd( 3d)     0.00065       2.01706
 156    C 10  dyz    Ryd( 3d)     0.00046       1.97866
 157    C 10  dx2y2  Ryd( 3d)     0.00076       2.52732
 158    C 10  dz2    Ryd( 3d)     0.00065       2.25278

 159    C 11  s      Cor( 1s)     1.99996     -10.33169
 160    C 11  s      Val( 2s)     0.85691      -0.05207
 161    C 11  s      Ryd( 3s)     0.00164       0.64026
 162    C 11  px     Val( 2p)     1.08872      -0.05779
 163    C 11  px     Ryd( 3p)     0.00466       1.10824
 164    C 11  py     Val( 2p)     1.08998      -0.05965
 165    C 11  py     Ryd( 3p)     0.00374       1.05833
 166    C 11  pz     Val( 2p)     1.04054      -0.12830
 167    C 11  pz     Ryd( 3p)     0.00245       0.72913
 168    C 11  dxy    Ryd( 3d)     0.00075       2.47290
 169    C 11  dxz    Ryd( 3d)     0.00070       2.03784
 170    C 11  dyz    Ryd( 3d)     0.00067       2.01356
 171    C 11  dx2y2  Ryd( 3d)     0.00098       2.53453
 172    C 11  dz2    Ryd( 3d)     0.00063       2.24354

 173    C 12  s      Cor( 1s)     1.99993     -10.32959
 174    C 12  s      Val( 2s)     1.03434      -0.17780
 175    C 12  s      Ryd( 3s)     0.00169       0.99658
 176    C 12  px     Val( 2p)     1.07847      -0.09712
 177    C 12  px     Ryd( 3p)     0.00355       0.67274
 178    C 12  py     Val( 2p)     1.20089      -0.11868
 179    C 12  py     Ryd( 3p)     0.00714       0.73591
 180    C 12  pz     Val( 2p)     1.21880      -0.13245
 181    C 12  pz     Ryd( 3p)     0.00194       0.72733
 182    C 12  dxy    Ryd( 3d)     0.00078       2.31078
 183    C 12  dxz    Ryd( 3d)     0.00067       2.20647
 184    C 12  dyz    Ryd( 3d)     0.00041       2.17866
 185    C 12  dx2y2  Ryd( 3d)     0.00064       2.39130
 186    C 12  dz2    Ryd( 3d)     0.00072       2.46437

 187    H 13  s      Val( 1s)     0.75377       0.09085
 188    H 13  s      Ryd( 2s)     0.00146       0.39247
 189    H 13  px     Ryd( 2p)     0.00083       2.33128
 190    H 13  py     Ryd( 2p)     0.00019       1.87046
 191    H 13  pz     Ryd( 2p)     0.00015       1.91848

 192    H 14  s      Val( 1s)     0.77164       0.06857
 193    H 14  s      Ryd( 2s)     0.00223       0.41412
 194    H 14  px     Ryd( 2p)     0.00007       1.92175
 195    H 14  py     Ryd( 2p)     0.00019       1.82700
 196    H 14  pz     Ryd( 2p)     0.00097       2.41232

 197    H 15  s      Val( 1s)     0.74902       0.10856
 198    H 15  s      Ryd( 2s)     0.00169       0.39482
 199    H 15  px     Ryd( 2p)     0.00011       2.07310
 200    H 15  py     Ryd( 2p)     0.00091       2.45961
 201    H 15  pz     Ryd( 2p)     0.00015       1.75182

 202    H 16  s      Val( 1s)     0.74876       0.11008
 203    H 16  s      Ryd( 2s)     0.00152       0.39494
 204    H 16  px     Ryd( 2p)     0.00061       2.28817
 205    H 16  py     Ryd( 2p)     0.00043       2.24419
 206    H 16  pz     Ryd( 2p)     0.00017       1.75199

 207    H 17  s      Val( 1s)     0.74990       0.10201
 208    H 17  s      Ryd( 2s)     0.00161       0.40703
 209    H 17  px     Ryd( 2p)     0.00011       2.07472
 210    H 17  py     Ryd( 2p)     0.00094       2.47156
 211    H 17  pz     Ryd( 2p)     0.00017       1.75681

 212    H 18  s      Val( 1s)     0.73278       0.10162
 213    H 18  s      Ryd( 2s)     0.00246       0.42692
 214    H 18  px     Ryd( 2p)     0.00008       1.86060
 215    H 18  py     Ryd( 2p)     0.00084       2.38775
 216    H 18  pz     Ryd( 2p)     0.00015       1.91421

 217    H 19  s      Val( 1s)     0.72429       0.08575
 218    H 19  s      Ryd( 2s)     0.00214       0.41975
 219    H 19  px     Ryd( 2p)     0.00014       1.91069
 220    H 19  py     Ryd( 2p)     0.00010       1.92891
 221    H 19  pz     Ryd( 2p)     0.00093       2.39707


 Summary of Natural Population Analysis:

                                     Natural Population
             Natural    ---------------------------------------------
  Atom No    Charge        Core      Valence    Rydberg      Total
 --------------------------------------------------------------------
    O  1   -0.55305      1.99996     6.53832    0.01477     8.55305
    C  2    0.60055      1.99995     3.35779    0.04171     5.39945
    C  3   -0.15099      1.99994     4.12887    0.02219     6.15099
    O  4   -0.57413      1.99995     6.56260    0.01157     8.57413
    C  5    0.32957      1.99995     3.64576    0.02472     5.67043
    C  6   -0.24656      1.99995     4.23026    0.01635     6.24656
    C  7   -0.22488      1.99995     4.20799    0.01694     6.22488
    C  8   -0.12685      1.99996     4.10464    0.02225     6.12685
   Br  9    0.05683     27.99997     6.92356    0.01963    34.94317
    C 10   -0.21670      1.99995     4.19932    0.01742     6.21670
    C 11   -0.09233      1.99996     4.07615    0.01623     6.09233
    C 12   -0.54996      1.99993     4.53249    0.01754     6.54996
    H 13    0.24359      0.00000     0.75377    0.00264     0.75641
    H 14    0.22490      0.00000     0.77164    0.00346     0.77510
    H 15    0.24811      0.00000     0.74902    0.00287     0.75189
    H 16    0.24851      0.00000     0.74876    0.00273     0.75149
    H 17    0.24727      0.00000     0.74990    0.00283     0.75273
    H 18    0.26369      0.00000     0.73278    0.00353     0.73631
    H 19    0.27240      0.00000     0.72429    0.00331     0.72760
 ====================================================================
 * Total *  0.00000     49.99944    61.73788    0.26268   112.00000

                                 Natural Population
 ---------------------------------------------------------
   Core                      49.99944 ( 99.9989% of   50)
   Valence                   61.73788 ( 99.5772% of   62)
   Natural Minimal Basis    111.73732 ( 99.7655% of  112)
   Natural Rydberg Basis      0.26268 (  0.2345% of  112)
 ---------------------------------------------------------

    Atom No         Natural Electron Configuration
 ----------------------------------------------------------------------------
      O  1      [core]2s( 1.68)2p( 4.86)3p( 0.01)3d( 0.01)
      C  2      [core]2s( 0.83)2p( 2.53)3s( 0.01)3p( 0.03)3d( 0.01)
      C  3      [core]2s( 1.03)2p( 3.10)3p( 0.01)3d( 0.01)
      O  4      [core]2s( 1.57)2p( 4.99)3p( 0.01)3d( 0.01)
      C  5      [core]2s( 0.80)2p( 2.85)3p( 0.02)3d( 0.01)
      C  6      [core]2s( 0.95)2p( 3.28)3p( 0.01)
      C  7      [core]2s( 0.94)2p( 3.27)3p( 0.01)
      C  8      [core]2s( 0.92)2p( 3.18)3p( 0.02)3d( 0.01)
     Br  9      [core]4s( 1.85)4p( 5.08)4d( 0.01)5p( 0.01)
      C 10      [core]2s( 0.93)2p( 3.27)3p( 0.01)
      C 11      [core]2s( 0.86)2p( 3.22)3p( 0.01)
      C 12      [core]2s( 1.03)2p( 3.50)3p( 0.01)
      H 13            1s( 0.75)
      H 14            1s( 0.77)
      H 15            1s( 0.75)
      H 16            1s( 0.75)
      H 17            1s( 0.75)
      H 18            1s( 0.73)
      H 19            1s( 0.72)


 Wiberg bond index matrix in the NAO basis:

     Atom    1       2       3       4       5       6       7       8       9
     ---- ------  ------  ------  ------  ------  ------  ------  ------  ------
   1.  O  0.0000  1.8265  0.0706  0.0104  0.0018  0.0004  0.0006  0.0006  0.0002
   2.  C  1.8265  0.0000  0.9801  0.0228  0.0043  0.0009  0.0012  0.0005  0.0003
   3.  C  0.0706  0.9801  0.0000  0.8908  0.0098  0.0094  0.0006  0.0010  0.0002
   4.  O  0.0104  0.0228  0.8908  0.0000  0.9633  0.0438  0.0080  0.0157  0.0021
   5.  C  0.0018  0.0043  0.0098  0.9633  0.0000  1.3767  0.0155  0.0917  0.0125
   6.  C  0.0004  0.0009  0.0094  0.0438  1.3767  0.0000  1.4361  0.0169  0.0148
   7.  C  0.0006  0.0012  0.0006  0.0080  0.0155  1.4361  0.0000  1.3954  0.0398
   8.  C  0.0006  0.0005  0.0010  0.0157  0.0917  0.0169  1.3954  0.0000  1.0366
   9. Br  0.0002  0.0003  0.0002  0.0021  0.0125  0.0148  0.0398  1.0366  0.0000
  10.  C  0.0014  0.0071  0.0003  0.0084  0.0162  0.1075  0.0158  1.4052  0.0404
  11.  C  0.0108  0.0102  0.0035  0.0460  1.3416  0.0165  0.1024  0.0176  0.0139
  12.  C  0.0636  0.9874  0.0098  0.0050  0.0119  0.0089  0.0014  0.0080  0.0008
  13.  H  0.0110  0.0059  0.9040  0.0083  0.0070  0.0001  0.0002  0.0001  0.0000
  14.  H  0.0161  0.0077  0.8969  0.0229  0.0014  0.0014  0.0001  0.0007  0.0001
  15.  H  0.0000  0.0000  0.0002  0.0034  0.0037  0.9052  0.0051  0.0085  0.0009
  16.  H  0.0000  0.0000  0.0002  0.0003  0.0084  0.0046  0.9045  0.0040  0.0052
  17.  H  0.0002  0.0002  0.0000  0.0008  0.0092  0.0004  0.0090  0.0043  0.0054
  18.  H  0.0064  0.0040  0.0078  0.0004  0.0075  0.0002  0.0007  0.0002  0.0001
  19.  H  0.0199  0.0082  0.0011  0.0018  0.0099  0.0001  0.0053  0.0002  0.0000

     Atom   10      11      12      13      14      15      16      17      18
     ---- ------  ------  ------  ------  ------  ------  ------  ------  ------
   1.  O  0.0014  0.0108  0.0636  0.0110  0.0161  0.0000  0.0000  0.0002  0.0064
   2.  C  0.0071  0.0102  0.9874  0.0059  0.0077  0.0000  0.0000  0.0002  0.0040
   3.  C  0.0003  0.0035  0.0098  0.9040  0.8969  0.0002  0.0002  0.0000  0.0078
   4.  O  0.0084  0.0460  0.0050  0.0083  0.0229  0.0034  0.0003  0.0008  0.0004
   5.  C  0.0162  1.3416  0.0119  0.0070  0.0014  0.0037  0.0084  0.0092  0.0075
   6.  C  0.1075  0.0165  0.0089  0.0001  0.0014  0.9052  0.0046  0.0004  0.0002
   7.  C  0.0158  0.1024  0.0014  0.0002  0.0001  0.0051  0.9045  0.0090  0.0007
   8.  C  1.4052  0.0176  0.0080  0.0001  0.0007  0.0085  0.0040  0.0043  0.0002
   9. Br  0.0404  0.0139  0.0008  0.0000  0.0001  0.0009  0.0052  0.0054  0.0001
  10.  C  0.0000  1.3955  0.0151  0.0001  0.0001  0.0005  0.0088  0.9041  0.0026
  11.  C  1.3955  0.0000  1.0065  0.0006  0.0012  0.0090  0.0004  0.0043  0.0023
  12.  C  0.0151  1.0065  0.0000  0.0046  0.0027  0.0004  0.0003  0.0027  0.8999
  13.  H  0.0001  0.0006  0.0046  0.0000  0.0009  0.0001  0.0000  0.0000  0.0001
  14.  H  0.0001  0.0012  0.0027  0.0009  0.0000  0.0000  0.0000  0.0000  0.0003
  15.  H  0.0005  0.0090  0.0004  0.0001  0.0000  0.0000  0.0036  0.0004  0.0003
  16.  H  0.0088  0.0004  0.0003  0.0000  0.0000  0.0036  0.0000  0.0004  0.0000
  17.  H  0.9041  0.0043  0.0027  0.0000  0.0000  0.0004  0.0004  0.0000  0.0002
  18.  H  0.0026  0.0023  0.8999  0.0001  0.0003  0.0003  0.0000  0.0002  0.0000
  19.  H  0.0115  0.0039  0.8651  0.0002  0.0007  0.0000  0.0000  0.0000  0.0012

     Atom   19
     ---- ------
   1.  O  0.0199
   2.  C  0.0082
   3.  C  0.0011
   4.  O  0.0018
   5.  C  0.0099
   6.  C  0.0001
   7.  C  0.0053
   8.  C  0.0002
   9. Br  0.0000
  10.  C  0.0115
  11.  C  0.0039
  12.  C  0.8651
  13.  H  0.0002
  14.  H  0.0007
  15.  H  0.0000
  16.  H  0.0000
  17.  H  0.0000
  18.  H  0.0012
  19.  H  0.0000


 Wiberg bond index, Totals by atom:

     Atom    1
     ---- ------
   1.  O  2.0404
   2.  C  3.8673
   3.  C  3.7863
   4.  O  2.0541
   5.  C  3.8924
   6.  C  3.9440
   7.  C  3.9418
   8.  C  4.0072
   9. Br  1.1734
  10.  C  3.9407
  11.  C  3.9863
  12.  C  3.8942
  13.  H  0.9432
  14.  H  0.9532
  15.  H  0.9414
  16.  H  0.9409
  17.  H  0.9417
  18.  H  0.9343
  19.  H  0.9293


 NBI: Natural Binding Index (NCU strength parameters)

     Atom    1       2       3       4       5       6       7       8       9
     ---- ------  ------  ------  ------  ------  ------  ------  ------  ------
   1.  O  0.0000  1.3515  0.2657  0.1020  0.0421  0.0188  0.0236  0.0238  0.0151
   2.  C  1.3515  0.0000  0.9900  0.1508  0.0659  0.0294  0.0349  0.0228  0.0183
   3.  C  0.2657  0.9900  0.0000  0.9438  0.0990  0.0969  0.0237  0.0316  0.0126
   4.  O  0.1020  0.1508  0.9438  0.0000  0.9815  0.2092  0.0895  0.1254  0.0461
   5.  C  0.0421  0.0659  0.0990  0.9815  0.0000  1.1733  0.1245  0.3028  0.1120
   6.  C  0.0188  0.0294  0.0969  0.2092  1.1733  0.0000  1.1984  0.1301  0.1215
   7.  C  0.0236  0.0349  0.0237  0.0895  0.1245  1.1984  0.0000  1.1813  0.1994
   8.  C  0.0238  0.0228  0.0316  0.1254  0.3028  0.1301  1.1813  0.0000  1.0181
   9. Br  0.0151  0.0183  0.0126  0.0461  0.1120  0.1215  0.1994  1.0181  0.0000
  10.  C  0.0373  0.0842  0.0171  0.0916  0.1274  0.3279  0.1259  1.1854  0.2011
  11.  C  0.1039  0.1011  0.0591  0.2145  1.1583  0.1286  0.3200  0.1326  0.1179
  12.  C  0.2523  0.9937  0.0989  0.0708  0.1091  0.0945  0.0369  0.0894  0.0282
  13.  H  0.1050  0.0766  0.9508  0.0909  0.0835  0.0116  0.0128  0.0098  0.0053
  14.  H  0.1268  0.0876  0.9470  0.1513  0.0369  0.0373  0.0120  0.0269  0.0101
  15.  H  0.0029  0.0068  0.0153  0.0581  0.0606  0.9514  0.0717  0.0920  0.0293
  16.  H  0.0034  0.0039  0.0154  0.0175  0.0917  0.0681  0.9511  0.0630  0.0723
  17.  H  0.0124  0.0140  0.0058  0.0290  0.0961  0.0210  0.0948  0.0656  0.0734
  18.  H  0.0802  0.0630  0.0884  0.0198  0.0866  0.0136  0.0257  0.0152  0.0110
  19.  H  0.1411  0.0906  0.0332  0.0419  0.0997  0.0116  0.0730  0.0150  0.0059

     Atom   10      11      12      13      14      15      16      17      18
     ---- ------  ------  ------  ------  ------  ------  ------  ------  ------
   1.  O  0.0373  0.1039  0.2523  0.1050  0.1268  0.0029  0.0034  0.0124  0.0802
   2.  C  0.0842  0.1011  0.9937  0.0766  0.0876  0.0068  0.0039  0.0140  0.0630
   3.  C  0.0171  0.0591  0.0989  0.9508  0.9470  0.0153  0.0154  0.0058  0.0884
   4.  O  0.0916  0.2145  0.0708  0.0909  0.1513  0.0581  0.0175  0.0290  0.0198
   5.  C  0.1274  1.1583  0.1091  0.0835  0.0369  0.0606  0.0917  0.0961  0.0866
   6.  C  0.3279  0.1286  0.0945  0.0116  0.0373  0.9514  0.0681  0.0210  0.0136
   7.  C  0.1259  0.3200  0.0369  0.0128  0.0120  0.0717  0.9511  0.0948  0.0257
   8.  C  1.1854  0.1326  0.0894  0.0098  0.0269  0.0920  0.0630  0.0656  0.0152
   9. Br  0.2011  0.1179  0.0282  0.0053  0.0101  0.0293  0.0723  0.0734  0.0110
  10.  C  0.0000  1.1813  0.1229  0.0110  0.0102  0.0230  0.0939  0.9508  0.0514
  11.  C  1.1813  0.0000  1.0033  0.0236  0.0352  0.0949  0.0196  0.0659  0.0482
  12.  C  0.1229  1.0033  0.0000  0.0680  0.0519  0.0211  0.0173  0.0520  0.9486
  13.  H  0.0110  0.0236  0.0680  0.0000  0.0306  0.0098  0.0046  0.0020  0.0091
  14.  H  0.0102  0.0352  0.0519  0.0306  0.0000  0.0020  0.0024  0.0016  0.0183
  15.  H  0.0230  0.0949  0.0211  0.0098  0.0020  0.0000  0.0604  0.0190  0.0174
  16.  H  0.0939  0.0196  0.0173  0.0046  0.0024  0.0604  0.0000  0.0199  0.0010
  17.  H  0.9508  0.0659  0.0520  0.0020  0.0016  0.0190  0.0199  0.0000  0.0145
  18.  H  0.0514  0.0482  0.9486  0.0091  0.0183  0.0174  0.0010  0.0145  0.0000
  19.  H  0.1073  0.0623  0.9301  0.0146  0.0261  0.0026  0.0020  0.0047  0.0353

     Atom   19
     ---- ------
   1.  O  0.1411
   2.  C  0.0906
   3.  C  0.0332
   4.  O  0.0419
   5.  C  0.0997
   6.  C  0.0116
   7.  C  0.0730
   8.  C  0.0150
   9. Br  0.0059
  10.  C  0.1073
  11.  C  0.0623
  12.  C  0.9301
  13.  H  0.0146
  14.  H  0.0261
  15.  H  0.0026
  16.  H  0.0020
  17.  H  0.0047
  18.  H  0.0353
  19.  H  0.0000


 NATURAL BOND ORBITAL ANALYSIS:

                            Occupancies       Lewis Structure    Low   High
         Max    Occ     -------------------  -----------------   occ   occ
  Cycle  Ctr   Thresh    Lewis   non-Lewis     CR  BD  nC  LP    (L)   (NL)
 ============================================================================
    1     2     1.90   107.38883   4.61117     25  22   0   9     4      5
    2     2     1.87   108.25947   3.74053     25  21   0  10     3      3
    3     2     1.69   108.85827   3.14173     25  22   0   9     2      3
    4     2     1.68   108.85830   3.14170     25  22   0   9     2      3
    5     2     1.67   109.51956   2.48044     25  23   0   8     1      3
    6     2     1.64   110.11992   1.88008     25  24   0   7     0      3
 ----------------------------------------------------------------------------

 Structure accepted: No low occupancy Lewis orbitals

 -------------------------------------------------------
   Core                     49.99944 ( 99.999% of  50)
   Valence Lewis            60.12048 ( 96.969% of  62)
  ==================      =============================
   Total Lewis             110.11992 ( 98.321% of 112)
  -----------------------------------------------------
   Valence non-Lewis         1.70836 (  1.525% of 112)
   Rydberg non-Lewis         0.17172 (  0.153% of 112)
  ==================      =============================
   Total non-Lewis           1.88008 (  1.679% of 112)
 -------------------------------------------------------


     (Occupancy)   Bond orbital / Coefficients / Hybrids
 ------------------ Lewis ------------------------------------------------------
   1. (1.99996) CR ( 1) O  1            s(100.00%)
                                         1.0000  0.0000  0.0000  0.0000  0.0000
                                         0.0000  0.0000  0.0000  0.0000  0.0000
                                         0.0000  0.0000  0.0000  0.0000
   2. (1.99995) CR ( 1) C  2            s(100.00%)
                                         1.0000  0.0000  0.0000  0.0000  0.0000
                                         0.0000  0.0000  0.0000  0.0000  0.0000
                                         0.0000  0.0000  0.0000  0.0000
   3. (1.99994) CR ( 1) C  3            s(100.00%)
                                         1.0000  0.0000  0.0000  0.0000  0.0000
                                         0.0000  0.0000  0.0000  0.0000  0.0000
                                         0.0000  0.0000  0.0000  0.0000
   4. (1.99995) CR ( 1) O  4            s(100.00%)
                                         1.0000  0.0000  0.0000  0.0000  0.0000
                                         0.0000  0.0000  0.0000  0.0000  0.0000
                                         0.0000  0.0000  0.0000  0.0000
   5. (1.99995) CR ( 1) C  5            s(100.00%)
                                         1.0000  0.0000  0.0000  0.0000  0.0000
                                         0.0000  0.0000  0.0000  0.0000  0.0000
                                         0.0000  0.0000  0.0000  0.0000
   6. (1.99995) CR ( 1) C  6            s(100.00%)
                                         1.0000  0.0000  0.0000  0.0000  0.0000
                                         0.0000  0.0000  0.0000  0.0000  0.0000
                                         0.0000  0.0000  0.0000  0.0000
   7. (1.99995) CR ( 1) C  7            s(100.00%)
                                         1.0000  0.0000  0.0000  0.0000  0.0000
                                         0.0000  0.0000  0.0000  0.0000  0.0000
                                         0.0000  0.0000  0.0000  0.0000
   8. (1.99996) CR ( 1) C  8            s(100.00%)
                                         1.0000  0.0000  0.0000  0.0000  0.0000
                                         0.0000  0.0000  0.0000  0.0000  0.0000
                                         0.0000  0.0000  0.0000  0.0000
   9. (2.00000) CR ( 1)Br  9            s(100.00%)
                                         1.0000  0.0000  0.0000  0.0000  0.0000
                                         0.0000  0.0000  0.0000  0.0000  0.0000
                                         0.0000  0.0000  0.0000  0.0000  0.0000
                                         0.0000  0.0000  0.0000  0.0000  0.0000
                                         0.0000  0.0000  0.0000  0.0000  0.0000
                                         0.0000  0.0000  0.0000  0.0000  0.0000
                                         0.0000  0.0000
  10. (2.00000) CR ( 2)Br  9            s(100.00%)
                                         0.0000  1.0000  0.0000  0.0000  0.0000
                                         0.0000  0.0000  0.0000  0.0000  0.0000
                                         0.0000  0.0000  0.0000  0.0000  0.0000
                                         0.0000  0.0000  0.0000  0.0000  0.0000
                                         0.0000  0.0000  0.0000  0.0000  0.0000
                                         0.0000  0.0000  0.0000  0.0000  0.0000
                                         0.0000  0.0000
  11. (2.00000) CR ( 3)Br  9            s(100.00%)
                                         0.0000  0.0000  1.0000  0.0000  0.0000
                                         0.0000  0.0000  0.0000  0.0000  0.0000
                                         0.0000  0.0000  0.0000  0.0000  0.0000
                                         0.0000  0.0000  0.0000  0.0000  0.0000
                                         0.0000  0.0000  0.0000  0.0000  0.0000
                                         0.0000  0.0000  0.0000  0.0000  0.0000
                                         0.0000  0.0000
  12. (2.00000) CR ( 4)Br  9            s(  0.00%)p 1.00(100.00%)
                                         0.0000  0.0000  0.0000  0.0000  0.0000
                                         1.0000  0.0000  0.0000  0.0000  0.0000
                                         0.0000  0.0000  0.0000  0.0000  0.0000
                                         0.0000  0.0000  0.0000  0.0000  0.0000
                                         0.0000  0.0000  0.0000  0.0000  0.0000
                                         0.0000  0.0000  0.0000  0.0000  0.0000
                                         0.0000  0.0000
  13. (2.00000) CR ( 5)Br  9            s(  0.00%)p 1.00(100.00%)
                                         0.0000  0.0000  0.0000  0.0000  0.0000
                                         0.0000  1.0000  0.0000  0.0000  0.0000
                                         0.0000  0.0000  0.0000  0.0000  0.0000
                                         0.0000  0.0000  0.0000  0.0000  0.0000
                                         0.0000  0.0000  0.0000  0.0000  0.0000
                                         0.0000  0.0000  0.0000  0.0000  0.0000
                                         0.0000  0.0000
  14. (2.00000) CR ( 6)Br  9            s(  0.00%)p 1.00(100.00%)
                                         0.0000  0.0000  0.0000  0.0000  0.0000
                                         0.0000  0.0000  0.0000  0.0000  1.0000
                                         0.0000  0.0000  0.0000  0.0000  0.0000
                                         0.0000  0.0000  0.0000  0.0000  0.0000
                                         0.0000  0.0000  0.0000  0.0000  0.0000
                                         0.0000  0.0000  0.0000  0.0000  0.0000
                                         0.0000  0.0000
  15. (2.00000) CR ( 7)Br  9            s(  0.00%)p 1.00(100.00%)
                                         0.0000  0.0000  0.0000  0.0000  0.0000
                                         0.0000  0.0000  0.0000  0.0000  0.0000
                                         1.0000  0.0000  0.0000  0.0000  0.0000
                                         0.0000  0.0000  0.0000  0.0000  0.0000
                                         0.0000  0.0000  0.0000  0.0000  0.0000
                                         0.0000  0.0000  0.0000  0.0000  0.0000
                                         0.0000  0.0000
  16. (2.00000) CR ( 8)Br  9            s(  0.00%)p 1.00(100.00%)
                                         0.0000  0.0000  0.0000  0.0000  0.0000
                                         0.0000  0.0000  0.0000  0.0000  0.0000
                                         0.0000  0.0000  0.0000  1.0000  0.0000
                                         0.0000  0.0000  0.0000  0.0000  0.0000
                                         0.0000  0.0000  0.0000  0.0000  0.0000
                                         0.0000  0.0000  0.0000  0.0000  0.0000
                                         0.0000  0.0000
  17. (2.00000) CR ( 9)Br  9            s(  0.00%)p 1.00(100.00%)
                                         0.0000  0.0000  0.0000  0.0000  0.0000
                                         0.0000  0.0000  0.0000  0.0000  0.0000
                                         0.0000  0.0000  0.0000  0.0000  1.0000
                                         0.0000  0.0000  0.0000  0.0000  0.0000
                                         0.0000  0.0000  0.0000  0.0000  0.0000
                                         0.0000  0.0000  0.0000  0.0000  0.0000
                                         0.0000  0.0000
  18. (2.00000) CR (10)Br  9            s(  0.00%)p 0.00(  0.00%)d 1.00(100.00%)
                                         0.0000  0.0000  0.0000  0.0000  0.0000
                                         0.0000  0.0000  0.0000  0.0000  0.0000
                                         0.0000  0.0000  0.0000  0.0000  0.0000
                                         0.0000  0.0000  1.0000  0.0000  0.0000
                                         0.0000  0.0000  0.0000  0.0000  0.0000
                                         0.0000  0.0000  0.0000  0.0000  0.0000
                                         0.0000  0.0000
  19. (2.00000) CR (11)Br  9            s(  0.00%)p 0.00(  0.00%)d 1.00(100.00%)
                                         0.0000  0.0000  0.0000  0.0000  0.0000
                                         0.0000  0.0000  0.0000  0.0000  0.0000
                                         0.0000  0.0000  0.0000  0.0000  0.0000
                                         0.0000  0.0000  0.0000  0.0000  0.0000
                                         1.0000  0.0000  0.0000  0.0000  0.0000
                                         0.0000  0.0000  0.0000  0.0000  0.0000
                                         0.0000  0.0000
  20. (2.00000) CR (12)Br  9            s(  0.00%)p 0.00(  0.00%)d 1.00(100.00%)
                                         0.0000  0.0000  0.0000  0.0000  0.0000
                                         0.0000  0.0000  0.0000  0.0000  0.0000
                                         0.0000  0.0000  0.0000  0.0000  0.0000
                                         0.0000  0.0000  0.0000  0.0000  0.0000
                                         0.0000  0.0000  0.0000  1.0000  0.0000
                                         0.0000  0.0000  0.0000  0.0000  0.0000
                                         0.0000  0.0000
  21. (1.99999) CR (13)Br  9            s(  0.00%)p 0.00(  0.00%)d 1.00(100.00%)
                                         0.0000  0.0000  0.0000  0.0000  0.0000
                                         0.0000  0.0000  0.0000  0.0000  0.0000
                                         0.0000  0.0000  0.0000  0.0000  0.0000
                                         0.0000  0.0000  0.0000  0.0000  0.0000
                                         0.0000  0.0000  0.0000  0.0000  0.0000
                                         0.0000  1.0000  0.0000  0.0000  0.0000
                                         0.0000  0.0000
  22. (2.00000) CR (14)Br  9            s(  0.00%)p 0.00(  0.00%)d 1.00(100.00%)
                                         0.0000  0.0000  0.0000  0.0000  0.0000
                                         0.0000  0.0000  0.0000  0.0000  0.0000
                                         0.0000  0.0000  0.0000  0.0000  0.0000
                                         0.0000  0.0000  0.0000  0.0000  0.0000
                                         0.0000  0.0000  0.0000  0.0000  0.0000
                                         0.0000  0.0000  0.0000  0.0000  1.0000
                                         0.0000  0.0000
  23. (1.99995) CR ( 1) C 10            s(100.00%)
                                         1.0000  0.0000  0.0000  0.0000  0.0000
                                         0.0000  0.0000  0.0000  0.0000  0.0000
                                         0.0000  0.0000  0.0000  0.0000
  24. (1.99996) CR ( 1) C 11            s(100.00%)
                                         1.0000  0.0000  0.0000  0.0000  0.0000
                                         0.0000  0.0000  0.0000  0.0000  0.0000
                                         0.0000  0.0000  0.0000  0.0000
  25. (1.99993) CR ( 1) C 12            s(100.00%)
                                         1.0000  0.0000  0.0000  0.0000  0.0000
                                         0.0000  0.0000  0.0000  0.0000  0.0000
                                         0.0000  0.0000  0.0000  0.0000
  26. (1.97728) LP ( 1) O  1            s( 53.78%)p 0.86( 46.18%)d 0.00(  0.04%)
                                         0.0000  0.7333 -0.0129  0.4937 -0.0001
                                        -0.4249 -0.0001 -0.1935  0.0000  0.0147
                                         0.0083 -0.0053 -0.0017  0.0088
  27. (1.87972) LP ( 2) O  1            s(  0.00%)p 1.00( 99.88%)d 0.00(  0.12%)
                                         0.0000  0.0027  0.0013 -0.5352  0.0081
                                        -0.7722  0.0135  0.3404 -0.0064  0.0074
                                        -0.0136  0.0000  0.0300  0.0059
  28. (1.95843) LP ( 1) O  4            s( 32.35%)p 2.09( 67.60%)d 0.00(  0.05%)
                                         0.0000  0.5688 -0.0005  0.1787  0.0013
                                         0.7892 -0.0054  0.1452 -0.0013 -0.0090
                                        -0.0039 -0.0111  0.0155  0.0070
  29. (1.87801) LP ( 2) O  4            s(  3.58%)p26.92( 96.36%)d 0.02(  0.06%)
                                         0.0000  0.1892 -0.0038  0.1941 -0.0013
                                        -0.3455  0.0048  0.8981 -0.0026 -0.0018
                                        -0.0107 -0.0143 -0.0083 -0.0157
  30. (1.99457) LP ( 1)Br  9            s( 85.03%)p 0.18( 14.96%)d 0.00(  0.01%)
                                         0.0000  0.0000  0.0000  0.9221 -0.0110
                                         0.0000  0.0000 -0.3668 -0.0094  0.0000
                                         0.0000 -0.1193 -0.0031  0.0000  0.0000
                                        -0.0262 -0.0007  0.0000 -0.0059  0.0001
                                         0.0000 -0.0011  0.0000  0.0000 -0.0006
                                         0.0000  0.0000 -0.0081  0.0001  0.0000
                                         0.0047  0.0000
  31. (1.97670) LP ( 2)Br  9            s(  0.00%)p 1.00( 99.98%)d 0.00(  0.02%)
                                         0.0000  0.0000  0.0000  0.0008 -0.0003
                                         0.0000  0.0000  0.3033 -0.0044  0.0000
                                         0.0000 -0.9475  0.0135  0.0000  0.0000
                                         0.0988 -0.0014  0.0000 -0.0123  0.0011
                                         0.0000  0.0017 -0.0002  0.0000 -0.0005
                                         0.0001  0.0000  0.0088 -0.0008  0.0000
                                         0.0001  0.0000
  32. (1.94446) LP ( 3)Br  9            s(  0.00%)p 1.00( 99.97%)d 0.00(  0.03%)
                                         0.0000  0.0000  0.0000  0.0002  0.0000
                                         0.0000  0.0000 -0.0941  0.0013  0.0000
                                         0.0000  0.0733 -0.0010  0.0000  0.0000
                                         0.9926 -0.0139  0.0000  0.0007 -0.0001
                                         0.0000  0.0170 -0.0022  0.0000  0.0056
                                        -0.0007  0.0000 -0.0021  0.0003  0.0000
                                         0.0021 -0.0003
  33. (1.99485) BD ( 1) O  1- C  2
               ( 67.03%)   0.8187* O  1 s( 46.13%)p 1.16( 53.66%)d 0.00(  0.20%)
                                         0.0000  0.6789  0.0210 -0.5089 -0.0135
                                         0.4645  0.0118  0.2480  0.0061 -0.0360
                                        -0.0159  0.0157  0.0048 -0.0150
               ( 32.97%)   0.5742* C  2 s( 31.75%)p 2.14( 68.03%)d 0.01(  0.22%)
                                         0.0000  0.5614  0.0486  0.6165  0.0476
                                        -0.5097 -0.0434 -0.1894 -0.0211 -0.0378
                                        -0.0153  0.0128  0.0076 -0.0182
  34. (1.98806) BD ( 2) O  1- C  2
               ( 66.54%)   0.8157* O  1 s(  0.10%)p99.99( 99.70%)d 2.01(  0.20%)
                                         0.0000  0.0314  0.0010 -0.4566 -0.0057
                                        -0.0736 -0.0009 -0.8849 -0.0095 -0.0107
                                         0.0227 -0.0256  0.0169 -0.0202
               ( 33.46%)   0.5784* C  2 s(  0.06%)p99.99( 99.58%)d 5.45(  0.35%)
[...]
  115. RY ( 8) O  4             0.00001     2.86372
  116. RY ( 9) O  4             0.00000     2.76305
  117. RY ( 1) C  5             0.00636     1.01208
  118. RY ( 2) C  5             0.00374     1.14217
  119. RY ( 3) C  5             0.00237     1.69866
  120. RY ( 4) C  5             0.00202     1.22185
  121. RY ( 5) C  5             0.00161     1.28410
  122. RY ( 6) C  5             0.00083     1.94020
  123. RY ( 7) C  5             0.00076     1.83240
  124. RY ( 8) C  5             0.00017     2.16487
  125. RY ( 9) C  5             0.00002     2.26820
  126. RY ( 1) C  6             0.00569     1.19309
  127. RY ( 2) C  6             0.00285     0.80532
  128. RY ( 3) C  6             0.00104     0.70460
  129. RY ( 4) C  6             0.00081     1.53193
  130. RY ( 5) C  6             0.00055     1.10378
  131. RY ( 6) C  6             0.00011     2.43471
  132. RY ( 7) C  6             0.00004     2.37199
  133. RY ( 8) C  6             0.00002     2.04075
  134. RY ( 9) C  6             0.00001     2.28269
  135. RY ( 1) C  7             0.00622     1.18998
  136. RY ( 2) C  7             0.00262     0.78285
  137. RY ( 3) C  7             0.00114     1.17760
  138. RY ( 4) C  7             0.00069     0.72499
  139. RY ( 5) C  7             0.00058     1.41968
  140. RY ( 6) C  7             0.00014     2.42826
  141. RY ( 7) C  7             0.00004     2.38879
  142. RY ( 8) C  7             0.00002     1.93898
  143. RY ( 9) C  7             0.00001     2.27506
  144. RY ( 1) C  8             0.00676     1.14784
  145. RY ( 2) C  8             0.00636     0.86833
  146. RY ( 3) C  8             0.00230     1.07790
  147. RY ( 4) C  8             0.00088     1.98418
  148. RY ( 5) C  8             0.00068     0.63408
  149. RY ( 6) C  8             0.00053     2.42961
  150. RY ( 7) C  8             0.00028     2.13576
  151. RY ( 8) C  8             0.00010     1.45340
  152. RY ( 9) C  8             0.00001     2.24772
  153. RY ( 1)Br  9             0.00280     0.67908
  154. RY ( 2)Br  9             0.00125     0.77509
  155. RY ( 3)Br  9             0.00032     0.62096
  156. RY ( 4)Br  9             0.00009     1.02768
  157. RY ( 5)Br  9             0.00004     0.61884
  158. RY ( 6)Br  9             0.00001     0.88599
  159. RY ( 7)Br  9             0.00001     1.02039
  160. RY ( 8)Br  9             0.00001     0.90441
  161. RY ( 9)Br  9             0.00000     1.09641
  162. RY (10)Br  9             0.00000     3.45936
  163. RY (11)Br  9             0.00000     3.52084
  164. RY (12)Br  9             0.00000     3.61505
  165. RY (13)Br  9             0.00000     3.58177
  166. RY (14)Br  9             0.00000     3.22622
  167. RY ( 1) C 10             0.00667     1.19172
  168. RY ( 2) C 10             0.00325     0.78623
  169. RY ( 3) C 10             0.00117     0.87755
  170. RY ( 4) C 10             0.00079     1.04628
  171. RY ( 5) C 10             0.00069     1.39163
  172. RY ( 6) C 10             0.00009     2.40477
  173. RY ( 7) C 10             0.00003     2.10521
  174. RY ( 8) C 10             0.00002     2.26683
  175. RY ( 9) C 10             0.00001     2.29106
  176. RY ( 1) C 11             0.00503     1.22434
  177. RY ( 2) C 11             0.00339     0.89607
  178. RY ( 3) C 11             0.00223     1.08942
  179. RY ( 4) C 11             0.00085     1.61731
  180. RY ( 5) C 11             0.00070     1.24671
  181. RY ( 6) C 11             0.00027     2.18417
  182. RY ( 7) C 11             0.00022     2.08616
  183. RY ( 8) C 11             0.00008     2.24839
  184. RY ( 9) C 11             0.00001     2.23552
  185. RY ( 1) C 12             0.00669     0.87046
  186. RY ( 2) C 12             0.00294     0.67904
  187. RY ( 3) C 12             0.00170     1.00526
  188. RY ( 4) C 12             0.00150     1.10886
  189. RY ( 5) C 12             0.00023     2.03077
  190. RY ( 6) C 12             0.00009     2.24081
  191. RY ( 7) C 12             0.00004     2.39551
  192. RY ( 8) C 12             0.00002     2.08314
  193. RY ( 9) C 12             0.00001     2.25276
  194. RY ( 1) H 13             0.00148     0.40676
  195. RY ( 2) H 13             0.00012     1.86886
  196. RY ( 3) H 13             0.00006     2.05903
  197. RY ( 4) H 13             0.00001     2.16760
  198. RY ( 1) H 14             0.00226     0.42481
  199. RY ( 2) H 14             0.00015     1.82515
  200. RY ( 3) H 14             0.00007     2.04785
  201. RY ( 4) H 14             0.00001     2.26615
  202. RY ( 1) H 15             0.00171     0.43025
  203. RY ( 2) H 15             0.00015     1.74674
  204. RY ( 3) H 15             0.00005     2.20737
  205. RY ( 4) H 15             0.00004     2.28408
  206. RY ( 1) H 16             0.00154     0.42865
  207. RY ( 2) H 16             0.00016     1.74145
  208. RY ( 3) H 16             0.00006     2.27010
  209. RY ( 4) H 16             0.00003     2.22785
  210. RY ( 1) H 17             0.00163     0.43986
  211. RY ( 2) H 17             0.00017     1.74986
  212. RY ( 3) H 17             0.00006     2.30346
  213. RY ( 4) H 17             0.00004     2.20589
  214. RY ( 1) H 18             0.00248     0.44285
  215. RY ( 2) H 18             0.00009     1.88874
  216. RY ( 3) H 18             0.00005     1.88609
  217. RY ( 4) H 18             0.00002     2.36164
  218. RY ( 1) H 19             0.00216     0.43557
  219. RY ( 2) H 19             0.00013     1.88890
  220. RY ( 3) H 19             0.00011     1.97031
  221. RY ( 4) H 19             0.00001     2.35097
          -------------------------------
                 Total Lewis  110.11992  ( 98.3214%)
           Valence non-Lewis    1.70836  (  1.5253%)
           Rydberg non-Lewis    0.17172  (  0.1533%)
          -------------------------------
               Total unit  1  112.00000  (100.0000%)
              Charge unit  1    0.00000

 $CHOOSE
   LONE 1 2 4 2 9 3 END
   BOND D 1 2 S 2 3 S 2 12 S 3 4 S 3 13 S 3 14 S 4 5 S 5 6 D 5 11 D 6 7 S 6 15
        S 7 8 S 7 16 S 8 9 D 8 10 S 10 11 S 10 17 S 11 12 S 12 18 S 12 19 END
 $END


 Checkpoint NBOs sorted by occupancy:

  Sort    Occ       Energy   Orig   Label
 -----------------------------------------------------------
    1.  2.00000  -399.85965    9.   CR ( 1)Br  9
    2.  2.00000  -130.21410   10.   CR ( 2)Br  9
    3.  2.00000   -38.14653   12.   CR ( 4)Br  9
    4.  2.00000   -38.13937   14.   CR ( 6)Br  9
    5.  2.00000   -38.13866   16.   CR ( 8)Br  9
    6.  2.00000   -24.93920   17.   CR ( 9)Br  9
    7.  2.00000   -24.93990   15.   CR ( 7)Br  9
    8.  2.00000    -2.73996   19.   CR (11)Br  9
    9.  2.00000    -2.73127   20.   CR (12)Br  9
   10.  2.00000   -24.94663   13.   CR ( 5)Br  9
   11.  2.00000   -24.45148   11.   CR ( 3)Br  9
   12.  2.00000    -2.74095   18.   CR (10)Br  9
   13.  2.00000    -2.73396   22.   CR (14)Br  9
   14.  1.99999    -2.74102   21.   CR (13)Br  9
   15.  1.99996   -10.36147    8.   CR ( 1) C  8
   16.  1.99996   -10.33169   24.   CR ( 1) C 11
   17.  1.99996   -19.26379    1.   CR ( 1) O  1
   18.  1.99995   -10.40606    2.   CR ( 1) C  2
   19.  1.99995   -19.30339    4.   CR ( 1) O  4
   20.  1.99995   -10.37540    5.   CR ( 1) C  5
   21.  1.99995   -10.32564    7.   CR ( 1) C  7
   22.  1.99995   -10.31982    6.   CR ( 1) C  6
   23.  1.99995   -10.32753   23.   CR ( 1) C 10
   24.  1.99994   -10.37354    3.   CR ( 1) C  3
   25.  1.99993   -10.32959   25.   CR ( 1) C 12
   26.  1.99485    -1.04019   33.   BD ( 1) O  1- C  2
   27.  1.99457    -0.74983   30.   LP ( 1)Br  9
   28.  1.98947    -0.90477   40.   BD ( 1) O  4- C  5
   29.  1.98871    -0.68641   35.   BD ( 1) C  2- C  3
   30.  1.98806    -0.48672   34.   BD ( 2) O  1- C  2
   31.  1.98592    -0.85363   37.   BD ( 1) C  3- O  4
   32.  1.98445    -0.65035   49.   BD ( 1) C  8-Br  9
   33.  1.97989    -0.67243   36.   BD ( 1) C  2- C 12
   34.  1.97822    -0.71629   47.   BD ( 1) C  7- C  8
   35.  1.97790    -0.57982   48.   BD ( 1) C  7- H 16
   36.  1.97778    -0.58132   53.   BD ( 1) C 10- H 17
   37.  1.97728    -0.63259   26.   LP ( 1) O  1
   38.  1.97680    -0.71635   50.   BD ( 1) C  8- C 10
   39.  1.97670    -0.37076   31.   LP ( 2)Br  9
   40.  1.97655    -0.57799   46.   BD ( 1) C  6- H 15
   41.  1.97460    -0.57341   55.   BD ( 1) C 12- H 18
   42.  1.97326    -0.70817   41.   BD ( 1) C  5- C  6
   43.  1.97079    -0.59106   38.   BD ( 1) C  3- H 13
   44.  1.97012    -0.70874   42.   BD ( 1) C  5- C 11
   45.  1.96787    -0.69466   44.   BD ( 1) C  6- C  7
   46.  1.96784    -0.59002   39.   BD ( 1) C  3- H 14
   47.  1.96692    -0.65374   54.   BD ( 1) C 11- C 12
   48.  1.96243    -0.69587   52.   BD ( 1) C 10- C 11
   49.  1.95843    -0.54959   28.   LP ( 1) O  4
   50.  1.94446    -0.36661   32.   LP ( 3)Br  9
   51.  1.94282    -0.56644   56.   BD ( 1) C 12- H 19
   52.  1.87972    -0.35634   27.   LP ( 2) O  1
   53.  1.87801    -0.42346   29.   LP ( 2) O  4
   54.  1.69348    -0.33866   51.   BD ( 2) C  8- C 10
   55.  1.67998    -0.32411   45.   BD ( 2) C  6- C  7
   56.  1.64258    -0.33020   43.   BD ( 2) C  5- C 11
   57.  0.39887     0.06709   67.   BD*( 2) C  5- C 11
   58.  0.39356     0.05724   75.   BD*( 2) C  8- C 10
   59.  0.32942     0.07678   69.   BD*( 2) C  6- C  7
   60.  0.08349     0.08492   58.   BD*( 2) O  1- C  2
   61.  0.07424     0.44617   59.   BD*( 1) C  2- C  3
   62.  0.06358     0.46469   60.   BD*( 1) C  2- C 12
   63.  0.03887     0.63793   66.   BD*( 1) C  5- C 11
   64.  0.02876     0.44688   64.   BD*( 1) O  4- C  5
   65.  0.02811     0.18808   73.   BD*( 1) C  8-Br  9
   66.  0.02647     0.64921   65.   BD*( 1) C  5- C  6
   67.  0.02638     0.64049   71.   BD*( 1) C  7- C  8
   68.  0.02526     0.64304   74.   BD*( 1) C  8- C 10
   69.  0.02456     0.65445   76.   BD*( 1) C 10- C 11
   70.  0.02320     0.50326   63.   BD*( 1) C  3- H 14
   71.  0.02172     0.49694   78.   BD*( 1) C 11- C 12
   72.  0.01788     0.62943   90.   RY ( 1) C  2
   73.  0.01631     0.37889   61.   BD*( 1) C  3- O  4
   74.  0.01593     0.50299   80.   BD*( 1) C 12- H 19
   75.  0.01561     0.65722   68.   BD*( 1) C  6- C  7
   76.  0.01464     0.54415   77.   BD*( 1) C 10- H 17
   77.  0.01388     0.55550   72.   BD*( 1) C  7- H 16
   78.  0.01266     0.55362   70.   BD*( 1) C  6- H 15
   79.  0.01215     0.53171   62.   BD*( 1) C  3- H 13
   80.  0.01125     0.70216   57.   BD*( 1) O  1- C  2
   81.  0.00945     0.52693   79.   BD*( 1) C 12- H 18
   82.  0.00676     1.14784  144.   RY ( 1) C  8
   83.  0.00670     1.87781   91.   RY ( 2) C  2
   84.  0.00669     0.87046  185.   RY ( 1) C 12
   85.  0.00667     1.19172  167.   RY ( 1) C 10
   86.  0.00636     0.86833  145.   RY ( 2) C  8
   87.  0.00636     1.01208  117.   RY ( 1) C  5
   88.  0.00624     0.73417   99.   RY ( 1) C  3
   89.  0.00622     1.18998  135.   RY ( 1) C  7
   90.  0.00569     1.19309  126.   RY ( 1) C  6
   91.  0.00503     1.22434  176.   RY ( 1) C 11
   92.  0.00390     1.27013   81.   RY ( 1) O  1
   93.  0.00374     1.05666   92.   RY ( 3) C  2
   94.  0.00374     1.14217  118.   RY ( 2) C  5
   95.  0.00339     0.89607  177.   RY ( 2) C 11
   96.  0.00325     0.78623  168.   RY ( 2) C 10
   97.  0.00312     1.34707  108.   RY ( 1) O  4
   98.  0.00294     0.67904  186.   RY ( 2) C 12
   99.  0.00285     0.80532  127.   RY ( 2) C  6
  100.  0.00280     0.67908  153.   RY ( 1)Br  9
  101.  0.00263     1.21289  100.   RY ( 2) C  3
  102.  0.00262     0.78285  136.   RY ( 2) C  7
  103.  0.00248     0.44285  214.   RY ( 1) H 18
  104.  0.00237     1.69866  119.   RY ( 3) C  5
  105.  0.00230     1.07790  146.   RY ( 3) C  8
  106.  0.00226     0.42481  198.   RY ( 1) H 14
  107.  0.00223     1.08942  178.   RY ( 3) C 11
  108.  0.00216     0.43557  218.   RY ( 1) H 19
  109.  0.00202     1.22185  120.   RY ( 4) C  5
  110.  0.00201     1.37599  109.   RY ( 2) O  4
  111.  0.00176     1.08828  101.   RY ( 3) C  3
  112.  0.00171     0.43025  202.   RY ( 1) H 15
  113.  0.00170     1.00526  187.   RY ( 3) C 12
  114.  0.00163     0.43986  210.   RY ( 1) H 17
  115.  0.00161     1.28410  121.   RY ( 5) C  5
  116.  0.00161     1.35770   93.   RY ( 4) C  2
  117.  0.00154     0.42865  206.   RY ( 1) H 16
  118.  0.00150     1.10886  188.   RY ( 4) C 12
  119.  0.00148     0.40676  194.   RY ( 1) H 13
  120.  0.00125     0.77509  154.   RY ( 2)Br  9
  121.  0.00124     1.60635  102.   RY ( 4) C  3
  122.  0.00117     0.87755  169.   RY ( 3) C 10
  123.  0.00114     1.17760  137.   RY ( 3) C  7
  124.  0.00104     0.70460  128.   RY ( 3) C  6
  125.  0.00088     1.29451   94.   RY ( 5) C  2
  126.  0.00088     1.98418  147.   RY ( 4) C  8
  127.  0.00085     1.61731  179.   RY ( 4) C 11
  128.  0.00083     1.94020  122.   RY ( 6) C  5
  129.  0.00083     1.43773  103.   RY ( 5) C  3
  130.  0.00081     1.53193  129.   RY ( 4) C  6
  131.  0.00079     1.04628  170.   RY ( 4) C 10
  132.  0.00076     1.83240  123.   RY ( 7) C  5
  133.  0.00070     1.24671  180.   RY ( 5) C 11
  134.  0.00069     0.72499  138.   RY ( 4) C  7
  135.  0.00069     1.39163  171.   RY ( 5) C 10
  136.  0.00068     0.63408  148.   RY ( 5) C  8
  137.  0.00063     2.14614   95.   RY ( 6) C  2
  138.  0.00058     1.41968  139.   RY ( 5) C  7
  139.  0.00055     1.10378  130.   RY ( 5) C  6
  140.  0.00053     2.42961  149.   RY ( 6) C  8
  141.  0.00049     1.84076  104.   RY ( 6) C  3
  142.  0.00032     0.62096  155.   RY ( 3)Br  9
  143.  0.00029     1.56940   82.   RY ( 2) O  1
  144.  0.00029     2.10911  110.   RY ( 3) O  4
  145.  0.00028     2.13576  150.   RY ( 7) C  8
  146.  0.00027     2.18417  181.   RY ( 6) C 11
  147.  0.00026     1.76395   96.   RY ( 7) C  2
  148.  0.00023     2.03077  189.   RY ( 5) C 12
  149.  0.00022     2.08616  182.   RY ( 7) C 11
  150.  0.00019     2.45515  111.   RY ( 4) O  4
  151.  0.00017     2.42810  112.   RY ( 5) O  4
  152.  0.00017     2.16487  124.   RY ( 8) C  5
  153.  0.00017     1.74986  211.   RY ( 2) H 17
  154.  0.00016     1.74145  207.   RY ( 2) H 16
  155.  0.00015     1.82515  199.   RY ( 2) H 14
  156.  0.00015     1.74674  203.   RY ( 2) H 15
  157.  0.00014     2.42826  140.   RY ( 6) C  7
  158.  0.00013     1.88890  219.   RY ( 2) H 19
  159.  0.00012     1.21439   83.   RY ( 3) O  1
  160.  0.00012     1.86886  195.   RY ( 2) H 13
  161.  0.00011     2.01312  105.   RY ( 7) C  3
  162.  0.00011     2.43471  131.   RY ( 6) C  6
  163.  0.00011     1.97031  220.   RY ( 3) H 19
  164.  0.00010     1.45340  151.   RY ( 8) C  8
  165.  0.00009     2.24081  190.   RY ( 6) C 12
  166.  0.00009     1.02768  156.   RY ( 4)Br  9
  167.  0.00009     1.88874  215.   RY ( 2) H 18
  168.  0.00009     2.40477  172.   RY ( 6) C 10
  169.  0.00008     2.24839  183.   RY ( 8) C 11
  170.  0.00007     2.04785  200.   RY ( 3) H 14
  171.  0.00006     2.05903  196.   RY ( 3) H 13
  172.  0.00006     2.27010  208.   RY ( 3) H 16
  173.  0.00006     2.45894  113.   RY ( 6) O  4
  174.  0.00006     2.30346  212.   RY ( 3) H 17
  175.  0.00005     1.88609  216.   RY ( 3) H 18
  176.  0.00005     2.20737  204.   RY ( 3) H 15
  177.  0.00005     2.15159  106.   RY ( 8) C  3
  178.  0.00004     2.39551  191.   RY ( 7) C 12
  179.  0.00004     2.37199  132.   RY ( 7) C  6
  180.  0.00004     0.61884  157.   RY ( 5)Br  9
  181.  0.00004     2.38879  141.   RY ( 7) C  7
  182.  0.00004     1.14423   84.   RY ( 4) O  1
  183.  0.00004     1.62020   97.   RY ( 8) C  2
  184.  0.00004     2.28408  205.   RY ( 4) H 15
  185.  0.00004     2.20589  213.   RY ( 4) H 17
  186.  0.00003     2.22785  209.   RY ( 4) H 16
  187.  0.00003     2.10521  173.   RY ( 7) C 10
  188.  0.00002     2.26820  125.   RY ( 9) C  5
  189.  0.00002     2.08314  192.   RY ( 8) C 12
  190.  0.00002     2.04075  133.   RY ( 8) C  6
  191.  0.00002     1.93898  142.   RY ( 8) C  7
  192.  0.00002     2.26683  174.   RY ( 8) C 10
  193.  0.00002     2.36164  217.   RY ( 4) H 18
  194.  0.00001     2.90022  114.   RY ( 7) O  4
  195.  0.00001     2.35097  221.   RY ( 4) H 19
  196.  0.00001     2.17382   98.   RY ( 9) C  2
  197.  0.00001     0.88599  158.   RY ( 6)Br  9
  198.  0.00001     2.23552  184.   RY ( 9) C 11
  199.  0.00001     2.16760  197.   RY ( 4) H 13
  200.  0.00001     1.02039  159.   RY ( 7)Br  9
  201.  0.00001     3.24223   85.   RY ( 5) O  1
  202.  0.00001     2.28269  134.   RY ( 9) C  6
  203.  0.00001     2.27506  143.   RY ( 9) C  7
  204.  0.00001     2.24772  152.   RY ( 9) C  8
  205.  0.00001     2.29106  175.   RY ( 9) C 10
  206.  0.00001     2.25276  193.   RY ( 9) C 12
  207.  0.00001     0.90441  160.   RY ( 8)Br  9
  208.  0.00001     2.21015  107.   RY ( 9) C  3
  209.  0.00001     2.26615  201.   RY ( 4) H 14
  210.  0.00001     2.86372  115.   RY ( 8) O  4
  211.  0.00000     2.84207   86.   RY ( 6) O  1
  212.  0.00000     2.87748   87.   RY ( 7) O  1
  213.  0.00000     2.76305  116.   RY ( 9) O  4
  214.  0.00000     1.09641  161.   RY ( 9)Br  9
  215.  0.00000     2.91126   88.   RY ( 8) O  1
  216.  0.00000     2.84736   89.   RY ( 9) O  1
  217.  0.00000     3.45936  162.   RY (10)Br  9
  218.  0.00000     3.52084  163.   RY (11)Br  9
  219.  0.00000     3.61505  164.   RY (12)Br  9
  220.  0.00000     3.58177  165.   RY (13)Br  9
  221.  0.00000     3.22622  166.   RY (14)Br  9

 NBO analysis completed in 1.02 CPU seconds (1 wall second)
 Maximum scratch memory used by NBO was 920717 words (7.02 MB)
 Maximum scratch memory used by G16NBO was 83164 words (0.63 MB)

 Opening RunExU unformatted file "/home/rpaton/opt/dzvp/popn/Gau-1000085.EUF"
 Read unf file /home/rpaton/opt/dzvp/popn/Gau-1000085.EUF:
 Label Gaussian matrix elements                                         IVers= 2 NLab= 2 Version=ES64L-G16RevC.01
 Title arbr47_wb97xd_popncreated by GaussianPrep                       
 NAtoms=    19 NBasis=   221 NBsUse=   221 ICharg=     0 Multip=     1 NE=   112 Len12L=8 Len4L=8 IOpCl= 0 ICGU=111
 GAUSSIAN SCALARS                    NI= 1 NR= 1 NTot=       1 LenBuf=    2 NRI=1 N=    1000
 ALPHA ORBITAL ENERGIES              NI= 0 NR= 1 NTot=     221 LenBuf= 2048 NRI=1 N=     221
 ALPHA MO COEFFICIENTS               NI= 0 NR= 1 NTot=   48841 LenBuf= 2048 NRI=1 N=     221     221
 Store file  10524 Len=   48841.
 NPA CHARGES                         NI= 0 NR= 1 NTot=      19 LenBuf= 2048 NRI=1 N=      19
 Recovered energy= -3070.98914376     dipole=      0.018487464532      0.418438196251      0.125988898115
 Unable to Open any file for archive entry.
 1\1\GINC-DYNAMO\SP\RwB97XD\def2SVP\C9H7Br1O2\RPATON\26-Sep-2024\0\\# p
 op=(nbo6read,savenbos,hirshfeld) wb97xd/def2svp\\arbr47_wb97xd_popncre
 ated by GaussianPrep\\0,1\O,0,-4.214079,-1.571068,0.462829\C,0,-3.3396
 51,-0.819305,0.122165\C,0,-3.450031,0.678828,0.381654\O,0,-2.49273,1.4
 65787,-0.287494\C,0,-1.20614,1.034543,-0.192015\C,0,-0.185399,1.969375
 ,-0.029165\C,0,1.136934,1.543098,0.047813\C,0,1.424586,0.180135,-0.025
 604\Br,0,3.218892,-0.407989,0.100823\C,0,0.406098,-0.755372,-0.194771\
 C,0,-0.919009,-0.332063,-0.293756\C,0,-2.065406,-1.269092,-0.565298\H,
 0,-4.443476,1.021002,0.062862\H,0,-3.377863,0.824485,1.476475\H,0,-0.4
 42753,3.027341,0.038304\H,0,1.941726,2.268037,0.177189\H,0,0.643339,-1
 .818878,-0.264164\H,0,-1.852509,-2.307973,-0.278787\H,0,-2.287101,-1.2
 73037,-1.649485\\Version=ES64L-G16RevC.01\State=1-A\HF=-3070.9891438\R
 MSD=5.807e-09\Dipole=-0.0184875,0.4184382,-0.1259889\Quadrupole=-4.695
 3418,3.2273388,1.468003,-3.875405,1.4082706,2.7171611\PG=C01 [X(C9H7Br
 1O2)]\\@
 The archive entry for this job was punched.


 Just remember, when you're over the hill, you begin to pick up speed.
 -- Charles Schulz
 Job cpu time:       0 days  0 hours  8 minutes 28.0 seconds.
 Elapsed time:       0 days  0 hours  0 minutes 21.5 seconds.
 File lengths (MBytes):  RWF=     32 Int=      0 D2E=      0 Chk=      4 Scr=      1
 Normal termination of Gaussian 16 at Thu Sep 26 10:48:09 2024.
