 Entering Gaussian System, Link 0=/usr/local/Gaussian/G16C/g16/g16
 Input=arbr34_wb97xd_popn.com
 Output=arbr34_wb97xd_popn.log
 Initial command:
 /usr/local/Gaussian/G16C/g16/l1.exe "/home/rpaton/opt/dzvp/popn/Gau-983558.inp" -scrdir="/home/rpaton/opt/dzvp/popn/"
 Entering Link 1 = /usr/local/Gaussian/G16C/g16/l1.exe PID=    983559.
  
 Copyright (c) 1988-2019, Gaussian, Inc.  All Rights Reserved.
  
 This is part of the Gaussian(R) 16 program.  It is based on
 the Gaussian(R) 09 system (copyright 2009, Gaussian, Inc.),
 the Gaussian(R) 03 system (copyright 2003, Gaussian, Inc.),
 the Gaussian(R) 98 system (copyright 1998, Gaussian, Inc.),
 the Gaussian(R) 94 system (copyright 1995, Gaussian, Inc.),
 the Gaussian 92(TM) system (copyright 1992, Gaussian, Inc.),
 the Gaussian 90(TM) system (copyright 1990, Gaussian, Inc.),
 the Gaussian 88(TM) system (copyright 1988, Gaussian, Inc.),
 the Gaussian 86(TM) system (copyright 1986, Carnegie Mellon
 University), and the Gaussian 82(TM) system (copyright 1983,
 Carnegie Mellon University). Gaussian is a federally registered
 trademark of Gaussian, Inc.
  
 This software contains proprietary and confidential information,
 including trade secrets, belonging to Gaussian, Inc.
  
 This software is provided under written license and may be
 used, copied, transmitted, or stored only in accord with that
 written license.
  
 The following legend is applicable only to US Government
 contracts under FAR:
  
                    RESTRICTED RIGHTS LEGEND
  
 Use, reproduction and disclosure by the US Government is
 subject to restrictions as set forth in subparagraphs (a)
 and (c) of the Commercial Computer Software - Restricted
 Rights clause in FAR 52.227-19.
  
 Gaussian, Inc.
 340 Quinnipiac St., Bldg. 40, Wallingford CT 06492
  
  
 ---------------------------------------------------------------
 Warning -- This program may not be used in any manner that
 competes with the business of Gaussian, Inc. or will provide
 assistance to any competitor of Gaussian, Inc.  The licensee
 of this program is prohibited from giving any competitor of
 Gaussian, Inc. access to this program.  By using this program,
 the user acknowledges that Gaussian, Inc. is engaged in the
 business of creating and licensing software in the field of
 computational chemistry and represents and warrants to the
 licensee that it is not a competitor of Gaussian, Inc. and that
 it will not use this program in any manner prohibited above.
 ---------------------------------------------------------------
  

 Cite this work as:
 Gaussian 16, Revision C.01,
 M. J. Frisch, G. W. Trucks, H. B. Schlegel, G. E. Scuseria, 
 M. A. Robb, J. R. Cheeseman, G. Scalmani, V. Barone, 
 G. A. Petersson, H. Nakatsuji, X. Li, M. Caricato, A. V. Marenich, 
 J. Bloino, B. G. Janesko, R. Gomperts, B. Mennucci, H. P. Hratchian, 
 J. V. Ortiz, A. F. Izmaylov, J. L. Sonnenberg, D. Williams-Young, 
 F. Ding, F. Lipparini, F. Egidi, J. Goings, B. Peng, A. Petrone, 
 T. Henderson, D. Ranasinghe, V. G. Zakrzewski, J. Gao, N. Rega, 
 G. Zheng, W. Liang, M. Hada, M. Ehara, K. Toyota, R. Fukuda, 
 J. Hasegawa, M. Ishida, T. Nakajima, Y. Honda, O. Kitao, H. Nakai, 
 T. Vreven, K. Throssell, J. A. Montgomery, Jr., J. E. Peralta, 
 F. Ogliaro, M. J. Bearpark, J. J. Heyd, E. N. Brothers, K. N. Kudin, 
 V. N. Staroverov, T. A. Keith, R. Kobayashi, J. Normand, 
 K. Raghavachari, A. P. Rendell, J. C. Burant, S. S. Iyengar, 
 J. Tomasi, M. Cossi, J. M. Millam, M. Klene, C. Adamo, R. Cammi, 
 J. W. Ochterski, R. L. Martin, K. Morokuma, O. Farkas, 
 J. B. Foresman, and D. J. Fox, Gaussian, Inc., Wallingford CT, 2019.
 
 ******************************************
 Gaussian 16:  ES64L-G16RevC.01  3-Jul-2019
                26-Sep-2024 
 ******************************************
 %chk=arbr34_wb97xd_popn.chk
 %mem=48GB
 %nprocshared=24
 Will use up to   24 processors via shared memory.
 --------------------------------------------------
 # pop=(nbo6read,savenbos,hirshfeld) wb97xd/def2svp
 --------------------------------------------------
 1/38=1,163=2,172=1/1;
 2/12=2,17=6,18=5,40=1/2;
 3/5=43,7=101,11=2,25=1,30=1,74=-58/1,2,3;
 4//1;
 5/5=2,38=5/2;
 6/7=2,8=2,9=2,10=2,28=1,40=2,73=1,79=1,113=1,114=1,124=2103,126=1/1,12;
 99/5=1,9=1/99;
 -----------------------------------------
 arbr34_wb97xd_popncreated by GaussianPrep
 -----------------------------------------
 Symbolic Z-matrix:
 Charge =  0 Multiplicity = 1
 Br                    3.83229  -0.11274  0. 
 C                     1.95558   0.14338   0. 
 C                     1.44448   1.44348   0. 
 C                     0.06516   1.64522   0. 
 C                    -0.78433   0.54079   0. 
 C                    -0.25656  -0.76217   0. 
 C                     1.11655  -0.97299   0. 
 C                    -1.37428  -1.77708  0. 
 C                    -2.61136  -0.91072   0. 
 C                    -3.95059  -1.28339   0. 
 C                    -4.92987  -0.28716  0. 
 C                    -4.57173   1.06394   0. 
 C                    -3.22954   1.44286  0. 
 C                    -2.25217   0.44881  0. 
 H                     2.12692   2.29455  0. 
 H                    -0.33443   2.6616   0. 
 H                     1.53716  -1.98021   0. 
 H                    -1.33094  -2.43241  -0.88576 
 H                    -1.33094  -2.43241   0.88575 
 H                    -4.23678  -2.33801   0. 
 H                    -5.98576  -0.5663   0. 
 H                    -5.35057   1.82957   0. 
 H                    -2.95303   2.49965  0. 
 
                          Input orientation:                          
 ---------------------------------------------------------------------
 Center     Atomic      Atomic             Coordinates (Angstroms)
 Number     Number       Type             X           Y           Z
 ---------------------------------------------------------------------
      1         35           0        3.832292   -0.112738   -0.000001
      2          6           0        1.955577    0.143382    0.000003
      3          6           0        1.444482    1.443484    0.000001
      4          6           0        0.065161    1.645215    0.000001
      5          6           0       -0.784325    0.540792    0.000001
      6          6           0       -0.256555   -0.762172    0.000001
      7          6           0        1.116555   -0.972986    0.000003
      8          6           0       -1.374280   -1.777081   -0.000002
      9          6           0       -2.611360   -0.910720    0.000001
     10          6           0       -3.950585   -1.283392    0.000002
     11          6           0       -4.929868   -0.287160   -0.000001
     12          6           0       -4.571730    1.063936    0.000001
     13          6           0       -3.229545    1.442857   -0.000003
     14          6           0       -2.252172    0.448808   -0.000002
     15          1           0        2.126916    2.294546   -0.000001
     16          1           0       -0.334429    2.661602   -0.000001
     17          1           0        1.537161   -1.980207    0.000002
     18          1           0       -1.330937   -2.432411   -0.885757
     19          1           0       -1.330939   -2.432413    0.885750
     20          1           0       -4.236777   -2.338007    0.000001
     21          1           0       -5.985756   -0.566295   -0.000001
     22          1           0       -5.350569    1.829566    0.000001
     23          1           0       -2.953031    2.499653   -0.000001
 ---------------------------------------------------------------------
                    Distance matrix (angstroms):
                    1          2          3          4          5
     1  Br   0.000000
     2  C    1.894111   0.000000
     3  C    2.850169   1.396955   0.000000
     4  C    4.157123   2.414368   1.393995   0.000000
     5  C    4.662645   2.768573   2.404669   1.393333   0.000000
     6  C    4.140101   2.390305   2.785399   2.428788   1.405794
     7  C    2.848729   1.396508   2.438619   2.821419   2.429994
     8  C    5.466117   3.843973   4.279890   3.712694   2.391774
     9  C    6.492875   4.687008   4.689577   3.700888   2.333440
    10  C    7.870426   6.076054   6.045048   4.970207   3.654155
    11  C    8.763896   6.898893   6.605109   5.355781   4.227414
    12  C    8.485997   6.591901   6.028172   4.673183   3.823365
    13  C    7.231142   5.345477   4.674027   3.300914   2.606304
    14  C    6.110322   4.218819   3.828137   2.607954   1.470726
    15  H    2.950140   2.157977   1.090882   2.161588   3.398673
    16  H    5.005849   3.403757   2.156000   1.092115   2.168004
    17  H    2.958896   2.164417   3.424945   3.912859   3.427059
    18  H    5.729257   4.268542   4.848719   4.400078   3.150125
    19  H    5.729258   4.268542   4.848721   4.400079   3.150125
    20  H    8.370287   6.671022   6.824689   5.862826   4.495210
    21  H    9.828519   7.972980   7.697249   6.442389   5.317944
    22  H    9.386026   7.498199   6.806010   5.418867   4.744631
    23  H    7.270846   5.444855   4.522567   3.136805   2.922400
                    6          7          8          9         10
     6  C    0.000000
     7  C    1.389199   0.000000
     8  C    1.509751   2.617409   0.000000
     9  C    2.359486   3.728435   1.510281   0.000000
    10  C    3.730620   5.076639   2.623181   1.390111   0.000000
    11  C    4.697392   6.085194   3.855136   2.400897   1.396951
    12  C    4.685660   6.041990   4.277273   2.782502   2.428121
    13  C    3.701462   4.972412   3.716182   2.433409   2.819988
    14  C    2.334301   3.656476   2.392755   1.406177   2.425927
    15  H    3.876140   3.420175   5.369965   5.720576   7.052493
    16  H    3.424660   3.913513   4.558859   4.236260   5.351594
    17  H    2.168185   1.091514   2.918518   4.284160   5.531809
    18  H    2.174526   2.984076   1.102678   2.177061   2.994557
    19  H    2.174525   2.984075   1.102676   2.177057   2.994552
    20  H    4.280820   5.524622   2.916938   2.163129   1.092757
    21  H    5.732548   7.113945   4.767779   3.391928   2.157811
    22  H    5.715425   7.048262   5.368312   3.874588   3.413277
    23  H    4.232078   5.349837   4.558828   3.427446   3.912358
                   11         12         13         14         15
    11  C    0.000000
    12  C    1.397756   0.000000
    13  C    2.425708   1.394648   0.000000
    14  C    2.776996   2.399736   1.394056   0.000000
    15  H    7.514214   6.810746   5.423749   4.752174   0.000000
    16  H    5.460152   4.528494   3.141184   2.928173   2.488564
    17  H    6.684974   6.825347   5.868463   4.501017   4.315243
    18  H    4.282402   4.848892   4.405335   3.151929   5.923296
    19  H    4.282401   4.848890   4.405335   3.151930   5.923298
    20  H    2.164798   3.418393   3.912729   3.421256   7.871286
    21  H    1.092161   2.158037   3.410776   3.869119   8.602317
    22  H    2.158128   1.092144   2.155989   3.392132   7.491928
    23  H    3.416754   2.163670   1.092373   2.167295   5.084086
                   16         17         18         19         20
    16  H    0.000000
    17  H    5.004922   0.000000
    18  H    5.265602   3.035629   0.000000
    19  H    5.265603   3.035628   1.771507   0.000000
    20  H    6.342272   5.785013   3.039307   3.039302   0.000000
    21  H    6.508211   7.654634   5.092572   5.092570   2.489556
    22  H    5.084677   7.871162   5.925070   5.925069   4.313838
    23  H    2.623605   6.342789   5.266973   5.266974   5.005093
                   21         22         23
    21  H    0.000000
    22  H    2.478631   0.000000
    23  H    4.312477   2.489419   0.000000
 Stoichiometry    C13H9Br
 Framework group  C1[X(C13H9Br)]
 Deg. of freedom    63
 Full point group                 C1      NOp   1
 Largest Abelian subgroup         C1      NOp   1
 Largest concise Abelian subgroup C1      NOp   1
                         Standard orientation:                         
 ---------------------------------------------------------------------
 Center     Atomic      Atomic             Coordinates (Angstroms)
 Number     Number       Type             X           Y           Z
 ---------------------------------------------------------------------
      1         35           0       -3.832292   -0.112738    0.000001
      2          6           0       -1.955577    0.143382   -0.000003
      3          6           0       -1.444482    1.443484   -0.000001
      4          6           0       -0.065161    1.645215   -0.000001
      5          6           0        0.784325    0.540792   -0.000001
      6          6           0        0.256555   -0.762172   -0.000001
      7          6           0       -1.116555   -0.972986   -0.000003
      8          6           0        1.374280   -1.777081    0.000002
      9          6           0        2.611360   -0.910720   -0.000001
     10          6           0        3.950585   -1.283392   -0.000002
     11          6           0        4.929868   -0.287160    0.000001
     12          6           0        4.571730    1.063936   -0.000001
     13          6           0        3.229545    1.442857    0.000003
     14          6           0        2.252172    0.448808    0.000002
     15          1           0       -2.126916    2.294546    0.000001
     16          1           0        0.334429    2.661602    0.000001
     17          1           0       -1.537161   -1.980207   -0.000002
     18          1           0        1.330937   -2.432411    0.885757
     19          1           0        1.330939   -2.432413   -0.885750
     20          1           0        4.236777   -2.338007   -0.000001
     21          1           0        5.985756   -0.566295    0.000001
     22          1           0        5.350569    1.829566   -0.000001
     23          1           0        2.953031    2.499653    0.000001
 ---------------------------------------------------------------------
 Rotational constants (GHZ):           2.1455877           0.2135613           0.1944651
 Standard basis: def2SVP (5D, 7F)
 There are   275 symmetry adapted cartesian basis functions of A   symmetry.
 There are   259 symmetry adapted basis functions of A   symmetry.
   259 basis functions,   468 primitive gaussians,   275 cartesian basis functions
    61 alpha electrons       61 beta electrons
       nuclear repulsion energy      1038.6404984401 Hartrees.
 NAtoms=   23 NActive=   23 NUniq=   23 SFac= 1.00D+00 NAtFMM=   60 NAOKFM=F Big=F
 Integral buffers will be    131072 words long.
 Raffenetti 2 integral format.
 Two-electron integral symmetry is turned on.
 Nuclear repulsion after empirical dispersion term =     1038.6259167825 Hartrees.
 One-electron integrals computed using PRISM.
   1 Symmetry operations used in ECPInt.
 ECPInt:  NShTT=    6903 NPrTT=   27032 LenC2=    6463 LenP2D=   18469.
 LDataN:  DoStor=T MaxTD1= 4 Len=   56
 NBasis=   259 RedAO= T EigKep=  2.46D-04  NBF=   259
 NBsUse=   259 1.00D-06 EigRej= -1.00D+00 NBFU=   259
 ExpMin= 1.22D-01 ExpMax= 1.13D+05 ExpMxC= 1.70D+04 IAcc=3 IRadAn=         5 AccDes= 0.00D+00
 Harris functional with IExCor= 4639 and IRadAn=       5 diagonalized for initial guess.
 HarFok:  IExCor= 4639 AccDes= 0.00D+00 IRadAn=         5 IDoV= 1 UseB2=F ITyADJ=14
 ICtDFT=  3500011 ScaDFX=  1.000000  1.000000  1.000000  1.000000
 FoFCou: FMM=F IPFlag=           0 FMFlag=      100000 FMFlg1=           0
         NFxFlg=           0 DoJE=T BraDBF=F KetDBF=T FulRan=T
         wScrn=  0.000000 ICntrl=       500 IOpCl=  0 I1Cent=   200000004 NGrid=           0
         NMat0=    1 NMatS0=      1 NMatT0=    0 NMatD0=    1 NMtDS0=    0 NMtDT0=    0
 Petite list used in FoFCou.
 Requested convergence on RMS density matrix=1.00D-08 within 128 cycles.
 Requested convergence on MAX density matrix=1.00D-06.
 Requested convergence on             energy=1.00D-06.
 No special actions if energy rises.
 Integral accuracy reduced to 1.0D-05 until final iterations.
 Initial convergence to 1.0D-05 achieved.  Increase integral accuracy.
 SCF Done:  E(RwB97XD) =  -3074.19976390     A.U. after   15 cycles
            NFock= 15  Conv=0.60D-08     -V/T= 2.0027

 **********************************************************************

            Population analysis using the SCF Density.

 **********************************************************************

 Orbital symmetries:
       Occupied  (A) (A) (A) (A) (A) (A) (A) (A) (A) (A) (A) (A)
                 (A) (A) (A) (A) (A) (A) (A) (A) (A) (A) (A) (A)
                 (A) (A) (A) (A) (A) (A) (A) (A) (A) (A) (A) (A)
                 (A) (A) (A) (A) (A) (A) (A) (A) (A) (A) (A) (A)
                 (A) (A) (A) (A) (A) (A) (A) (A) (A) (A) (A) (A)
                 (A)
       Virtual   (A) (A) (A) (A) (A) (A) (A) (A) (A) (A) (A) (A)
                 (A) (A) (A) (A) (A) (A) (A) (A) (A) (A) (A) (A)
                 (A) (A) (A) (A) (A) (A) (A) (A) (A) (A) (A) (A)
                 (A) (A) (A) (A) (A) (A) (A) (A) (A) (A) (A) (A)
                 (A) (A) (A) (A) (A) (A) (A) (A) (A) (A) (A) (A)
                 (A) (A) (A) (A) (A) (A) (A) (A) (A) (A) (A) (A)
                 (A) (A) (A) (A) (A) (A) (A) (A) (A) (A) (A) (A)
                 (A) (A) (A) (A) (A) (A) (A) (A) (A) (A) (A) (A)
                 (A) (A) (A) (A) (A) (A) (A) (A) (A) (A) (A) (A)
                 (A) (A) (A) (A) (A) (A) (A) (A) (A) (A) (A) (A)
                 (A) (A) (A) (A) (A) (A) (A) (A) (A) (A) (A) (A)
                 (A) (A) (A) (A) (A) (A) (A) (A) (A) (A) (A) (A)
                 (A) (A) (A) (A) (A) (A) (A) (A) (A) (A) (A) (A)
                 (A) (A) (A) (A) (A) (A) (A) (A) (A) (A) (A) (A)
                 (A) (A) (A) (A) (A) (A) (A) (A) (A) (A) (A) (A)
                 (A) (A) (A) (A) (A) (A) (A) (A) (A) (A) (A) (A)
                 (A) (A) (A) (A) (A) (A)
 The electronic state is 1-A.
 Alpha  occ. eigenvalues -- -483.05855 -62.64065 -56.44837 -56.44476 -56.44468
 Alpha  occ. eigenvalues --  -10.35774 -10.31867 -10.31852 -10.31805 -10.31713
 Alpha  occ. eigenvalues --  -10.31653 -10.31471 -10.31262 -10.31148 -10.30986
 Alpha  occ. eigenvalues --  -10.30921 -10.30818 -10.30770  -8.81021  -6.63576
 Alpha  occ. eigenvalues --   -6.62251  -6.62231  -2.73951  -2.73564  -2.73551
 Alpha  occ. eigenvalues --   -2.72493  -2.72493  -0.99777  -0.96062  -0.91972
 Alpha  occ. eigenvalues --   -0.88658  -0.85831  -0.84619  -0.80067  -0.79074
 Alpha  occ. eigenvalues --   -0.72997  -0.68495  -0.67880  -0.67037  -0.61660
 Alpha  occ. eigenvalues --   -0.58318  -0.57598  -0.54719  -0.54497  -0.53337
 Alpha  occ. eigenvalues --   -0.52993  -0.51035  -0.50354  -0.49326  -0.47638
 Alpha  occ. eigenvalues --   -0.46020  -0.44652  -0.44455  -0.42764  -0.42231
 Alpha  occ. eigenvalues --   -0.40587  -0.36943  -0.35362  -0.34340  -0.33018
 Alpha  occ. eigenvalues --   -0.29322
 Alpha virt. eigenvalues --    0.01819   0.04055   0.06277   0.08435   0.09554
 Alpha virt. eigenvalues --    0.14355   0.15198   0.16443   0.18065   0.18941
 Alpha virt. eigenvalues --    0.19223   0.20518   0.22050   0.24811   0.25237
 Alpha virt. eigenvalues --    0.26494   0.27979   0.29343   0.30460   0.32357
 Alpha virt. eigenvalues --    0.32960   0.34793   0.36495   0.37446   0.39470
 Alpha virt. eigenvalues --    0.40649   0.41846   0.42225   0.43248   0.44917
 Alpha virt. eigenvalues --    0.45720   0.46491   0.48048   0.50671   0.51039
 Alpha virt. eigenvalues --    0.52486   0.53564   0.55037   0.55100   0.55694
 Alpha virt. eigenvalues --    0.55929   0.56929   0.57376   0.57443   0.58174
 Alpha virt. eigenvalues --    0.59516   0.59610   0.60702   0.61646   0.61954
 Alpha virt. eigenvalues --    0.63177   0.63384   0.66240   0.67721   0.70095
 Alpha virt. eigenvalues --    0.70098   0.71119   0.71709   0.72619   0.73300
 Alpha virt. eigenvalues --    0.73671   0.73695   0.74463   0.75959   0.76000
 Alpha virt. eigenvalues --    0.76246   0.77769   0.78185   0.79443   0.79483
 Alpha virt. eigenvalues --    0.80091   0.80722   0.81375   0.82379   0.83068
 Alpha virt. eigenvalues --    0.84973   0.85762   0.86731   0.87164   0.89575
 Alpha virt. eigenvalues --    0.90572   0.91655   0.99080   1.00110   1.01337
 Alpha virt. eigenvalues --    1.03100   1.07468   1.09120   1.11938   1.16419
 Alpha virt. eigenvalues --    1.19991   1.23606   1.25324   1.26962   1.28016
 Alpha virt. eigenvalues --    1.28091   1.29745   1.30618   1.31836   1.33172
 Alpha virt. eigenvalues --    1.33985   1.35205   1.35658   1.37102   1.38541
 Alpha virt. eigenvalues --    1.39826   1.46565   1.47678   1.55264   1.56084
 Alpha virt. eigenvalues --    1.57977   1.61339   1.62737   1.70229   1.75002
 Alpha virt. eigenvalues --    1.76501   1.77635   1.78323   1.78520   1.79244
 Alpha virt. eigenvalues --    1.80666   1.80777   1.81894   1.83538   1.85549
 Alpha virt. eigenvalues --    1.85552   1.86966   1.87389   1.89256   1.90606
 Alpha virt. eigenvalues --    1.90831   1.93180   1.94049   1.95105   1.97498
 Alpha virt. eigenvalues --    1.99837   2.02159   2.02680   2.04565   2.05728
 Alpha virt. eigenvalues --    2.07432   2.07634   2.09552   2.11886   2.16741
 Alpha virt. eigenvalues --    2.17813   2.20442   2.21080   2.23606   2.23730
 Alpha virt. eigenvalues --    2.24747   2.25522   2.27432   2.31229   2.35407
 Alpha virt. eigenvalues --    2.35632   2.35918   2.38210   2.40405   2.41063
 Alpha virt. eigenvalues --    2.42856   2.44465   2.44493   2.47043   2.53193
 Alpha virt. eigenvalues --    2.54083   2.56733   2.65534   2.66618   2.67943
 Alpha virt. eigenvalues --    2.68229   2.71388   2.72073   2.73521   2.77354
 Alpha virt. eigenvalues --    2.77945   2.80514   2.82022   2.86020   2.93178
 Alpha virt. eigenvalues --    2.94783   2.96674   2.97845   3.02226   3.05091
 Alpha virt. eigenvalues --    3.07071   3.11651   3.14457   3.22102   3.26180
 Alpha virt. eigenvalues --    3.40886   3.52737   3.56320   3.57439   3.60657
 Alpha virt. eigenvalues --    3.72825   3.73748   3.92941
          Condensed to atoms (all electrons):
               1          2          3          4          5          6
     1  Br  34.939018   0.221046  -0.058631   0.003009   0.000925   0.003129
     2  C    0.221046   5.269267   0.329389   0.061741  -0.144863   0.078920
     3  C   -0.058631   0.329389   4.958061   0.376388   0.071522  -0.118134
     4  C    0.003009   0.061741   0.376388   5.036004   0.358938  -0.019686
     5  C    0.000925  -0.144863   0.071522   0.358938   5.278328   0.358809
     6  C    0.003129   0.078920  -0.118134  -0.019686   0.358809   5.257458
     7  C   -0.060303   0.336713   0.043889  -0.088317   0.025215   0.386240
     8  C   -0.000119   0.012520  -0.001246   0.020147  -0.107171   0.314478
     9  C    0.000001  -0.001635   0.000372   0.010813  -0.032824  -0.082054
    10  C   -0.000000   0.000004   0.000003  -0.000437   0.017930   0.010507
    11  C    0.000000  -0.000000   0.000001   0.000075   0.001305  -0.001291
    12  C    0.000000   0.000001  -0.000011  -0.000187   0.013619  -0.000073
    13  C   -0.000000   0.000068  -0.000174  -0.008777  -0.090078   0.011389
    14  C    0.000017   0.002528   0.011419  -0.086276   0.224762  -0.028887
    15  H   -0.000565  -0.062817   0.434906  -0.048681   0.012853  -0.001086
    16  H   -0.000151   0.013712  -0.066911   0.443767  -0.052319   0.015395
    17  H    0.000106  -0.063440   0.011800  -0.001511   0.014494  -0.047757
    18  H    0.000001  -0.000207   0.000066  -0.000451   0.001789   0.003586
    19  H    0.000001  -0.000207   0.000066  -0.000451   0.001789   0.003586
    20  H    0.000000  -0.000000  -0.000000   0.000001  -0.000751   0.000811
    21  H   -0.000000   0.000000   0.000000  -0.000001   0.000007   0.000018
    22  H    0.000000   0.000000  -0.000000   0.000003  -0.000369   0.000008
    23  H   -0.000000  -0.000014   0.000172   0.004097  -0.022313  -0.000417
               7          8          9         10         11         12
     1  Br  -0.060303  -0.000119   0.000001  -0.000000   0.000000   0.000000
     2  C    0.336713   0.012520  -0.001635   0.000004  -0.000000   0.000001
     3  C    0.043889  -0.001246   0.000372   0.000003   0.000001  -0.000011
     4  C   -0.088317   0.020147   0.010813  -0.000437   0.000075  -0.000187
     5  C    0.025215  -0.107171  -0.032824   0.017930   0.001305   0.013619
     6  C    0.386240   0.314478  -0.082054   0.010507  -0.001291  -0.000073
     7  C    4.989037  -0.085737   0.012849  -0.000364   0.000004   0.000001
     8  C   -0.085737   4.838452   0.302497  -0.078318   0.010598  -0.000110
     9  C    0.012849   0.302497   5.306827   0.360704   0.062250  -0.127556
    10  C   -0.000364  -0.078318   0.360704   5.021651   0.349719   0.056148
    11  C    0.000004   0.010598   0.062250   0.349719   4.998387   0.339957
    12  C    0.000001  -0.000110  -0.127556   0.056148   0.339957   4.989673
    13  C   -0.000446   0.018954  -0.018166  -0.100942   0.046661   0.356345
    14  C    0.014604  -0.104474   0.369689   0.021272  -0.119919   0.061449
    15  H    0.011633   0.000017   0.000010  -0.000000   0.000000  -0.000000
    16  H   -0.001993  -0.000538  -0.000273   0.000031  -0.000014   0.000156
    17  H    0.436474  -0.015702   0.000893   0.000014  -0.000000  -0.000000
    18  H   -0.002743   0.333628   0.003362  -0.002581  -0.000234   0.000069
    19  H   -0.002743   0.333627   0.003363  -0.002581  -0.000234   0.000069
    20  H    0.000010  -0.015337  -0.062578   0.446615  -0.064401   0.012290
    21  H   -0.000000  -0.000301   0.013638  -0.062364   0.442414  -0.063830
    22  H   -0.000000   0.000022  -0.001125   0.012106  -0.063627   0.440678
    23  H    0.000031  -0.000509   0.015728  -0.001850   0.012203  -0.065367
              13         14         15         16         17         18
     1  Br  -0.000000   0.000017  -0.000565  -0.000151   0.000106   0.000001
     2  C    0.000068   0.002528  -0.062817   0.013712  -0.063440  -0.000207
     3  C   -0.000174   0.011419   0.434906  -0.066911   0.011800   0.000066
     4  C   -0.008777  -0.086276  -0.048681   0.443767  -0.001511  -0.000451
     5  C   -0.090078   0.224762   0.012853  -0.052319   0.014494   0.001789
     6  C    0.011389  -0.028887  -0.001086   0.015395  -0.047757   0.003586
     7  C   -0.000446   0.014604   0.011633  -0.001993   0.436474  -0.002743
     8  C    0.018954  -0.104474   0.000017  -0.000538  -0.015702   0.333628
     9  C   -0.018166   0.369689   0.000010  -0.000273   0.000893   0.003362
    10  C   -0.100942   0.021272  -0.000000   0.000031   0.000014  -0.002581
    11  C    0.046661  -0.119919   0.000000  -0.000014  -0.000000  -0.000234
    12  C    0.356345   0.061449  -0.000000   0.000156  -0.000000   0.000069
    13  C    5.070947   0.380840   0.000006   0.003746   0.000001  -0.000442
    14  C    0.380840   5.233215  -0.000360  -0.021739  -0.000768   0.002016
    15  H    0.000006  -0.000360   0.639969  -0.010903  -0.000193  -0.000000
    16  H    0.003746  -0.021739  -0.010903   0.665066   0.000022   0.000011
    17  H    0.000001  -0.000768  -0.000193   0.000022   0.651237   0.001751
    18  H   -0.000442   0.002016  -0.000000   0.000011   0.001751   0.609934
    19  H   -0.000442   0.002016  -0.000000   0.000011   0.001751  -0.014475
    20  H   -0.001528   0.014805   0.000000   0.000000   0.000000   0.001829
    21  H    0.012540  -0.001380  -0.000000  -0.000000  -0.000000   0.000005
    22  H   -0.060047   0.013267  -0.000000   0.000005   0.000000  -0.000000
    23  H    0.438936  -0.049977   0.000005   0.000608   0.000000   0.000011
              19         20         21         22         23
     1  Br   0.000001   0.000000  -0.000000   0.000000  -0.000000
     2  C   -0.000207  -0.000000   0.000000   0.000000  -0.000014
     3  C    0.000066  -0.000000   0.000000  -0.000000   0.000172
     4  C   -0.000451   0.000001  -0.000001   0.000003   0.004097
     5  C    0.001789  -0.000751   0.000007  -0.000369  -0.022313
     6  C    0.003586   0.000811   0.000018   0.000008  -0.000417
     7  C   -0.002743   0.000010  -0.000000  -0.000000   0.000031
     8  C    0.333627  -0.015337  -0.000301   0.000022  -0.000509
     9  C    0.003363  -0.062578   0.013638  -0.001125   0.015728
    10  C   -0.002581   0.446615  -0.062364   0.012106  -0.001850
    11  C   -0.000234  -0.064401   0.442414  -0.063627   0.012203
    12  C    0.000069   0.012290  -0.063830   0.440678  -0.065367
    13  C   -0.000442  -0.001528   0.012540  -0.060047   0.438936
    14  C    0.002016   0.014805  -0.001380   0.013267  -0.049977
    15  H   -0.000000   0.000000  -0.000000  -0.000000   0.000005
    16  H    0.000011   0.000000  -0.000000   0.000005   0.000608
    17  H    0.001751   0.000000  -0.000000   0.000000   0.000000
    18  H   -0.014475   0.001829   0.000005  -0.000000   0.000011
    19  H    0.609935   0.001829   0.000005  -0.000000   0.000011
    20  H    0.001829   0.672426  -0.010764  -0.000199   0.000025
    21  H    0.000005  -0.010764   0.659331  -0.011137  -0.000201
    22  H   -0.000000  -0.000199  -0.011137   0.660118  -0.010681
    23  H    0.000011   0.000025  -0.000201  -0.010681   0.673827
 Mulliken charges:
               1
     1  Br  -0.047484
     2  C   -0.052726
     3  C    0.007052
     4  C   -0.060207
     5  C    0.068400
     6  C   -0.144948
     7  C   -0.014056
     8  C    0.224621
     9  C   -0.136785
    10  C   -0.047266
    11  C   -0.013853
    12  C   -0.013321
    13  C   -0.059393
    14  C    0.061882
    15  H    0.025206
    16  H    0.012313
    17  H    0.010828
    18  H    0.063076
    19  H    0.063075
    20  H    0.004916
    21  H    0.022020
    22  H    0.020977
    23  H    0.005675
 Sum of Mulliken charges =  -0.00000
 Mulliken charges with hydrogens summed into heavy atoms:
               1
     1  Br  -0.047484
     2  C   -0.052726
     3  C    0.032257
     4  C   -0.047895
     5  C    0.068400
     6  C   -0.144948
     7  C   -0.003228
     8  C    0.350771
     9  C   -0.136785
    10  C   -0.042350
    11  C    0.008167
    12  C    0.007655
    13  C   -0.053718
    14  C    0.061882
 Electronic spatial extent (au):  <R**2>=           4889.7379
 Charge=             -0.0000 electrons
 Dipole moment (field-independent basis, Debye):
    X=              1.9203    Y=             -0.3553    Z=              0.0000  Tot=              1.9529
 Quadrupole moment (field-independent basis, Debye-Ang):
   XX=            -90.6591   YY=            -81.8355   ZZ=            -97.9510
   XY=             -1.0685   XZ=             -0.0000   YZ=             -0.0000
 Traceless Quadrupole moment (field-independent basis, Debye-Ang):
   XX=             -0.5106   YY=              8.3130   ZZ=             -7.8025
   XY=             -1.0685   XZ=             -0.0000   YZ=             -0.0000
 Octapole moment (field-independent basis, Debye-Ang**2):
  XXX=            -78.1220  YYY=             -1.2107  ZZZ=              0.0001  XYY=            -30.0844
  XXY=             -1.2998  XXZ=              0.0001  XZZ=            -51.7687  YZZ=             -5.1498
  YYZ=              0.0000  XYZ=             -0.0000
 Hexadecapole moment (field-independent basis, Debye-Ang**3):
 XXXX=          -4653.9142 YYYY=           -696.7276 ZZZZ=           -114.4612 XXXY=             21.3284
 XXXZ=             -0.0003 YYYX=              9.0545 YYYZ=             -0.0000 ZZZX=             -0.0001
 ZZZY=             -0.0001 XXYY=           -894.1405 XXZZ=           -919.2739 YYZZ=           -152.5293
 XXYZ=             -0.0001 YYXZ=             -0.0001 ZZXY=              1.1308
 N-N= 1.038625916783D+03 E-N=-9.386930564751D+03  KE= 3.065812462452D+03
 There are a total of      526626 grid points.
 ElSum from          density=      122.0000334429
 ElSum from atomic densities=      122.0001602280
 Hirshfeld populations at iteration   1 (CA, CB, DipXYZ):
               1          2          3          4          5
     1  Br  17.523610  17.523610   0.033683   0.006942   0.000000
     2  C    2.997445   2.997445  -0.068396  -0.008840  -0.000000
     3  C    3.023583   3.023583  -0.012469   0.051160   0.000000
     4  C    3.017560   3.017560   0.026657   0.056253  -0.000000
     5  C    3.004836   3.004836   0.043443   0.028069  -0.000000
     6  C    2.997342   2.997342   0.031797  -0.063658   0.000000
     7  C    3.024440   3.024440   0.002608  -0.059248  -0.000000
     8  C    3.022010   3.022010  -0.000870  -0.009939   0.000000
     9  C    2.999643   2.999643  -0.040345  -0.059097  -0.000000
    10  C    3.021666   3.021666   0.014798  -0.060677  -0.000000
    11  C    3.020396   3.020396   0.053780  -0.013699   0.000001
    12  C    3.020692   3.020692   0.041479   0.038400  -0.000001
    13  C    3.020357   3.020357  -0.019208   0.056678   0.000001
    14  C    3.005770   3.005770  -0.039902   0.032453   0.000000
    15  H    0.477524   0.477524  -0.082940   0.137992   0.000000
    16  H    0.476908   0.476908   0.051516   0.148201   0.000000
    17  H    0.477235   0.477235  -0.042636  -0.152945   0.000000
    18  H    0.476517   0.476517  -0.006233  -0.096691   0.120275
    19  H    0.476518   0.476518  -0.006232  -0.096691  -0.120274
    20  H    0.478835   0.478835   0.042652  -0.150376   0.000000
    21  H    0.479207   0.479207   0.153245  -0.040393   0.000000
    22  H    0.479088   0.479088   0.113023   0.111133  -0.000000
    23  H    0.478836   0.478836  -0.033187   0.151319  -0.000000
       Tot  61.000017  61.000017   0.256263   0.006347   0.000001

 Dip from Atomic Chgs              0.499024  -0.146149   0.000001
         Total Dipole              0.755287  -0.139802   0.000002

 Hirshfeld charges, spin densities, dipoles, and CM5 charges using IRadAn=      5:
              Q-H        S-H        Dx         Dy         Dz        Q-CM5   
     1  Br  -0.047221   0.000000   0.033683   0.006942   0.000000  -0.032226
     2  C    0.005110   0.000000  -0.068396  -0.008840  -0.000000  -0.016014
     3  C   -0.047165   0.000000  -0.012469   0.051160   0.000000  -0.099755
     4  C   -0.035120   0.000000   0.026657   0.056253  -0.000000  -0.086446
     5  C   -0.009673   0.000000   0.043443   0.028069  -0.000000  -0.014427
     6  C    0.005317   0.000000   0.031797  -0.063658   0.000000  -0.004822
     7  C   -0.048880   0.000000   0.002608  -0.059248  -0.000000  -0.098892
     8  C   -0.044020   0.000000  -0.000870  -0.009939   0.000000  -0.137689
     9  C    0.000714   0.000000  -0.040345  -0.059097  -0.000000  -0.009530
    10  C   -0.043332   0.000000   0.014798  -0.060677  -0.000000  -0.095245
    11  C   -0.040792   0.000000   0.053780  -0.013699   0.000001  -0.095248
    12  C   -0.041384   0.000000   0.041479   0.038400  -0.000001  -0.095832
    13  C   -0.040714   0.000000  -0.019208   0.056678   0.000001  -0.092154
    14  C   -0.011540   0.000000  -0.039902   0.032453   0.000000  -0.016328
    15  H    0.044952   0.000000  -0.082940   0.137992   0.000000   0.100759
    16  H    0.046184   0.000000   0.051516   0.148201   0.000000   0.101649
    17  H    0.045530   0.000000  -0.042636  -0.152945   0.000000   0.101655
    18  H    0.046965   0.000000  -0.006233  -0.096691   0.120275   0.101303
    19  H    0.046965   0.000000  -0.006232  -0.096691  -0.120274   0.101303
    20  H    0.042330   0.000000   0.042652  -0.150376   0.000000   0.097380
    21  H    0.041587   0.000000   0.153245  -0.040393   0.000000   0.096284
    22  H    0.041825   0.000000   0.113023   0.111133  -0.000000   0.096538
    23  H    0.042329   0.000000  -0.033187   0.151319  -0.000000   0.097704
       Tot  -0.000033   0.000000   0.256263   0.006347   0.000001  -0.000033
 Hirshfeld charges with hydrogens summed into heavy atoms:
              Q-H       Q-CM5   
     1  Br  -0.047221  -0.032226
     2  C    0.005110  -0.016014
     3  C   -0.002214   0.001004
     4  C    0.011064   0.015203
     5  C   -0.009673  -0.014427
     6  C    0.005317  -0.004822
     7  C   -0.003349   0.002764
     8  C    0.049910   0.064916
     9  C    0.000714  -0.009530
    10  C   -0.001002   0.002135
    11  C    0.000794   0.001036
    12  C    0.000441   0.000706
    13  C    0.001615   0.005550
    14  C   -0.011540  -0.016328
 
 EQQ= 0.000000000000E+00 EQD= 0.000000000000E+00 EDD= 0.995382625484E-02
 EQQ+QD+DD= 0.995382625484E-02
 
 Running external command "gaunbo6 R"
         input file       "/home/rpaton/opt/dzvp/popn/Gau-983559.EIn"
         output file      "/home/rpaton/opt/dzvp/popn/Gau-983559.EOu"
         message file     "/home/rpaton/opt/dzvp/popn/Gau-983559.EMs"
         fchk file        "/home/rpaton/opt/dzvp/popn/Gau-983559.EFC"
         mat. el file     "/home/rpaton/opt/dzvp/popn/Gau-983559.EUF"

 Writing WrtUnf unformatted file "/home/rpaton/opt/dzvp/popn/Gau-983559.EUF"
 Gaussian matrix elements                                         Version   2 NLab=11 Len12L=8 Len4L=8
 Write SHELL TO ATOM MAP                   from file      0 offset           0 length                 117 to matrix element file.
 Write SHELL TYPES                         from file      0 offset           0 length                 117 to matrix element file.
 Write NUMBER OF PRIMITIVES PER SHELL      from file      0 offset           0 length                 117 to matrix element file.
 Write PRIMITIVE EXPONENTS                 from file      0 offset           0 length                 231 to matrix element file.
 Write CONTRACTION COEFFICIENTS            from file      0 offset           0 length                 231 to matrix element file.
 Write P(S=P) CONTRACTION COEFFICIENTS     from file      0 offset           0 length                 231 to matrix element file.
 Write COORDINATES OF EACH SHELL           from file      0 offset           0 length                 351 to matrix element file.
 Write BONDS PER ATOM                      from file      0 offset           0 length                  23 to matrix element file.
 Write BONDED ATOMS                        from file      0 offset           0 length                  50 to matrix element file.
 Write BOND TYPES                          from file      0 offset           0 length                  50 to matrix element file.
 Write ONIOM CHARGE/MULT                   from file      0 offset           0 length                  32 to matrix element file.
 Write ONIOM ATOM LAYERS                   from file      0 offset           0 length                  23 to matrix element file.
 Write ONIOM ATOM MODIFIERS                from file      0 offset           0 length                  23 to matrix element file.
 Write ONIOM ATOM TYPES                    from file      0 offset           0 length                  23 to matrix element file.
 Write ONIOM LINK ATOMS                    from file      0 offset           0 length                  23 to matrix element file.
 Write ONIOM LINK CHARGES                  from file      0 offset           0 length                  23 to matrix element file.
 Write ONIOM LINK DISTANCES                from file      0 offset           0 length                  92 to matrix element file.
 Write SYMINF INTS                         from file      0 offset           0 length                  26 to matrix element file.
 Write ROTTR TO SO                         from file      0 offset           0 length                  12 to matrix element file.
 Write GAUSSIAN SCALARS                    from file    501 offset           0 to matrix element file.
 Write OPTIMIZATION FLAGS                  from file      0 offset           0 length                  23 to matrix element file.
 Write INTEGER ISO                         from file      0 offset           0 length                  23 to matrix element file.
 Write INTEGER SPIN                        from file      0 offset           0 length                  23 to matrix element file.
 Write REAL ZEFFECTIVE                     from file      0 offset           0 length                  23 to matrix element file.
 Write REAL QUADRUPOLEMOMENT               from file      0 offset           0 length                  23 to matrix element file.
 Write REAL GFACTOR                        from file      0 offset           0 length                  23 to matrix element file.
 Write REAL ZNUCLEAR                       from file      0 offset           0 length                  23 to matrix element file.
 Write MULLIKEN CHARGES                    from file      0 offset           0 length                  23 to matrix element file.
 Write TYPE 6 CHARGES                      from file      0 offset           0 length                  23 to matrix element file.
 Write TYPE 7 CHARGES                      from file      0 offset           0 length                  23 to matrix element file.
 Write NUCLEAR GRADIENT                    from file  10584 offset           0 length                  69 to matrix element file.
 Array NUCLEAR FORCE CONSTANTS              on  file  10585 does not exist.
 Write ELECTRIC DIPOLE MOMENT              from file      0 offset           0 length                   3 to matrix element file.
 Write NON-ADIABATIC COUPLING              from file  10810 offset           0 length                  69 to matrix element file.
 Write FINITE EM FIELD                     from file  10521 offset           0 length                  35 to matrix element file.
 Write OVERLAP                             from file  10514 offset           0 length               33670 to matrix element file.
 Write CORE HAMILTONIAN ALPHA              from file  10515 offset           0 length               33670 to matrix element file.
 Write CORE HAMILTONIAN BETA               from file  10515 offset       33670 length               33670 to matrix element file.
 Write KINETIC ENERGY                      from file  10516 offset           0 length               33670 to matrix element file.
 Write ORTHOGONAL BASIS                    from file  10685 offset           0 length               67081 to matrix element file.
 Write DIPOLE INTEGRALS                    from file  10518 offset           0 length              101010 to matrix element file.
 Array DIP VEL INTEGRALS                    on  file  10572 does not exist.
 Array R X DEL INTEGRALS                    on  file  10572 does not exist.
 Write ALPHA ORBITAL ENERGIES              from file      0 offset           0 length                 259 to matrix element file.
 Write ALPHA MO COEFFICIENTS               from file  10524 offset           0 length               67081 to matrix element file.
 Write ALPHA DENSITY MATRIX                from file      0 offset           0 length               33670 to matrix element file.
 Write ALPHA FOCK MATRIX                   from file  10536 offset           0 length               33670 to matrix element file.
 Write ENERGY-WEIGHTED DENSITY             from file  10571 offset           0 length               33670 to matrix element file.
 Write ALPHA SCF DENSITY MATRIX            from file      0 offset           0 length               33670 to matrix element file.
 Write INTEGER PARAMETERS                  from file      0 offset           0 length                   2 to matrix element file.
 No 2e integrals to process.
 Perform NBO analysis...

 *********************************** NBO 7.0 ***********************************
             N A T U R A L   A T O M I C   O R B I T A L   A N D
          N A T U R A L   B O N D   O R B I T A L   A N A L Y S I S
 **************************** Robert Paton (I101709) ***************************
  (c) Copyright 1996-2019 Board of Regents of the University of Wisconsin System
      on behalf of the Theoretical Chemistry Institute.  All rights reserved.

          Cite this program [NBO 7.0.5 (4-Jun-2019)] as:

          NBO 7.0.  E. D. Glendening, J. K. Badenhoop, A. E. Reed,
          J. E. Carpenter, J. A. Bohmann, C. M. Morales, P. Karafiloglou,
          C. R. Landis, and F. Weinhold, Theoretical Chemistry Institute,
          University of Wisconsin, Madison, WI (2018)

       /AONBO  / : Checkpoint the AO to NBO transformation
                   NBOs sorted by occupancy
       /BNDIDX / : Print bond indices based on the NAO density matrix

 Filename set to /home/rpaton/opt/dzvp/popn/Gau-983559

 Job title:  arbr34_wb97xd_popncreated by GaussianPrep


 NATURAL POPULATIONS:  Natural atomic orbital occupancies

  NAO Atom No lang   Type(AO)    Occupancy      Energy
 -------------------------------------------------------
   1   Br  1  s      Cor( 1s)     2.00000    -399.95406
   2   Br  1  s      Cor( 2s)     2.00000    -130.05799
   3   Br  1  s      Cor( 3s)     2.00000     -24.49717
   4   Br  1  s      Val( 4s)     1.84836      -0.75594
   5   Br  1  s      Ryd( 5s)     0.00299       0.57251
   6   Br  1  px     Cor( 2p)     2.00000     -38.05646
   7   Br  1  px     Cor( 3p)     2.00000     -25.02733
   8   Br  1  px     Val( 4p)     1.17693      -0.24689
   9   Br  1  px     Ryd( 5p)     0.00295       0.74313
  10   Br  1  py     Cor( 2p)     2.00000     -38.04793
  11   Br  1  py     Cor( 3p)     2.00000     -25.01933
  12   Br  1  py     Val( 4p)     1.96148      -0.36340
  13   Br  1  py     Ryd( 5p)     0.00116       0.76180
  14   Br  1  pz     Cor( 2p)     2.00000     -38.04794
  15   Br  1  pz     Cor( 3p)     2.00000     -25.01931
  16   Br  1  pz     Val( 4p)     1.94113      -0.36118
  17   Br  1  pz     Ryd( 5p)     0.00116       0.73343
  18   Br  1  dxy    Cor( 3d)     2.00000      -2.73554
  19   Br  1  dxy    Ryd( 4d)     0.00131       0.94383
  20   Br  1  dxy    Ryd( 5d)     0.00001       3.71781
  21   Br  1  dxz    Cor( 3d)     2.00000      -2.73546
  22   Br  1  dxz    Ryd( 4d)     0.00257       0.74198
  23   Br  1  dxz    Ryd( 5d)     0.00001       3.57569
  24   Br  1  dyz    Cor( 3d)     2.00000      -2.72513
  25   Br  1  dyz    Ryd( 4d)     0.00009       0.65632
  26   Br  1  dyz    Ryd( 5d)     0.00000       3.49550
  27   Br  1  dx2y2  Cor( 3d)     1.99999      -2.73573
  28   Br  1  dx2y2  Ryd( 4d)     0.00531       0.99092
  29   Br  1  dx2y2  Ryd( 5d)     0.00000       3.80433
  30   Br  1  dz2    Cor( 3d)     2.00000      -2.72865
  31   Br  1  dz2    Ryd( 4d)     0.00188       0.78071
  32   Br  1  dz2    Ryd( 5d)     0.00000       3.62108

  33    C  2  s      Cor( 1s)     1.99997     -10.35708
  34    C  2  s      Val( 2s)     0.92650      -0.13508
  35    C  2  s      Ryd( 3s)     0.00093       0.63631
  36    C  2  px     Val( 2p)     0.97649      -0.11893
  37    C  2  px     Ryd( 3p)     0.00742       1.05394
  38    C  2  py     Val( 2p)     1.10524      -0.05812
  39    C  2  py     Ryd( 3p)     0.00685       0.83156
  40    C  2  pz     Val( 2p)     1.08039      -0.15289
  41    C  2  pz     Ryd( 3p)     0.00142       0.66634
  42    C  2  dxy    Ryd( 3d)     0.00122       2.45191
  43    C  2  dxz    Ryd( 3d)     0.00094       1.87354
  44    C  2  dyz    Ryd( 3d)     0.00081       2.00096
  45    C  2  dx2y2  Ryd( 3d)     0.00191       2.33149
  46    C  2  dz2    Ryd( 3d)     0.00088       2.20560

  47    C  3  s      Cor( 1s)     1.99995     -10.31601
  48    C  3  s      Val( 2s)     0.94022      -0.07746
  49    C  3  s      Ryd( 3s)     0.00126       0.65136
  50    C  3  px     Val( 2p)     1.12257      -0.04252
  51    C  3  px     Ryd( 3p)     0.00603       0.88944
  52    C  3  py     Val( 2p)     1.15203      -0.06305
  53    C  3  py     Ryd( 3p)     0.00553       0.95080
  54    C  3  pz     Val( 2p)     1.00282      -0.11597
  55    C  3  pz     Ryd( 3p)     0.00103       0.63924
  56    C  3  dxy    Ryd( 3d)     0.00084       2.54989
  57    C  3  dxz    Ryd( 3d)     0.00059       1.98422
  58    C  3  dyz    Ryd( 3d)     0.00050       1.98075
  59    C  3  dx2y2  Ryd( 3d)     0.00089       2.49367
  60    C  3  dz2    Ryd( 3d)     0.00065       2.27946

  61    C  4  s      Cor( 1s)     1.99994     -10.31551
  62    C  4  s      Val( 2s)     0.92891      -0.06408
  63    C  4  s      Ryd( 3s)     0.00093       0.65437
  64    C  4  px     Val( 2p)     1.08139      -0.02408
  65    C  4  px     Ryd( 3p)     0.00375       0.82665
  66    C  4  py     Val( 2p)     1.17782      -0.06036
  67    C  4  py     Ryd( 3p)     0.00598       1.05886
  68    C  4  pz     Val( 2p)     0.99214      -0.11232
  69    C  4  pz     Ryd( 3p)     0.00090       0.64253
  70    C  4  dxy    Ryd( 3d)     0.00089       2.55445
  71    C  4  dxz    Ryd( 3d)     0.00063       2.01598
  72    C  4  dyz    Ryd( 3d)     0.00043       1.99679
  73    C  4  dx2y2  Ryd( 3d)     0.00081       2.58446
  74    C  4  dz2    Ryd( 3d)     0.00058       2.29575

  75    C  5  s      Cor( 1s)     1.99996     -10.31364
  76    C  5  s      Val( 2s)     0.84266      -0.01136
  77    C  5  s      Ryd( 3s)     0.00198       0.68592
  78    C  5  px     Val( 2p)     1.08082      -0.02950
  79    C  5  px     Ryd( 3p)     0.00444       1.20105
  80    C  5  py     Val( 2p)     1.10450      -0.03713
  81    C  5  py     Ryd( 3p)     0.00524       1.14928
  82    C  5  pz     Val( 2p)     1.00748      -0.10600
  83    C  5  pz     Ryd( 3p)     0.00125       0.72329
  84    C  5  dxy    Ryd( 3d)     0.00089       2.56124
  85    C  5  dxz    Ryd( 3d)     0.00072       1.99000
  86    C  5  dyz    Ryd( 3d)     0.00065       2.00963
  87    C  5  dx2y2  Ryd( 3d)     0.00094       2.55870
  88    C  5  dz2    Ryd( 3d)     0.00058       2.29513

  89    C  6  s      Cor( 1s)     1.99996     -10.31755
  90    C  6  s      Val( 2s)     0.84953      -0.03067
  91    C  6  s      Ryd( 3s)     0.00196       0.68531
  92    C  6  px     Val( 2p)     1.08505      -0.02995
  93    C  6  px     Ryd( 3p)     0.00477       1.20036
  94    C  6  py     Val( 2p)     1.06264      -0.03471
  95    C  6  py     Ryd( 3p)     0.00474       1.05745
  96    C  6  pz     Val( 2p)     0.98341      -0.10722
  97    C  6  pz     Ryd( 3p)     0.00191       0.71480
  98    C  6  dxy    Ryd( 3d)     0.00090       2.53230
  99    C  6  dxz    Ryd( 3d)     0.00069       2.03159
 100    C  6  dyz    Ryd( 3d)     0.00065       2.00056
 101    C  6  dx2y2  Ryd( 3d)     0.00099       2.54677
 102    C  6  dz2    Ryd( 3d)     0.00057       2.28402

 103    C  7  s      Cor( 1s)     1.99995     -10.31707
 104    C  7  s      Val( 2s)     0.92750      -0.06374
 105    C  7  s      Ryd( 3s)     0.00138       0.64639
 106    C  7  px     Val( 2p)     1.09436      -0.03102
 107    C  7  px     Ryd( 3p)     0.00493       0.77940
 108    C  7  py     Val( 2p)     1.19072      -0.07935
 109    C  7  py     Ryd( 3p)     0.00686       1.06014
 110    C  7  pz     Val( 2p)     0.99939      -0.11569
 111    C  7  pz     Ryd( 3p)     0.00089       0.64025
 112    C  7  dxy    Ryd( 3d)     0.00091       2.53626
 113    C  7  dxz    Ryd( 3d)     0.00058       2.00483
 114    C  7  dyz    Ryd( 3d)     0.00049       1.97496
 115    C  7  dx2y2  Ryd( 3d)     0.00081       2.51939
 116    C  7  dz2    Ryd( 3d)     0.00066       2.27916

 117    C  8  s      Cor( 1s)     1.99993     -10.31693
 118    C  8  s      Val( 2s)     1.00618      -0.14368
 119    C  8  s      Ryd( 3s)     0.00090       1.10063
 120    C  8  px     Val( 2p)     1.04047      -0.06620
 121    C  8  px     Ryd( 3p)     0.00341       0.65756
 122    C  8  py     Val( 2p)     1.16138      -0.08458
 123    C  8  py     Ryd( 3p)     0.00312       0.60478
 124    C  8  pz     Val( 2p)     1.24014      -0.11199
 125    C  8  pz     Ryd( 3p)     0.00170       0.82679
 126    C  8  dxy    Ryd( 3d)     0.00090       2.40820
 127    C  8  dxz    Ryd( 3d)     0.00048       2.07580
 128    C  8  dyz    Ryd( 3d)     0.00087       2.54833
 129    C  8  dx2y2  Ryd( 3d)     0.00042       2.27579
 130    C  8  dz2    Ryd( 3d)     0.00070       2.37542

 131    C  9  s      Cor( 1s)     1.99996     -10.31157
 132    C  9  s      Val( 2s)     0.85119      -0.02702
 133    C  9  s      Ryd( 3s)     0.00207       0.68012
 134    C  9  px     Val( 2p)     1.08821      -0.02922
 135    C  9  px     Ryd( 3p)     0.00491       1.22372
 136    C  9  py     Val( 2p)     1.06290      -0.02763
 137    C  9  py     Ryd( 3p)     0.00443       1.03709
 138    C  9  pz     Val( 2p)     0.99088      -0.10321
 139    C  9  pz     Ryd( 3p)     0.00193       0.71910
 140    C  9  dxy    Ryd( 3d)     0.00089       2.50227
 141    C  9  dxz    Ryd( 3d)     0.00064       2.02888
 142    C  9  dyz    Ryd( 3d)     0.00064       2.00460
 143    C  9  dx2y2  Ryd( 3d)     0.00101       2.56920
 144    C  9  dz2    Ryd( 3d)     0.00057       2.28473

 145    C 10  s      Cor( 1s)     1.99995     -10.30812
 146    C 10  s      Val( 2s)     0.93331      -0.06073
 147    C 10  s      Ryd( 3s)     0.00107       0.65803
 148    C 10  px     Val( 2p)     1.07976      -0.01400
 149    C 10  px     Ryd( 3p)     0.00362       0.75989
 150    C 10  py     Val( 2p)     1.19046      -0.06430
 151    C 10  py     Ryd( 3p)     0.00663       1.10236
 152    C 10  pz     Val( 2p)     0.99974      -0.10790
 153    C 10  pz     Ryd( 3p)     0.00076       0.64671
 154    C 10  dxy    Ryd( 3d)     0.00082       2.54664
 155    C 10  dxz    Ryd( 3d)     0.00061       2.02577
 156    C 10  dyz    Ryd( 3d)     0.00043       1.98749
 157    C 10  dx2y2  Ryd( 3d)     0.00091       2.56260
 158    C 10  dz2    Ryd( 3d)     0.00059       2.29430

 159    C 11  s      Cor( 1s)     1.99995     -10.30709
 160    C 11  s      Val( 2s)     0.94716      -0.07542
 161    C 11  s      Ryd( 3s)     0.00096       0.65876
 162    C 11  px     Val( 2p)     1.18248      -0.05790
 163    C 11  px     Ryd( 3p)     0.00612       1.09059
 164    C 11  py     Val( 2p)     1.07551      -0.01481
 165    C 11  py     Ryd( 3p)     0.00395       0.77325
 166    C 11  pz     Val( 2p)     1.00103      -0.10804
 167    C 11  pz     Ryd( 3p)     0.00099       0.64526
 168    C 11  dxy    Ryd( 3d)     0.00086       2.52930
 169    C 11  dxz    Ryd( 3d)     0.00041       1.98237
 170    C 11  dyz    Ryd( 3d)     0.00063       2.01903
 171    C 11  dx2y2  Ryd( 3d)     0.00089       2.57085
 172    C 11  dz2    Ryd( 3d)     0.00057       2.29513

 173    C 12  s      Cor( 1s)     1.99995     -10.30677
 174    C 12  s      Val( 2s)     0.94658      -0.07457
 175    C 12  s      Ryd( 3s)     0.00097       0.65993
 176    C 12  px     Val( 2p)     1.12807      -0.03489
 177    C 12  px     Ryd( 3p)     0.00498       0.93410
 178    C 12  py     Val( 2p)     1.13154      -0.03786
 179    C 12  py     Ryd( 3p)     0.00512       0.93108
 180    C 12  pz     Val( 2p)     1.00264      -0.10790
 181    C 12  pz     Ryd( 3p)     0.00087       0.64535
 182    C 12  dxy    Ryd( 3d)     0.00090       2.59231
 183    C 12  dxz    Ryd( 3d)     0.00054       1.99988
 184    C 12  dyz    Ryd( 3d)     0.00051       2.00055
 185    C 12  dx2y2  Ryd( 3d)     0.00085       2.50923
 186    C 12  dz2    Ryd( 3d)     0.00058       2.29645

 187    C 13  s      Cor( 1s)     1.99994     -10.30878
 188    C 13  s      Val( 2s)     0.93103      -0.05979
 189    C 13  s      Ryd( 3s)     0.00112       0.64948
 190    C 13  px     Val( 2p)     1.07946      -0.01657
 191    C 13  px     Ryd( 3p)     0.00364       0.80127
 192    C 13  py     Val( 2p)     1.18448      -0.05836
 193    C 13  py     Ryd( 3p)     0.00596       1.08335
 194    C 13  pz     Val( 2p)     0.99704      -0.10736
 195    C 13  pz     Ryd( 3p)     0.00097       0.64618
 196    C 13  dxy    Ryd( 3d)     0.00090       2.54076
 197    C 13  dxz    Ryd( 3d)     0.00060       2.01699
 198    C 13  dyz    Ryd( 3d)     0.00041       1.99776
 199    C 13  dx2y2  Ryd( 3d)     0.00082       2.59183
 200    C 13  dz2    Ryd( 3d)     0.00058       2.29556

 201    C 14  s      Cor( 1s)     1.99996     -10.31038
 202    C 14  s      Val( 2s)     0.84235      -0.00829
 203    C 14  s      Ryd( 3s)     0.00195       0.68518
 204    C 14  px     Val( 2p)     1.07999      -0.02571
 205    C 14  px     Ryd( 3p)     0.00440       1.20524
 206    C 14  py     Val( 2p)     1.10421      -0.03515
 207    C 14  py     Ryd( 3p)     0.00545       1.14441
 208    C 14  pz     Val( 2p)     1.01133      -0.10340
 209    C 14  pz     Ryd( 3p)     0.00122       0.72393
 210    C 14  dxy    Ryd( 3d)     0.00083       2.53199
 211    C 14  dxz    Ryd( 3d)     0.00069       1.99735
 212    C 14  dyz    Ryd( 3d)     0.00066       2.00931
 213    C 14  dx2y2  Ryd( 3d)     0.00100       2.59177
 214    C 14  dz2    Ryd( 3d)     0.00058       2.29812

 215    H 15  s      Val( 1s)     0.75154       0.11583
 216    H 15  s      Ryd( 2s)     0.00153       0.40206
 217    H 15  px     Ryd( 2p)     0.00046       2.23189
 218    H 15  py     Ryd( 2p)     0.00059       2.32899
 219    H 15  pz     Ryd( 2p)     0.00016       1.74785

 220    H 16  s      Val( 1s)     0.76274       0.10780
 221    H 16  s      Ryd( 2s)     0.00133       0.42361
 222    H 16  px     Ryd( 2p)     0.00015       2.13766
 223    H 16  py     Ryd( 2p)     0.00084       2.43793
 224    H 16  pz     Ryd( 2p)     0.00017       1.74850

 225    H 17  s      Val( 1s)     0.75133       0.10952
 226    H 17  s      Ryd( 2s)     0.00157       0.40597
 227    H 17  px     Ryd( 2p)     0.00021       2.13866
 228    H 17  py     Ryd( 2p)     0.00082       2.43883
 229    H 17  pz     Ryd( 2p)     0.00017       1.75780

 230    H 18  s      Val( 1s)     0.73859       0.10416
 231    H 18  s      Ryd( 2s)     0.00147       0.42622
 232    H 18  px     Ryd( 2p)     0.00010       1.85797
 233    H 18  py     Ryd( 2p)     0.00034       2.11813
 234    H 18  pz     Ryd( 2p)     0.00067       2.26528

 235    H 19  s      Val( 1s)     0.73860       0.10416
 236    H 19  s      Ryd( 2s)     0.00147       0.42622
 237    H 19  px     Ryd( 2p)     0.00010       1.85796
 238    H 19  py     Ryd( 2p)     0.00034       2.11814
 239    H 19  pz     Ryd( 2p)     0.00067       2.26528

 240    H 20  s      Val( 1s)     0.76715       0.10982
 241    H 20  s      Ryd( 2s)     0.00133       0.40228
 242    H 20  px     Ryd( 2p)     0.00010       2.09671
 243    H 20  py     Ryd( 2p)     0.00090       2.46666
 244    H 20  pz     Ryd( 2p)     0.00017       1.75446

 245    H 21  s      Val( 1s)     0.76762       0.11618
 246    H 21  s      Ryd( 2s)     0.00131       0.39917
 247    H 21  px     Ryd( 2p)     0.00092       2.46538
 248    H 21  py     Ryd( 2p)     0.00009       2.08451
 249    H 21  pz     Ryd( 2p)     0.00016       1.74389

 250    H 22  s      Val( 1s)     0.76732       0.11651
 251    H 22  s      Ryd( 2s)     0.00131       0.39940
 252    H 22  px     Ryd( 2p)     0.00052       2.27791
 253    H 22  py     Ryd( 2p)     0.00050       2.27172
 254    H 22  pz     Ryd( 2p)     0.00016       1.74424

 255    H 23  s      Val( 1s)     0.76764       0.10975
 256    H 23  s      Ryd( 2s)     0.00135       0.42650
 257    H 23  px     Ryd( 2p)     0.00008       2.10627
 258    H 23  py     Ryd( 2p)     0.00091       2.47303
 259    H 23  pz     Ryd( 2p)     0.00017       1.75271


 Summary of Natural Population Analysis:

                                     Natural Population
             Natural    ---------------------------------------------
  Atom No    Charge        Core      Valence    Rydberg      Total
 --------------------------------------------------------------------
   Br  1    0.05267     27.99997     6.92790    0.01945    34.94733
    C  2   -0.11096      1.99997     4.08862    0.02238     6.11096
    C  3   -0.23491      1.99995     4.21764    0.01732     6.23491
    C  4   -0.19511      1.99994     4.18027    0.01490     6.19511
    C  5   -0.05212      1.99996     4.03547    0.01669     6.05212
    C  6    0.00223      1.99996     3.98063    0.01718     5.99777
    C  7   -0.22942      1.99995     4.21198    0.01750     6.22942
    C  8   -0.46060      1.99993     4.44817    0.01250     6.46060
    C  9   -0.01023      1.99996     3.99318    0.01709     6.01023
    C 10   -0.21868      1.99995     4.20328    0.01545     6.21868
    C 11   -0.22151      1.99995     4.20618    0.01538     6.22151
    C 12   -0.22412      1.99995     4.20883    0.01533     6.22412
    C 13   -0.20694      1.99994     4.19200    0.01499     6.20694
    C 14   -0.05462      1.99996     4.03789    0.01677     6.05462
    H 15    0.24572      0.00000     0.75154    0.00274     0.75428
    H 16    0.23477      0.00000     0.76274    0.00249     0.76523
    H 17    0.24589      0.00000     0.75133    0.00277     0.75411
    H 18    0.25882      0.00000     0.73859    0.00259     0.74118
    H 19    0.25882      0.00000     0.73860    0.00259     0.74118
    H 20    0.23035      0.00000     0.76715    0.00250     0.76965
    H 21    0.22990      0.00000     0.76762    0.00248     0.77010
    H 22    0.23020      0.00000     0.76732    0.00248     0.76980
    H 23    0.22985      0.00000     0.76764    0.00251     0.77015
 ====================================================================
 * Total *  0.00000     53.99935    67.74457    0.25607   122.00000

                                 Natural Population
 ---------------------------------------------------------
   Core                      53.99935 ( 99.9988% of   54)
   Valence                   67.74457 ( 99.6244% of   68)
   Natural Minimal Basis    121.74393 ( 99.7901% of  122)
   Natural Rydberg Basis      0.25607 (  0.2099% of  122)
 ---------------------------------------------------------

    Atom No         Natural Electron Configuration
 ----------------------------------------------------------------------------
     Br  1      [core]4s( 1.85)4p( 5.08)4d( 0.01)5p( 0.01)
      C  2      [core]2s( 0.93)2p( 3.16)3p( 0.02)3d( 0.01)
      C  3      [core]2s( 0.94)2p( 3.28)3p( 0.01)
      C  4      [core]2s( 0.93)2p( 3.25)3p( 0.01)
      C  5      [core]2s( 0.84)2p( 3.19)3p( 0.01)
      C  6      [core]2s( 0.85)2p( 3.13)3p( 0.01)
      C  7      [core]2s( 0.93)2p( 3.28)3p( 0.01)
      C  8      [core]2s( 1.01)2p( 3.44)3p( 0.01)
      C  9      [core]2s( 0.85)2p( 3.14)3p( 0.01)
      C 10      [core]2s( 0.93)2p( 3.27)3p( 0.01)
      C 11      [core]2s( 0.95)2p( 3.26)3p( 0.01)
      C 12      [core]2s( 0.95)2p( 3.26)3p( 0.01)
      C 13      [core]2s( 0.93)2p( 3.26)3p( 0.01)
      C 14      [core]2s( 0.84)2p( 3.20)3p( 0.01)
      H 15            1s( 0.75)
      H 16            1s( 0.76)
      H 17            1s( 0.75)
      H 18            1s( 0.74)
      H 19            1s( 0.74)
      H 20            1s( 0.77)
      H 21            1s( 0.77)
      H 22            1s( 0.77)
      H 23            1s( 0.77)


 Wiberg bond index matrix in the NAO basis:

     Atom    1       2       3       4       5       6       7       8       9
     ---- ------  ------  ------  ------  ------  ------  ------  ------  ------
   1. Br  0.0000  1.0378  0.0393  0.0150  0.0124  0.0144  0.0397  0.0012  0.0016
   2.  C  1.0378  0.0000  1.3967  0.0163  0.0918  0.0175  1.3988  0.0092  0.0090
   3.  C  0.0393  1.3967  0.0000  1.4379  0.0141  0.1007  0.0161  0.0014  0.0004
   4.  C  0.0150  0.0163  1.4379  0.0000  1.3703  0.0142  0.1056  0.0085  0.0217
   5.  C  0.0124  0.0918  0.0141  1.3703  0.0000  1.3248  0.0136  0.0124  0.0128
   6.  C  0.0144  0.0175  0.1007  0.0142  1.3248  0.0000  1.4109  1.0136  0.0223
   7.  C  0.0397  1.3988  0.0161  0.1056  0.0136  1.4109  0.0000  0.0121  0.0071
   8.  C  0.0012  0.0092  0.0014  0.0085  0.0124  1.0136  0.0121  0.0000  1.0134
   9.  C  0.0016  0.0090  0.0004  0.0217  0.0128  0.0223  0.0071  1.0134  0.0000
  10.  C  0.0001  0.0005  0.0003  0.0002  0.0087  0.0069  0.0001  0.0119  1.4130
  11.  C  0.0011  0.0067  0.0002  0.0092  0.0007  0.0093  0.0006  0.0097  0.0150
  12.  C  0.0000  0.0003  0.0002  0.0005  0.0098  0.0004  0.0003  0.0013  0.1026
  13.  C  0.0014  0.0084  0.0004  0.0137  0.0123  0.0211  0.0003  0.0085  0.0144
  14.  C  0.0006  0.0008  0.0097  0.0127  1.0541  0.0129  0.0088  0.0118  1.3279
  15.  H  0.0053  0.0039  0.9064  0.0045  0.0085  0.0005  0.0087  0.0003  0.0002
  16.  H  0.0009  0.0084  0.0043  0.9120  0.0037  0.0101  0.0003  0.0003  0.0002
  17.  H  0.0053  0.0041  0.0087  0.0004  0.0103  0.0046  0.9046  0.0027  0.0001
  18.  H  0.0001  0.0002  0.0034  0.0003  0.0104  0.0032  0.0061  0.8869  0.0032
  19.  H  0.0001  0.0002  0.0034  0.0003  0.0104  0.0032  0.0061  0.8869  0.0032
  20.  H  0.0000  0.0000  0.0000  0.0002  0.0002  0.0001  0.0000  0.0025  0.0038
  21.  H  0.0000  0.0000  0.0000  0.0000  0.0004  0.0002  0.0000  0.0003  0.0085
  22.  H  0.0000  0.0000  0.0000  0.0000  0.0002  0.0002  0.0000  0.0004  0.0004
  23.  H  0.0000  0.0000  0.0001  0.0002  0.0021  0.0002  0.0000  0.0003  0.0100

     Atom   10      11      12      13      14      15      16      17      18
     ---- ------  ------  ------  ------  ------  ------  ------  ------  ------
   1. Br  0.0001  0.0011  0.0000  0.0014  0.0006  0.0053  0.0009  0.0053  0.0001
   2.  C  0.0005  0.0067  0.0003  0.0084  0.0008  0.0039  0.0084  0.0041  0.0002
   3.  C  0.0003  0.0002  0.0002  0.0004  0.0097  0.9064  0.0043  0.0087  0.0034
   4.  C  0.0002  0.0092  0.0005  0.0137  0.0127  0.0045  0.9120  0.0004  0.0003
   5.  C  0.0087  0.0007  0.0098  0.0123  1.0541  0.0085  0.0037  0.0103  0.0104
   6.  C  0.0069  0.0093  0.0004  0.0211  0.0129  0.0005  0.0101  0.0046  0.0032
   7.  C  0.0001  0.0006  0.0003  0.0003  0.0088  0.0087  0.0003  0.9046  0.0061
   8.  C  0.0119  0.0097  0.0013  0.0085  0.0118  0.0003  0.0003  0.0027  0.8869
   9.  C  1.4130  0.0150  0.1026  0.0144  1.3279  0.0002  0.0002  0.0001  0.0032
  10.  C  0.0000  1.4281  0.0131  0.1085  0.0141  0.0000  0.0000  0.0000  0.0061
  11.  C  1.4281  0.0000  1.4235  0.0132  0.0989  0.0000  0.0000  0.0000  0.0002
  12.  C  0.0131  1.4235  0.0000  1.4429  0.0145  0.0000  0.0001  0.0000  0.0034
  13.  C  0.1085  0.0132  1.4429  0.0000  1.3709  0.0000  0.0002  0.0002  0.0004
  14.  C  0.0141  0.0989  0.0145  1.3709  0.0000  0.0002  0.0021  0.0002  0.0103
  15.  H  0.0000  0.0000  0.0000  0.0000  0.0002  0.0000  0.0034  0.0003  0.0000
  16.  H  0.0000  0.0000  0.0001  0.0002  0.0021  0.0034  0.0000  0.0005  0.0001
  17.  H  0.0000  0.0000  0.0000  0.0002  0.0002  0.0003  0.0005  0.0000  0.0001
  18.  H  0.0061  0.0002  0.0034  0.0004  0.0103  0.0000  0.0001  0.0001  0.0000
  19.  H  0.0061  0.0002  0.0034  0.0004  0.0103  0.0000  0.0001  0.0001  0.0010
  20.  H  0.9143  0.0042  0.0090  0.0003  0.0104  0.0000  0.0000  0.0000  0.0001
  21.  H  0.0037  0.9162  0.0039  0.0090  0.0004  0.0000  0.0000  0.0000  0.0000
  22.  H  0.0090  0.0039  0.9159  0.0037  0.0087  0.0000  0.0000  0.0000  0.0000
  23.  H  0.0003  0.0091  0.0043  0.9148  0.0035  0.0000  0.0003  0.0000  0.0001

     Atom   19      20      21      22      23
     ---- ------  ------  ------  ------  ------
   1. Br  0.0001  0.0000  0.0000  0.0000  0.0000
   2.  C  0.0002  0.0000  0.0000  0.0000  0.0000
   3.  C  0.0034  0.0000  0.0000  0.0000  0.0001
   4.  C  0.0003  0.0002  0.0000  0.0000  0.0002
   5.  C  0.0104  0.0002  0.0004  0.0002  0.0021
   6.  C  0.0032  0.0001  0.0002  0.0002  0.0002
   7.  C  0.0061  0.0000  0.0000  0.0000  0.0000
   8.  C  0.8869  0.0025  0.0003  0.0004  0.0003
   9.  C  0.0032  0.0038  0.0085  0.0004  0.0100
  10.  C  0.0061  0.9143  0.0037  0.0090  0.0003
  11.  C  0.0002  0.0042  0.9162  0.0039  0.0091
  12.  C  0.0034  0.0090  0.0039  0.9159  0.0043
  13.  C  0.0004  0.0003  0.0090  0.0037  0.9148
  14.  C  0.0103  0.0104  0.0004  0.0087  0.0035
  15.  H  0.0000  0.0000  0.0000  0.0000  0.0000
  16.  H  0.0001  0.0000  0.0000  0.0000  0.0003
  17.  H  0.0001  0.0000  0.0000  0.0000  0.0000
  18.  H  0.0010  0.0001  0.0000  0.0000  0.0001
  19.  H  0.0000  0.0001  0.0000  0.0000  0.0001
  20.  H  0.0001  0.0000  0.0033  0.0003  0.0006
  21.  H  0.0000  0.0033  0.0000  0.0033  0.0003
  22.  H  0.0000  0.0003  0.0033  0.0000  0.0032
  23.  H  0.0001  0.0006  0.0003  0.0032  0.0000


 Wiberg bond index, Totals by atom:

     Atom    1
     ---- ------
   1. Br  1.1762
   2.  C  4.0104
   3.  C  3.9437
   4.  C  3.9438
   5.  C  3.9840
   6.  C  3.9913
   7.  C  3.9398
   8.  C  3.8955
   9.  C  3.9906
  10.  C  3.9451
  11.  C  3.9501
  12.  C  3.9494
  13.  C  3.9449
  14.  C  3.9839
  15.  H  0.9423
  16.  H  0.9473
  17.  H  0.9423
  18.  H  0.9355
  19.  H  0.9355
  20.  H  0.9494
  21.  H  0.9495
  22.  H  0.9494
  23.  H  0.9496


 NBI: Natural Binding Index (NCU strength parameters)

     Atom    1       2       3       4       5       6       7       8       9
     ---- ------  ------  ------  ------  ------  ------  ------  ------  ------
   1. Br  0.0000  1.0187  0.1983  0.1223  0.1113  0.1199  0.1993  0.0341  0.0396
   2.  C  1.0187  0.0000  1.1818  0.1277  0.3030  0.1324  1.1827  0.0959  0.0947
   3.  C  0.1983  1.1818  0.0000  1.1991  0.1189  0.3173  0.1269  0.0380  0.0190
   4.  C  0.1223  0.1277  1.1991  0.0000  1.1706  0.1192  0.3249  0.0922  0.1474
   5.  C  0.1113  0.3030  0.1189  1.1706  0.0000  1.1510  0.1164  0.1113  0.1130
   6.  C  0.1199  0.1324  0.3173  0.1192  1.1510  0.0000  1.1878  1.0068  0.1492
   7.  C  0.1993  1.1827  0.1269  0.3249  0.1164  1.1878  0.0000  0.1099  0.0844
   8.  C  0.0341  0.0959  0.0380  0.0922  0.1113  1.0068  0.1099  0.0000  1.0067
   9.  C  0.0396  0.0947  0.0190  0.1474  0.1130  0.1492  0.0844  1.0067  0.0000
  10.  C  0.0113  0.0212  0.0172  0.0151  0.0935  0.0833  0.0098  0.1091  1.1887
  11.  C  0.0333  0.0819  0.0155  0.0961  0.0256  0.0962  0.0239  0.0983  0.1223
  12.  C  0.0049  0.0171  0.0139  0.0215  0.0989  0.0206  0.0179  0.0364  0.3203
  13.  C  0.0374  0.0915  0.0197  0.1170  0.1110  0.1452  0.0159  0.0920  0.1202
  14.  C  0.0252  0.0282  0.0987  0.1127  1.0267  0.1136  0.0941  0.1087  1.1523
  15.  H  0.0727  0.0623  0.9521  0.0668  0.0922  0.0222  0.0934  0.0186  0.0145
  16.  H  0.0301  0.0917  0.0659  0.9550  0.0606  0.1005  0.0180  0.0185  0.0139
  17.  H  0.0731  0.0638  0.0932  0.0203  0.1015  0.0680  0.9511  0.0521  0.0113
  18.  H  0.0071  0.0146  0.0581  0.0178  0.1021  0.0568  0.0780  0.9417  0.0562
  19.  H  0.0071  0.0146  0.0581  0.0178  0.1021  0.0568  0.0780  0.9417  0.0562
  20.  H  0.0020  0.0026  0.0045  0.0146  0.0146  0.0105  0.0048  0.0500  0.0614
  21.  H  0.0028  0.0039  0.0015  0.0033  0.0198  0.0144  0.0036  0.0172  0.0922
  22.  H  0.0005  0.0018  0.0031  0.0034  0.0141  0.0144  0.0040  0.0200  0.0207
  23.  H  0.0015  0.0036  0.0077  0.0146  0.0456  0.0138  0.0057  0.0181  0.1001

     Atom   10      11      12      13      14      15      16      17      18
     ---- ------  ------  ------  ------  ------  ------  ------  ------  ------
   1. Br  0.0113  0.0333  0.0049  0.0374  0.0252  0.0727  0.0301  0.0731  0.0071
   2.  C  0.0212  0.0819  0.0171  0.0915  0.0282  0.0623  0.0917  0.0638  0.0146
   3.  C  0.0172  0.0155  0.0139  0.0197  0.0987  0.9521  0.0659  0.0932  0.0581
   4.  C  0.0151  0.0961  0.0215  0.1170  0.1127  0.0668  0.9550  0.0203  0.0178
   5.  C  0.0935  0.0256  0.0989  0.1110  1.0267  0.0922  0.0606  0.1015  0.1021
   6.  C  0.0833  0.0962  0.0206  0.1452  0.1136  0.0222  0.1005  0.0680  0.0568
   7.  C  0.0098  0.0239  0.0179  0.0159  0.0941  0.0934  0.0180  0.9511  0.0780
   8.  C  0.1091  0.0983  0.0364  0.0920  0.1087  0.0186  0.0185  0.0521  0.9417
   9.  C  1.1887  0.1223  0.3203  0.1202  1.1523  0.0145  0.0139  0.0113  0.0562
  10.  C  0.0000  1.1951  0.1143  0.3293  0.1186  0.0042  0.0061  0.0054  0.0780
  11.  C  1.1951  0.0000  1.1931  0.1150  0.3145  0.0016  0.0033  0.0032  0.0144
  12.  C  0.1143  1.1931  0.0000  1.2012  0.1206  0.0030  0.0080  0.0044  0.0583
  13.  C  0.3293  0.1150  1.2012  0.0000  1.1708  0.0034  0.0146  0.0145  0.0201
  14.  C  0.1186  0.3145  0.1206  1.1708  0.0000  0.0131  0.0459  0.0136  0.1015
  15.  H  0.0042  0.0016  0.0030  0.0034  0.0131  0.0000  0.0585  0.0181  0.0014
  16.  H  0.0061  0.0033  0.0080  0.0146  0.0459  0.0585  0.0000  0.0226  0.0109
  17.  H  0.0054  0.0032  0.0044  0.0145  0.0136  0.0181  0.0226  0.0000  0.0084
  18.  H  0.0780  0.0144  0.0583  0.0201  0.1015  0.0014  0.0109  0.0084  0.0000
  19.  H  0.0780  0.0144  0.0583  0.0201  0.1015  0.0014  0.0109  0.0084  0.0321
  20.  H  0.9562  0.0647  0.0949  0.0182  0.1022  0.0041  0.0044  0.0020  0.0083
  21.  H  0.0609  0.9572  0.0626  0.0947  0.0202  0.0005  0.0008  0.0018  0.0012
  22.  H  0.0949  0.0627  0.9570  0.0611  0.0935  0.0005  0.0039  0.0041  0.0014
  23.  H  0.0179  0.0953  0.0659  0.9564  0.0590  0.0039  0.0183  0.0042  0.0109

     Atom   19      20      21      22      23
     ---- ------  ------  ------  ------  ------
   1. Br  0.0071  0.0020  0.0028  0.0005  0.0015
   2.  C  0.0146  0.0026  0.0039  0.0018  0.0036
   3.  C  0.0581  0.0045  0.0015  0.0031  0.0077
   4.  C  0.0178  0.0146  0.0033  0.0034  0.0146
   5.  C  0.1021  0.0146  0.0198  0.0141  0.0456
   6.  C  0.0568  0.0105  0.0144  0.0144  0.0138
   7.  C  0.0780  0.0048  0.0036  0.0040  0.0057
   8.  C  0.9417  0.0500  0.0172  0.0200  0.0181
   9.  C  0.0562  0.0614  0.0922  0.0207  0.1001
  10.  C  0.0780  0.9562  0.0609  0.0949  0.0179
  11.  C  0.0144  0.0647  0.9572  0.0627  0.0953
  12.  C  0.0583  0.0949  0.0626  0.9570  0.0659
  13.  C  0.0201  0.0182  0.0947  0.0611  0.9564
  14.  C  0.1015  0.1022  0.0202  0.0935  0.0590
  15.  H  0.0014  0.0041  0.0005  0.0005  0.0039
  16.  H  0.0109  0.0044  0.0008  0.0039  0.0183
  17.  H  0.0084  0.0020  0.0018  0.0041  0.0042
  18.  H  0.0321  0.0083  0.0012  0.0014  0.0109
  19.  H  0.0000  0.0083  0.0012  0.0014  0.0109
  20.  H  0.0083  0.0000  0.0570  0.0170  0.0240
  21.  H  0.0012  0.0570  0.0000  0.0572  0.0171
  22.  H  0.0014  0.0170  0.0572  0.0000  0.0570
  23.  H  0.0109  0.0240  0.0171  0.0570  0.0000


 NATURAL BOND ORBITAL ANALYSIS:

                            Occupancies       Lewis Structure    Low   High
         Max    Occ     -------------------  -----------------   occ   occ
  Cycle  Ctr   Thresh    Lewis   non-Lewis     CR  BD  nC  LP    (L)   (NL)
 ============================================================================
    1     2     1.90   115.35712   6.64288     27  25   0   9     6      6
    2     2     1.68   115.96121   6.03879     27  26   0   8     5      6
    3     2     1.67   117.30231   4.69769     27  28   0   6     3      6
    4     2     1.66   117.96507   4.03493     27  29   0   5     2      6
    5     2     1.65   117.96507   4.03493     27  29   0   5     2      6
    6     2     1.63   119.17247   2.82753     27  31   0   3     0      6
    7     2     1.61   119.17363   2.82637     27  31   0   3     0      6
    8     2     1.60   119.17363   2.82637     27  31   0   3     0      6
    9     2     1.61   119.17363   2.82637     27  31   0   3     0      6
 ----------------------------------------------------------------------------

 Structure accepted: No low occupancy Lewis orbitals

 -------------------------------------------------------
   Core                     53.99935 ( 99.999% of  54)
   Valence Lewis            65.17427 ( 95.845% of  68)
  ==================      =============================
   Total Lewis             119.17363 ( 97.683% of 122)
  -----------------------------------------------------
   Valence non-Lewis         2.65002 (  2.172% of 122)
   Rydberg non-Lewis         0.17636 (  0.145% of 122)
  ==================      =============================
   Total non-Lewis           2.82637 (  2.317% of 122)
 -------------------------------------------------------


     (Occupancy)   Bond orbital / Coefficients / Hybrids
 ------------------ Lewis ------------------------------------------------------
   1. (2.00000) CR ( 1)Br  1            s(100.00%)
                                         1.0000  0.0000  0.0000  0.0000  0.0000
                                         0.0000  0.0000  0.0000  0.0000  0.0000
                                         0.0000  0.0000  0.0000  0.0000  0.0000
                                         0.0000  0.0000  0.0000  0.0000  0.0000
                                         0.0000  0.0000  0.0000  0.0000  0.0000
                                         0.0000  0.0000  0.0000  0.0000  0.0000
                                         0.0000  0.0000
   2. (2.00000) CR ( 2)Br  1            s(100.00%)
                                         0.0000  1.0000  0.0000  0.0000  0.0000
                                         0.0000  0.0000  0.0000  0.0000  0.0000
                                         0.0000  0.0000  0.0000  0.0000  0.0000
                                         0.0000  0.0000  0.0000  0.0000  0.0000
                                         0.0000  0.0000  0.0000  0.0000  0.0000
                                         0.0000  0.0000  0.0000  0.0000  0.0000
                                         0.0000  0.0000
   3. (2.00000) CR ( 3)Br  1            s(100.00%)
                                         0.0000  0.0000  1.0000  0.0000  0.0000
                                         0.0000  0.0000  0.0000  0.0000  0.0000
                                         0.0000  0.0000  0.0000  0.0000  0.0000
                                         0.0000  0.0000  0.0000  0.0000  0.0000
                                         0.0000  0.0000  0.0000  0.0000  0.0000
                                         0.0000  0.0000  0.0000  0.0000  0.0000
                                         0.0000  0.0000
   4. (2.00000) CR ( 4)Br  1            s(  0.00%)p 1.00(100.00%)
                                         0.0000  0.0000  0.0000  0.0000  0.0000
                                         1.0000  0.0000  0.0000  0.0000  0.0000
                                         0.0000  0.0000  0.0000  0.0000  0.0000
                                         0.0000  0.0000  0.0000  0.0000  0.0000
                                         0.0000  0.0000  0.0000  0.0000  0.0000
                                         0.0000  0.0000  0.0000  0.0000  0.0000
                                         0.0000  0.0000
   5. (2.00000) CR ( 5)Br  1            s(  0.00%)p 1.00(100.00%)
                                         0.0000  0.0000  0.0000  0.0000  0.0000
                                         0.0000  1.0000  0.0000  0.0000  0.0000
                                         0.0000  0.0000  0.0000  0.0000  0.0000
                                         0.0000  0.0000  0.0000  0.0000  0.0000
                                         0.0000  0.0000  0.0000  0.0000  0.0000
                                         0.0000  0.0000  0.0000  0.0000  0.0000
                                         0.0000  0.0000
   6. (2.00000) CR ( 6)Br  1            s(  0.00%)p 1.00(100.00%)
                                         0.0000  0.0000  0.0000  0.0000  0.0000
                                         0.0000  0.0000  0.0000  0.0000  1.0000
                                         0.0000  0.0000  0.0000  0.0000  0.0000
                                         0.0000  0.0000  0.0000  0.0000  0.0000
                                         0.0000  0.0000  0.0000  0.0000  0.0000
                                         0.0000  0.0000  0.0000  0.0000  0.0000
                                         0.0000  0.0000
   7. (2.00000) CR ( 7)Br  1            s(  0.00%)p 1.00(100.00%)
                                         0.0000  0.0000  0.0000  0.0000  0.0000
                                         0.0000  0.0000  0.0000  0.0000  0.0000
                                         1.0000  0.0000  0.0000  0.0000  0.0000
                                         0.0000  0.0000  0.0000  0.0000  0.0000
                                         0.0000  0.0000  0.0000  0.0000  0.0000
                                         0.0000  0.0000  0.0000  0.0000  0.0000
                                         0.0000  0.0000
   8. (2.00000) CR ( 8)Br  1            s(  0.00%)p 1.00(100.00%)
                                         0.0000  0.0000  0.0000  0.0000  0.0000
                                         0.0000  0.0000  0.0000  0.0000  0.0000
[...]
  203. RY ( 7) C 12             0.00003     2.37233
  204. RY ( 8) C 12             0.00001     2.30349
  205. RY ( 9) C 12             0.00000     1.93335
  206. RY ( 1) C 13             0.00549     1.24836
  207. RY ( 2) C 13             0.00252     0.82530
  208. RY ( 3) C 13             0.00099     0.88333
  209. RY ( 4) C 13             0.00065     1.80292
  210. RY ( 5) C 13             0.00060     0.70902
  211. RY ( 6) C 13             0.00007     2.39587
  212. RY ( 7) C 13             0.00002     2.45505
  213. RY ( 8) C 13             0.00001     1.97445
  214. RY ( 9) C 13             0.00001     2.31240
  215. RY ( 1) C 14             0.00590     1.22656
  216. RY ( 2) C 14             0.00355     1.41191
  217. RY ( 3) C 14             0.00166     0.73084
  218. RY ( 4) C 14             0.00136     1.09187
  219. RY ( 5) C 14             0.00074     1.89606
  220. RY ( 6) C 14             0.00037     1.74038
  221. RY ( 7) C 14             0.00010     2.50924
  222. RY ( 8) C 14             0.00005     2.26247
  223. RY ( 9) C 14             0.00001     2.30652
  224. RY ( 1) H 15             0.00154     0.43859
  225. RY ( 2) H 15             0.00016     1.74785
  226. RY ( 3) H 15             0.00006     2.25700
  227. RY ( 4) H 15             0.00003     2.25618
  228. RY ( 1) H 16             0.00135     0.45611
  229. RY ( 2) H 16             0.00017     1.74850
  230. RY ( 3) H 16             0.00005     2.44271
  231. RY ( 4) H 16             0.00003     2.08986
  232. RY ( 1) H 17             0.00159     0.44254
  233. RY ( 2) H 17             0.00017     1.75780
  234. RY ( 3) H 17             0.00005     2.27392
  235. RY ( 4) H 17             0.00004     2.25596
  236. RY ( 1) H 18             0.00148     0.44628
  237. RY ( 2) H 18             0.00010     1.85782
  238. RY ( 3) H 18             0.00009     1.99848
  239. RY ( 4) H 18             0.00001     2.35480
  240. RY ( 1) H 19             0.00148     0.44628
  241. RY ( 2) H 19             0.00010     1.85782
  242. RY ( 3) H 19             0.00009     1.99848
  243. RY ( 4) H 19             0.00001     2.35480
  244. RY ( 1) H 20             0.00135     0.44309
  245. RY ( 2) H 20             0.00017     1.75446
  246. RY ( 3) H 20             0.00005     2.40206
  247. RY ( 4) H 20             0.00003     2.10981
  248. RY ( 1) H 21             0.00132     0.43867
  249. RY ( 2) H 21             0.00016     1.74389
  250. RY ( 3) H 21             0.00004     2.44413
  251. RY ( 4) H 21             0.00003     2.05545
  252. RY ( 1) H 22             0.00132     0.43937
  253. RY ( 2) H 22             0.00016     1.74424
  254. RY ( 3) H 22             0.00004     2.44436
  255. RY ( 4) H 22             0.00003     2.05448
  256. RY ( 1) H 23             0.00137     0.46066
  257. RY ( 2) H 23             0.00017     1.75271
  258. RY ( 3) H 23             0.00005     2.44261
  259. RY ( 4) H 23             0.00003     2.09207
          -------------------------------
                 Total Lewis  119.17363  ( 97.6833%)
           Valence non-Lewis    2.65002  (  2.1721%)
           Rydberg non-Lewis    0.17636  (  0.1446%)
          -------------------------------
               Total unit  1  122.00000  (100.0000%)
              Charge unit  1    0.00000

 $CHOOSE
   LONE 1 3 END
   BOND S 1 2 D 2 3 S 2 7 S 3 4 S 3 15 D 4 5 S 4 16 S 5 6 S 5 14 D 6 7 S 6 8
        S 7 17 S 8 9 S 8 18 S 8 19 S 9 10 D 9 14 D 10 11 S 10 20 S 11 12
        S 11 21 D 12 13 S 12 22 S 13 14 S 13 23 END
 $END


 Checkpoint NBOs sorted by occupancy:

  Sort    Occ       Energy   Orig   Label
 -----------------------------------------------------------
    1.  2.00000  -399.95406    1.   CR ( 1)Br  1
    2.  2.00000  -130.05799    2.   CR ( 2)Br  1
    3.  2.00000   -38.05646    4.   CR ( 4)Br  1
    4.  2.00000   -38.04793    6.   CR ( 6)Br  1
    5.  2.00000   -38.04794    8.   CR ( 8)Br  1
    6.  2.00000   -25.01933    7.   CR ( 7)Br  1
    7.  2.00000   -25.01931    9.   CR ( 9)Br  1
    8.  2.00000    -2.73546   11.   CR (11)Br  1
    9.  2.00000   -25.02733    5.   CR ( 5)Br  1
   10.  2.00000    -2.73554   10.   CR (10)Br  1
   11.  2.00000    -2.72513   12.   CR (12)Br  1
   12.  2.00000   -24.49717    3.   CR ( 3)Br  1
   13.  2.00000    -2.72865   14.   CR (14)Br  1
   14.  1.99999    -2.73573   13.   CR (13)Br  1
   15.  1.99997   -10.35708   15.   CR ( 1) C  2
   16.  1.99996   -10.31755   19.   CR ( 1) C  6
   17.  1.99996   -10.31157   22.   CR ( 1) C  9
   18.  1.99996   -10.31364   18.   CR ( 1) C  5
   19.  1.99996   -10.31038   27.   CR ( 1) C 14
   20.  1.99995   -10.31601   16.   CR ( 1) C  3
   21.  1.99995   -10.30709   24.   CR ( 1) C 11
   22.  1.99995   -10.30677   25.   CR ( 1) C 12
   23.  1.99995   -10.31707   20.   CR ( 1) C  7
   24.  1.99995   -10.30812   23.   CR ( 1) C 10
   25.  1.99994   -10.31551   17.   CR ( 1) C  4
   26.  1.99994   -10.30878   26.   CR ( 1) C 13
   27.  1.99993   -10.31693   21.   CR ( 1) C  8
   28.  1.99456    -0.74463   28.   LP ( 1)Br  1
   29.  1.98449    -0.64380   31.   BD ( 1)Br  1- C  2
   30.  1.98083    -0.56744   54.   BD ( 1) C 10- H 20
   31.  1.98076    -0.56520   56.   BD ( 1) C 11- H 21
   32.  1.98071    -0.56495   59.   BD ( 1) C 12- H 22
   33.  1.98069    -0.56816   61.   BD ( 1) C 13- H 23
   34.  1.97945    -0.57244   39.   BD ( 1) C  4- H 16
   35.  1.97842    -0.70853   32.   BD ( 1) C  2- C  3
   36.  1.97827    -0.57150   36.   BD ( 1) C  3- H 15
   37.  1.97826    -0.57350   45.   BD ( 1) C  7- H 17
   38.  1.97783    -0.67782   55.   BD ( 1) C 11- C 12
   39.  1.97735    -0.36576   29.   LP ( 2)Br  1
   40.  1.97639    -0.70621   34.   BD ( 1) C  2- C  7
   41.  1.97623    -0.67666   57.   BD ( 1) C 12- C 13
   42.  1.97573    -0.67572   52.   BD ( 1) C 10- C 11
   43.  1.97369    -0.68296   49.   BD ( 1) C  9- C 10
   44.  1.97260    -0.62417   46.   BD ( 1) C  8- C  9
   45.  1.97238    -0.68418   37.   BD ( 1) C  4- C  5
   46.  1.97220    -0.67892   60.   BD ( 1) C 13- C 14
   47.  1.97186    -0.62641   44.   BD ( 1) C  6- C  8
   48.  1.96968    -0.68296   35.   BD ( 1) C  3- C  4
   49.  1.96725    -0.68872   42.   BD ( 1) C  6- C  7
   50.  1.96539    -0.63808   41.   BD ( 1) C  5- C 14
   51.  1.96119    -0.66167   40.   BD ( 1) C  5- C  6
   52.  1.96101    -0.65709   50.   BD ( 1) C  9- C 14
   53.  1.96029    -0.55531   47.   BD ( 1) C  8- H 18
   54.  1.96029    -0.55531   48.   BD ( 1) C  8- H 19
   55.  1.94215    -0.36146   30.   LP ( 3)Br  1
   56.  1.68366    -0.32877   33.   BD ( 2) C  2- C  3
   57.  1.67407    -0.30677   58.   BD ( 2) C 12- C 13
   58.  1.66433    -0.30565   53.   BD ( 2) C 10- C 11
   59.  1.65574    -0.31281   43.   BD ( 2) C  6- C  7
   60.  1.63094    -0.30599   38.   BD ( 2) C  4- C  5
   61.  1.61556    -0.29567   51.   BD ( 2) C  9- C 14
   62.  0.39965     0.06298   64.   BD*( 2) C  2- C  3
   63.  0.38686     0.09335   82.   BD*( 2) C  9- C 14
   64.  0.36900     0.09116   69.   BD*( 2) C  4- C  5
   65.  0.33718     0.08934   84.   BD*( 2) C 10- C 11
   66.  0.32759     0.09308   74.   BD*( 2) C  6- C  7
   67.  0.32635     0.09128   89.   BD*( 2) C 12- C 13
   68.  0.03289     0.57739   72.   BD*( 1) C  5- C 14
   69.  0.03016     0.65094   81.   BD*( 1) C  9- C 14
   70.  0.02984     0.64682   71.   BD*( 1) C  5- C  6
   71.  0.02847     0.19283   62.   BD*( 1)Br  1- C  2
   72.  0.02622     0.64514   63.   BD*( 1) C  2- C  3
   73.  0.02551     0.67160   91.   BD*( 1) C 13- C 14
   74.  0.02531     0.66815   68.   BD*( 1) C  4- C  5
   75.  0.02526     0.64518   65.   BD*( 1) C  2- C  7
   76.  0.02519     0.67589   73.   BD*( 1) C  6- C  7
   77.  0.02416     0.68089   80.   BD*( 1) C  9- C 10
   78.  0.02022     0.50948   77.   BD*( 1) C  8- C  9
   79.  0.01962     0.50713   75.   BD*( 1) C  6- C  8
   80.  0.01652     0.66498   86.   BD*( 1) C 11- C 12
   81.  0.01607     0.66243   66.   BD*( 1) C  3- C  4
   82.  0.01555     0.66534   83.   BD*( 1) C 10- C 11
   83.  0.01524     0.66878   88.   BD*( 1) C 12- C 13
   84.  0.01510     0.55182   76.   BD*( 1) C  7- H 17
   85.  0.01483     0.55916   85.   BD*( 1) C 10- H 20
   86.  0.01451     0.55971   92.   BD*( 1) C 13- H 23
   87.  0.01411     0.55604   70.   BD*( 1) C  4- H 16
   88.  0.01404     0.52915   78.   BD*( 1) C  8- H 18
   89.  0.01404     0.52915   79.   BD*( 1) C  8- H 19
   90.  0.01368     0.56201   67.   BD*( 1) C  3- H 15
   91.  0.01350     0.56968   90.   BD*( 1) C 12- H 22
   92.  0.01333     0.56964   87.   BD*( 1) C 11- H 21
   93.  0.00695     1.16958  107.   RY ( 1) C  2
   94.  0.00666     1.20712  152.   RY ( 1) C  7
   95.  0.00635     1.19833  116.   RY ( 1) C  3
   96.  0.00623     0.86091  108.   RY ( 2) C  2
   97.  0.00597     1.23845  179.   RY ( 1) C 10
   98.  0.00590     1.22656  215.   RY ( 1) C 14
   99.  0.00578     1.22574  134.   RY ( 1) C  5
  100.  0.00561     1.24596  125.   RY ( 1) C  4
  101.  0.00549     1.24836  206.   RY ( 1) C 13
  102.  0.00540     1.26765  188.   RY ( 1) C 11
  103.  0.00536     1.26912  197.   RY ( 1) C 12
  104.  0.00515     1.28475  143.   RY ( 1) C  6
  105.  0.00495     1.29367  170.   RY ( 1) C  9
  106.  0.00382     1.19840  144.   RY ( 2) C  6
  107.  0.00380     1.19767  171.   RY ( 2) C  9
  108.  0.00355     1.41191  216.   RY ( 2) C 14
  109.  0.00344     1.41868  135.   RY ( 2) C  5
  110.  0.00338     0.77497  153.   RY ( 2) C  7
  111.  0.00320     0.69295  161.   RY ( 1) C  8
  112.  0.00290     0.77891  162.   RY ( 2) C  8
  113.  0.00276     0.68325   93.   RY ( 1)Br  1
  114.  0.00275     0.79033  117.   RY ( 2) C  3
  115.  0.00256     0.81927  126.   RY ( 2) C  4
  116.  0.00252     0.82530  207.   RY ( 2) C 13
  117.  0.00245     0.82000  180.   RY ( 2) C 10
  118.  0.00237     0.78671  198.   RY ( 2) C 12
  119.  0.00230     0.78684  189.   RY ( 2) C 11
  120.  0.00225     1.08606  109.   RY ( 3) C  2
  121.  0.00207     0.85670  172.   RY ( 3) C  9
  122.  0.00202     0.87279  145.   RY ( 3) C  6
  123.  0.00184     1.22202  163.   RY ( 3) C  8
  124.  0.00168     0.73299  136.   RY ( 3) C  5
  125.  0.00166     0.73084  217.   RY ( 3) C 14
  126.  0.00159     0.44254  232.   RY ( 1) H 17
  127.  0.00154     0.43859  224.   RY ( 1) H 15
  128.  0.00148     0.44628  236.   RY ( 1) H 18
  129.  0.00148     0.44628  240.   RY ( 1) H 19
  130.  0.00138     1.13389  137.   RY ( 4) C  5
  131.  0.00137     0.46066  256.   RY ( 1) H 23
  132.  0.00136     1.09187  218.   RY ( 4) C 14
  133.  0.00135     0.44309  244.   RY ( 1) H 20
  134.  0.00135     0.45611  228.   RY ( 1) H 16
  135.  0.00132     0.43867  248.   RY ( 1) H 21
  136.  0.00132     0.43937  252.   RY ( 1) H 22
  137.  0.00132     1.03991  118.   RY ( 3) C  3
  138.  0.00127     0.78090   94.   RY ( 2)Br  1
  139.  0.00111     1.07693  127.   RY ( 3) C  4
  140.  0.00099     0.88333  208.   RY ( 3) C 13
  141.  0.00097     0.82474  173.   RY ( 4) C  9
  142.  0.00095     2.00095  110.   RY ( 4) C  2
  143.  0.00093     0.80393  154.   RY ( 3) C  7
  144.  0.00089     1.03618  190.   RY ( 3) C 11
  145.  0.00086     1.09995  164.   RY ( 4) C  8
  146.  0.00085     1.38219  181.   RY ( 3) C 10
  147.  0.00084     0.81605  146.   RY ( 4) C  6
  148.  0.00082     2.01013  147.   RY ( 5) C  6
  149.  0.00081     2.01342  174.   RY ( 5) C  9
  150.  0.00081     1.65560  199.   RY ( 3) C 12
  151.  0.00080     0.67554  119.   RY ( 4) C  3
  152.  0.00078     0.64886  111.   RY ( 5) C  2
  153.  0.00077     1.78096  138.   RY ( 5) C  5
  154.  0.00074     1.89606  219.   RY ( 5) C 14
  155.  0.00074     1.67483  191.   RY ( 4) C 11
  156.  0.00071     1.05728  200.   RY ( 4) C 12
  157.  0.00069     0.71429  155.   RY ( 4) C  7
  158.  0.00066     1.84740  156.   RY ( 5) C  7
  159.  0.00065     1.80292  209.   RY ( 4) C 13
  160.  0.00065     0.71659  201.   RY ( 5) C 12
  161.  0.00064     0.72135  192.   RY ( 5) C 11
  162.  0.00062     1.31755  182.   RY ( 4) C 10
  163.  0.00061     1.60741  128.   RY ( 4) C  4
  164.  0.00060     0.70902  210.   RY ( 5) C 13
  165.  0.00057     0.70805  183.   RY ( 5) C 10
  166.  0.00055     1.61591  120.   RY ( 5) C  3
  167.  0.00053     2.39424  112.   RY ( 6) C  2
  168.  0.00048     2.07387  165.   RY ( 5) C  8
  169.  0.00045     0.76539  129.   RY ( 5) C  4
  170.  0.00038     1.80599  139.   RY ( 6) C  5
  171.  0.00037     1.74038  220.   RY ( 6) C 14
  172.  0.00033     0.62455   95.   RY ( 3)Br  1
  173.  0.00030     2.16738  113.   RY ( 7) C  2
  174.  0.00021     1.86190  148.   RY ( 6) C  6
  175.  0.00021     1.88045  175.   RY ( 6) C  9
  176.  0.00017     2.40015  149.   RY ( 7) C  6
  177.  0.00017     1.75271  257.   RY ( 2) H 23
  178.  0.00017     1.74850  229.   RY ( 2) H 16
  179.  0.00017     1.75780  233.   RY ( 2) H 17
  180.  0.00017     1.75446  245.   RY ( 2) H 20
  181.  0.00016     1.74389  249.   RY ( 2) H 21
  182.  0.00016     1.74785  225.   RY ( 2) H 15
  183.  0.00016     1.74424  253.   RY ( 2) H 22
  184.  0.00016     2.39271  176.   RY ( 7) C  9
  185.  0.00014     2.43370  121.   RY ( 6) C  3
  186.  0.00012     2.45789  193.   RY ( 6) C 11
  187.  0.00012     2.45751  202.   RY ( 6) C 12
  188.  0.00010     2.50230  140.   RY ( 7) C  5
  189.  0.00010     2.50924  221.   RY ( 7) C 14
  190.  0.00010     1.85782  237.   RY ( 2) H 18
  191.  0.00010     1.85782  241.   RY ( 2) H 19
  192.  0.00010     1.45210  114.   RY ( 8) C  2
  193.  0.00009     1.99848  238.   RY ( 3) H 18
  194.  0.00009     1.99848  242.   RY ( 3) H 19
  195.  0.00009     1.02369   96.   RY ( 4)Br  1
  196.  0.00008     2.40476  157.   RY ( 6) C  7
  197.  0.00007     2.37383  130.   RY ( 6) C  4
  198.  0.00007     2.38646  184.   RY ( 6) C 10
  199.  0.00007     2.39587  211.   RY ( 6) C 13
  200.  0.00006     2.31095  150.   RY ( 8) C  6
  201.  0.00006     2.25700  226.   RY ( 3) H 15
  202.  0.00006     2.25752  141.   RY ( 8) C  5
  203.  0.00005     2.26247  222.   RY ( 8) C 14
  204.  0.00005     2.27392  234.   RY ( 3) H 17
  205.  0.00005     2.44271  230.   RY ( 3) H 16
  206.  0.00005     2.44261  258.   RY ( 3) H 23
  207.  0.00005     2.28152  177.   RY ( 8) C  9
  208.  0.00005     2.40206  246.   RY ( 3) H 20
  209.  0.00004     0.62357   97.   RY ( 5)Br  1
  210.  0.00004     2.44413  250.   RY ( 3) H 21
  211.  0.00004     2.44436  254.   RY ( 3) H 22
  212.  0.00004     2.41400  122.   RY ( 7) C  3
  213.  0.00004     2.25596  235.   RY ( 4) H 17
  214.  0.00003     2.25618  227.   RY ( 4) H 15
  215.  0.00003     2.36497  194.   RY ( 7) C 11
  216.  0.00003     2.37233  203.   RY ( 7) C 12
  217.  0.00003     2.05448  255.   RY ( 4) H 22
  218.  0.00003     2.10981  247.   RY ( 4) H 20
  219.  0.00003     2.05545  251.   RY ( 4) H 21
  220.  0.00003     2.08986  231.   RY ( 4) H 16
  221.  0.00003     2.09207  259.   RY ( 4) H 23
  222.  0.00002     2.44273  131.   RY ( 7) C  4
  223.  0.00002     2.41530  158.   RY ( 7) C  7
  224.  0.00002     1.96765  159.   RY ( 8) C  7
  225.  0.00002     2.36310  166.   RY ( 6) C  8
  226.  0.00002     2.45505  212.   RY ( 7) C 13
  227.  0.00002     1.94705  123.   RY ( 8) C  3
  228.  0.00002     2.15079  167.   RY ( 7) C  8
  229.  0.00001     2.17776  168.   RY ( 8) C  8
  230.  0.00001     2.42864  185.   RY ( 7) C 10
  231.  0.00001     2.35480  239.   RY ( 4) H 18
  232.  0.00001     2.35480  243.   RY ( 4) H 19
  233.  0.00001     2.30493  142.   RY ( 9) C  5
  234.  0.00001     2.30652  223.   RY ( 9) C 14
  235.  0.00001     0.90464   98.   RY ( 6)Br  1
  236.  0.00001     1.96956  132.   RY ( 8) C  4
  237.  0.00001     1.04346   99.   RY ( 7)Br  1
  238.  0.00001     2.25799  115.   RY ( 9) C  2
  239.  0.00001     2.31136  133.   RY ( 9) C  4
  240.  0.00001     2.28798  151.   RY ( 9) C  6
  241.  0.00001     2.28834  160.   RY ( 9) C  7
  242.  0.00001     2.29873  178.   RY ( 9) C  9
  243.  0.00001     2.28586  124.   RY ( 9) C  3
  244.  0.00001     2.32575  186.   RY ( 8) C 10
  245.  0.00001     1.97445  213.   RY ( 8) C 13
  246.  0.00001     2.31240  214.   RY ( 9) C 13
  247.  0.00001     0.91831  100.   RY ( 8)Br  1
  248.  0.00001     2.29769  169.   RY ( 9) C  8
  249.  0.00001     2.30189  195.   RY ( 8) C 11
  250.  0.00001     2.30349  204.   RY ( 8) C 12
  251.  0.00000     0.95323  101.   RY ( 9)Br  1
  252.  0.00000     1.96018  187.   RY ( 9) C 10
  253.  0.00000     3.45252  102.   RY (10)Br  1
  254.  0.00000     3.52554  103.   RY (11)Br  1
  255.  0.00000     3.72106  104.   RY (12)Br  1
  256.  0.00000     3.58407  105.   RY (13)Br  1
  257.  0.00000     3.28163  106.   RY (14)Br  1
  258.  0.00000     1.93606  196.   RY ( 9) C 11
  259.  0.00000     1.93335  205.   RY ( 9) C 12

 NBO analysis completed in 1.55 CPU seconds (2 wall seconds)
 Maximum scratch memory used by NBO was 1089855 words (8.31 MB)
 Maximum scratch memory used by G16NBO was 110857 words (0.85 MB)

 Opening RunExU unformatted file "/home/rpaton/opt/dzvp/popn/Gau-983559.EUF"
 Read unf file /home/rpaton/opt/dzvp/popn/Gau-983559.EUF:
 Label Gaussian matrix elements                                         IVers= 2 NLab= 2 Version=ES64L-G16RevC.01
 Title arbr34_wb97xd_popncreated by GaussianPrep                       
 NAtoms=    23 NBasis=   259 NBsUse=   259 ICharg=     0 Multip=     1 NE=   122 Len12L=8 Len4L=8 IOpCl= 0 ICGU=111
 GAUSSIAN SCALARS                    NI= 1 NR= 1 NTot=       1 LenBuf=    2 NRI=1 N=    1000
 ALPHA ORBITAL ENERGIES              NI= 0 NR= 1 NTot=     259 LenBuf= 2048 NRI=1 N=     259
 ALPHA MO COEFFICIENTS               NI= 0 NR= 1 NTot=   67081 LenBuf= 2048 NRI=1 N=     259     259
 Store file  10524 Len=   67081.
 NPA CHARGES                         NI= 0 NR= 1 NTot=      23 LenBuf= 2048 NRI=1 N=      23
 Recovered energy= -3074.19976390     dipole=      0.755520234225     -0.139787487246      0.000002148366
 Unable to Open any file for archive entry.
 1\1\GINC-DYNAMO\SP\RwB97XD\def2SVP\C13H9Br1\RPATON\26-Sep-2024\0\\# po
 p=(nbo6read,savenbos,hirshfeld) wb97xd/def2svp\\arbr34_wb97xd_popncrea
 ted by GaussianPrep\\0,1\Br,0,3.832292,-0.112738,-0.000001\C,0,1.95557
 7,0.143382,0.000003\C,0,1.444482,1.443484,0.000001\C,0,0.065161,1.6452
 15,0.000001\C,0,-0.784325,0.540792,0.000001\C,0,-0.256555,-0.762172,0.
 000001\C,0,1.116555,-0.972986,0.000003\C,0,-1.37428,-1.777081,-0.00000
 2\C,0,-2.61136,-0.91072,0.000001\C,0,-3.950585,-1.283392,0.000002\C,0,
 -4.929868,-0.28716,-0.000001\C,0,-4.57173,1.063936,0.000001\C,0,-3.229
 545,1.442857,-0.000003\C,0,-2.252172,0.448808,-0.000002\H,0,2.126916,2
 .294546,-0.000001\H,0,-0.334429,2.661602,-0.000001\H,0,1.537161,-1.980
 207,0.000002\H,0,-1.330937,-2.432411,-0.885757\H,0,-1.330939,-2.432413
 ,0.88575\H,0,-4.236777,-2.338007,0.000001\H,0,-5.985756,-0.566295,-0.0
 00001\H,0,-5.350569,1.829566,0.000001\H,0,-2.953031,2.499653,-0.000001
 \\Version=ES64L-G16RevC.01\State=1-A\HF=-3074.1997639\RMSD=5.971e-09\D
 ipole=-0.7555202,-0.1397874,-0.0000021\Quadrupole=-0.3795878,6.1805381
 ,-5.8009503,0.7943826,-0.0000051,0.0000032\PG=C01 [X(C13H9Br1)]\\@
 The archive entry for this job was punched.


 IF I AM NOT FOR MYSELF, WHO WILL BE?
 BUT IF I AM ONLY FOR MYSELF, WHAT AM I?
 THOUGH A SEEKER SINCE MY BIRTH,
 HERE IS ALL I'VE LEARNED ON EARTH,
 THIS IS THE GIST OF WHAT I KNOW:
 GIVE ADVICE AND BUY A FOE.

 PRESSED FOR RULES AND VERITIES,
 ALL I RECOLLECT ARE THESE:
 FEED A COLD TO STARVE A FEVER,
 ARGUE WITH NO TRUE-BELIEVER.
 THINK-TOO-LONG IS NEVER-ACT,
 SCRATCH A MYTH AND FIND A FACT.

 STITCH IN TIME SAVES TWENTY STITCHES,
 GIVE THE RICH TO PLEASE THEM, RICHES.
 GIVE TO LOVE YOU HEARTH AND HALL,
 BUT DO NOT GIVE ADVICE AT ALL.

                                  -- HILLEL
 Job cpu time:       0 days  0 hours 10 minutes 11.0 seconds.
 Elapsed time:       0 days  0 hours  0 minutes 26.0 seconds.
 File lengths (MBytes):  RWF=     42 Int=      0 D2E=      0 Chk=      5 Scr=      1
 Normal termination of Gaussian 16 at Thu Sep 26 10:37:01 2024.
