 Entering Gaussian System, Link 0=/usr/local/Gaussian/G16C/g16/g16
 Input=arbr48_wb97xd_popn.com
 Output=arbr48_wb97xd_popn.log
 Initial command:
 /usr/local/Gaussian/G16C/g16/l1.exe "/home/rpaton/opt/dzvp/popn/Gau-1012966.inp" -scrdir="/home/rpaton/opt/dzvp/popn/"
 Entering Link 1 = /usr/local/Gaussian/G16C/g16/l1.exe PID=   1012967.
  
 Copyright (c) 1988-2019, Gaussian, Inc.  All Rights Reserved.
  
 This is part of the Gaussian(R) 16 program.  It is based on
 the Gaussian(R) 09 system (copyright 2009, Gaussian, Inc.),
 the Gaussian(R) 03 system (copyright 2003, Gaussian, Inc.),
 the Gaussian(R) 98 system (copyright 1998, Gaussian, Inc.),
 the Gaussian(R) 94 system (copyright 1995, Gaussian, Inc.),
 the Gaussian 92(TM) system (copyright 1992, Gaussian, Inc.),
 the Gaussian 90(TM) system (copyright 1990, Gaussian, Inc.),
 the Gaussian 88(TM) system (copyright 1988, Gaussian, Inc.),
 the Gaussian 86(TM) system (copyright 1986, Carnegie Mellon
 University), and the Gaussian 82(TM) system (copyright 1983,
 Carnegie Mellon University). Gaussian is a federally registered
 trademark of Gaussian, Inc.
  
 This software contains proprietary and confidential information,
 including trade secrets, belonging to Gaussian, Inc.
  
 This software is provided under written license and may be
 used, copied, transmitted, or stored only in accord with that
 written license.
  
 The following legend is applicable only to US Government
 contracts under FAR:
  
                    RESTRICTED RIGHTS LEGEND
  
 Use, reproduction and disclosure by the US Government is
 subject to restrictions as set forth in subparagraphs (a)
 and (c) of the Commercial Computer Software - Restricted
 Rights clause in FAR 52.227-19.
  
 Gaussian, Inc.
 340 Quinnipiac St., Bldg. 40, Wallingford CT 06492
  
  
 ---------------------------------------------------------------
 Warning -- This program may not be used in any manner that
 competes with the business of Gaussian, Inc. or will provide
 assistance to any competitor of Gaussian, Inc.  The licensee
 of this program is prohibited from giving any competitor of
 Gaussian, Inc. access to this program.  By using this program,
 the user acknowledges that Gaussian, Inc. is engaged in the
 business of creating and licensing software in the field of
 computational chemistry and represents and warrants to the
 licensee that it is not a competitor of Gaussian, Inc. and that
 it will not use this program in any manner prohibited above.
 ---------------------------------------------------------------
  

 Cite this work as:
 Gaussian 16, Revision C.01,
 M. J. Frisch, G. W. Trucks, H. B. Schlegel, G. E. Scuseria, 
 M. A. Robb, J. R. Cheeseman, G. Scalmani, V. Barone, 
 G. A. Petersson, H. Nakatsuji, X. Li, M. Caricato, A. V. Marenich, 
 J. Bloino, B. G. Janesko, R. Gomperts, B. Mennucci, H. P. Hratchian, 
 J. V. Ortiz, A. F. Izmaylov, J. L. Sonnenberg, D. Williams-Young, 
 F. Ding, F. Lipparini, F. Egidi, J. Goings, B. Peng, A. Petrone, 
 T. Henderson, D. Ranasinghe, V. G. Zakrzewski, J. Gao, N. Rega, 
 G. Zheng, W. Liang, M. Hada, M. Ehara, K. Toyota, R. Fukuda, 
 J. Hasegawa, M. Ishida, T. Nakajima, Y. Honda, O. Kitao, H. Nakai, 
 T. Vreven, K. Throssell, J. A. Montgomery, Jr., J. E. Peralta, 
 F. Ogliaro, M. J. Bearpark, J. J. Heyd, E. N. Brothers, K. N. Kudin, 
 V. N. Staroverov, T. A. Keith, R. Kobayashi, J. Normand, 
 K. Raghavachari, A. P. Rendell, J. C. Burant, S. S. Iyengar, 
 J. Tomasi, M. Cossi, J. M. Millam, M. Klene, C. Adamo, R. Cammi, 
 J. W. Ochterski, R. L. Martin, K. Morokuma, O. Farkas, 
 J. B. Foresman, and D. J. Fox, Gaussian, Inc., Wallingford CT, 2019.
 
 ******************************************
 Gaussian 16:  ES64L-G16RevC.01  3-Jul-2019
                26-Sep-2024 
 ******************************************
 %chk=arbr48_wb97xd_popn.chk
 %mem=48GB
 %nprocshared=24
 Will use up to   24 processors via shared memory.
 --------------------------------------------------
 # pop=(nbo6read,savenbos,hirshfeld) wb97xd/def2svp
 --------------------------------------------------
 1/38=1,163=2,172=1/1;
 2/12=2,17=6,18=5,40=1/2;
 3/5=43,7=101,11=2,25=1,30=1,74=-58/1,2,3;
 4//1;
 5/5=2,38=5/2;
 6/7=2,8=2,9=2,10=2,28=1,40=2,73=1,79=1,113=1,114=1,124=2103,126=1/1,12;
 99/5=1,9=1/99;
 -----------------------------------------
 arbr48_wb97xd_popncreated by GaussianPrep
 -----------------------------------------
 Symbolic Z-matrix:
 Charge =  0 Multiplicity = 1
 Br                    3.50483  -0.905     0.01607 
 C                     1.8366   -0.00944  -0.00623 
 C                     0.66234  -0.75997  -0.00386 
 C                    -0.58084  -0.11749  -0.01391 
 I                    -2.36571  -1.21378  -0.00282 
 C                    -0.60777   1.27295  -0.02633 
 C                     0.57581   2.01768  -0.03276 
 C                     1.80972   1.38977  -0.02582 
 C                     0.18805   3.4729   -0.11296 
 C                    -1.32438   3.39465   0.17269 
 O                    -1.71555   2.0329   -0.04073 
 H                     0.71262  -1.84932   0.01116 
 H                     2.73826   1.96257  -0.03663 
 H                     0.71526   4.10482   0.6153 
 H                     0.39757   3.8742   -1.11778 
 H                    -1.93321   4.02877  -0.4841 
 H                    -1.54968   3.65456   1.22014 
 
                          Input orientation:                          
 ---------------------------------------------------------------------
 Center     Atomic      Atomic             Coordinates (Angstroms)
 Number     Number       Type             X           Y           Z
 ---------------------------------------------------------------------
      1         35           0        3.504829   -0.904999    0.016071
      2          6           0        1.836599   -0.009438   -0.006232
      3          6           0        0.662336   -0.759965   -0.003862
      4          6           0       -0.580843   -0.117488   -0.013911
      5         53           0       -2.365710   -1.213777   -0.002823
      6          6           0       -0.607771    1.272953   -0.026330
      7          6           0        0.575812    2.017683   -0.032756
      8          6           0        1.809722    1.389774   -0.025824
      9          6           0        0.188045    3.472896   -0.112959
     10          6           0       -1.324375    3.394647    0.172693
     11          8           0       -1.715548    2.032900   -0.040732
     12          1           0        0.712622   -1.849315    0.011161
     13          1           0        2.738256    1.962565   -0.036630
     14          1           0        0.715264    4.104821    0.615304
     15          1           0        0.397570    3.874198   -1.117780
     16          1           0       -1.933212    4.028771   -0.484097
     17          1           0       -1.549675    3.654561    1.220142
 ---------------------------------------------------------------------
                    Distance matrix (angstroms):
                    1          2          3          4          5
     1  Br   0.000000
     2  C    1.893546   0.000000
     3  C    2.846260   1.393625   0.000000
     4  C    4.160984   2.419868   1.399418   0.000000
     5  I    5.878684   4.371481   3.061864   2.094689   0.000000
     6  C    4.653896   2.760412   2.397172   1.390757   3.045444
     7  C    4.138067   2.387364   2.779145   2.428407   4.369872
     8  C    2.853266   1.399607   2.436874   2.826089   4.920695
     9  C    5.493967   3.854318   4.260747   3.673126   5.338417
    10  C    6.467820   4.648824   4.608578   3.594823   4.727870
    11  O    5.990560   4.097570   3.668213   2.431552   3.311353
    12  H    2.947571   2.156102   1.090613   2.161690   3.143284
    13  H    2.968726   2.168572   3.423841   3.917085   6.011719
    14  H    5.765332   4.309388   4.904316   4.461356   6.177537
    15  H    5.812177   4.288236   4.773508   4.255511   5.896298
    16  H    7.359657   5.544994   5.468042   4.386507   5.282328
    17  H    6.912842   5.137678   5.087162   4.085324   5.085496
                    6          7          8          9         10
     6  C    0.000000
     7  C    1.398404   0.000000
     8  C    2.420314   1.384504   0.000000
     9  C    2.341063   1.508125   2.641368   0.000000
    10  C    2.248270   2.355621   3.725787   1.541147   0.000000
    11  O    1.343464   2.291424   3.583485   2.387985   1.432802
    12  H    3.390192   3.869667   3.420043   5.349441   5.628018
    13  H    3.416368   2.163150   1.091046   2.964878   4.312731
    14  H    3.190861   2.189880   2.996725   1.098934   2.204627
    15  H    2.994737   2.157706   3.059233   1.102093   2.204628
    16  H    3.092067   3.247058   4.602594   2.224066   1.097346
    17  H    2.848321   2.960881   4.238778   2.197688   1.102481
                   11         12         13         14         15
    11  O    0.000000
    12  H    4.579334   0.000000
    13  H    4.454361   4.316933   0.000000
    14  H    3.260688   5.984708   3.017743   0.000000
    15  H    3.002612   5.842291   3.209679   1.776991   0.000000
    16  H    2.056077   6.465107   5.127577   2.868604   2.420329
    17  H    2.060850   6.072254   4.777937   2.387156   3.050555
                   16         17
    16  H    0.000000
    17  H    1.786495   0.000000
 Stoichiometry    C8H6BrIO
 Framework group  C1[X(C8H6BrIO)]
 Deg. of freedom    45
 Full point group                 C1      NOp   1
 Largest Abelian subgroup         C1      NOp   1
 Largest concise Abelian subgroup C1      NOp   1
                         Standard orientation:                         
 ---------------------------------------------------------------------
 Center     Atomic      Atomic             Coordinates (Angstroms)
 Number     Number       Type             X           Y           Z
 ---------------------------------------------------------------------
      1         35           0        3.504829   -0.904999    0.016071
      2          6           0        1.836599   -0.009438   -0.006232
      3          6           0        0.662336   -0.759965   -0.003862
      4          6           0       -0.580843   -0.117488   -0.013911
      5         53           0       -2.365710   -1.213777   -0.002823
      6          6           0       -0.607771    1.272953   -0.026330
      7          6           0        0.575812    2.017683   -0.032756
      8          6           0        1.809722    1.389774   -0.025824
      9          6           0        0.188045    3.472896   -0.112959
     10          6           0       -1.324375    3.394647    0.172693
     11          8           0       -1.715548    2.032900   -0.040732
     12          1           0        0.712622   -1.849315    0.011161
     13          1           0        2.738256    1.962565   -0.036630
     14          1           0        0.715264    4.104821    0.615304
     15          1           0        0.397570    3.874198   -1.117780
     16          1           0       -1.933212    4.028771   -0.484097
     17          1           0       -1.549675    3.654561    1.220142
 ---------------------------------------------------------------------
 Rotational constants (GHZ):           0.6614666           0.2710584           0.1928517
 Standard basis: def2SVP (5D, 7F)
 There are   228 symmetry adapted cartesian basis functions of A   symmetry.
 There are   214 symmetry adapted basis functions of A   symmetry.
   214 basis functions,   414 primitive gaussians,   228 cartesian basis functions
    61 alpha electrons       61 beta electrons
       nuclear repulsion energy       999.2340677284 Hartrees.
 NAtoms=   17 NActive=   17 NUniq=   17 SFac= 1.00D+00 NAtFMM=   60 NAOKFM=F Big=F
 Integral buffers will be    131072 words long.
 Raffenetti 2 integral format.
 Two-electron integral symmetry is turned on.
 Nuclear repulsion after empirical dispersion term =      999.2234077179 Hartrees.
 One-electron integrals computed using PRISM.
   1 Symmetry operations used in ECPInt.
 ECPInt:  NShTT=    4465 NPrTT=   18543 LenC2=    4271 LenP2D=   13044.
 LDataN:  DoStor=T MaxTD1= 6 Len=  172
 NBasis=   214 RedAO= T EigKep=  2.19D-04  NBF=   214
 NBsUse=   214 1.00D-06 EigRej= -1.00D+00 NBFU=   214
 Defaulting to unpruned grid for atomic number  53.
 ExpMin= 1.11D-01 ExpMax= 1.13D+05 ExpMxC= 1.70D+04 IAcc=3 IRadAn=         5 AccDes= 0.00D+00
 Harris functional with IExCor= 4639 and IRadAn=       5 diagonalized for initial guess.
 HarFok:  IExCor= 4639 AccDes= 0.00D+00 IRadAn=         5 IDoV= 1 UseB2=F ITyADJ=14
 ICtDFT=  3500011 ScaDFX=  1.000000  1.000000  1.000000  1.000000
 Defaulting to unpruned grid for atomic number  53.
 FoFCou: FMM=F IPFlag=           0 FMFlag=      100000 FMFlg1=           0
         NFxFlg=           0 DoJE=T BraDBF=F KetDBF=T FulRan=T
         wScrn=  0.000000 ICntrl=       500 IOpCl=  0 I1Cent=   200000004 NGrid=           0
         NMat0=    1 NMatS0=      1 NMatT0=    0 NMatD0=    1 NMtDS0=    0 NMtDT0=    0
 Petite list used in FoFCou.
 Requested convergence on RMS density matrix=1.00D-08 within 128 cycles.
 Requested convergence on MAX density matrix=1.00D-06.
 Requested convergence on             energy=1.00D-06.
 No special actions if energy rises.
 Integral accuracy reduced to 1.0D-05 until final iterations.
 Defaulting to unpruned grid for atomic number  53.
 Defaulting to unpruned grid for atomic number  53.
 Defaulting to unpruned grid for atomic number  53.
 Defaulting to unpruned grid for atomic number  53.
 Defaulting to unpruned grid for atomic number  53.
 Defaulting to unpruned grid for atomic number  53.
 Defaulting to unpruned grid for atomic number  53.
 Defaulting to unpruned grid for atomic number  53.
 Defaulting to unpruned grid for atomic number  53.
 Defaulting to unpruned grid for atomic number  53.
 Defaulting to unpruned grid for atomic number  53.
 Defaulting to unpruned grid for atomic number  53.
 Defaulting to unpruned grid for atomic number  53.
 Defaulting to unpruned grid for atomic number  53.
 Defaulting to unpruned grid for atomic number  53.
 Defaulting to unpruned grid for atomic number  53.
 Defaulting to unpruned grid for atomic number  53.
 Defaulting to unpruned grid for atomic number  53.
 Defaulting to unpruned grid for atomic number  53.
 Defaulting to unpruned grid for atomic number  53.
 Defaulting to unpruned grid for atomic number  53.
 Defaulting to unpruned grid for atomic number  53.
 Defaulting to unpruned grid for atomic number  53.
 Defaulting to unpruned grid for atomic number  53.
 Initial convergence to 1.0D-05 achieved.  Increase integral accuracy.
 SCF Done:  E(RwB97XD) =  -3254.95360483     A.U. after   17 cycles
            NFock= 17  Conv=0.77D-08     -V/T= 2.0623

 **********************************************************************

            Population analysis using the SCF Density.

 **********************************************************************

 Orbital symmetries:
       Occupied  (A) (A) (A) (A) (A) (A) (A) (A) (A) (A) (A) (A)
                 (A) (A) (A) (A) (A) (A) (A) (A) (A) (A) (A) (A)
                 (A) (A) (A) (A) (A) (A) (A) (A) (A) (A) (A) (A)
                 (A) (A) (A) (A) (A) (A) (A) (A) (A) (A) (A) (A)
                 (A) (A) (A) (A) (A) (A) (A) (A) (A) (A) (A) (A)
                 (A)
       Virtual   (A) (A) (A) (A) (A) (A) (A) (A) (A) (A) (A) (A)
                 (A) (A) (A) (A) (A) (A) (A) (A) (A) (A) (A) (A)
                 (A) (A) (A) (A) (A) (A) (A) (A) (A) (A) (A) (A)
                 (A) (A) (A) (A) (A) (A) (A) (A) (A) (A) (A) (A)
                 (A) (A) (A) (A) (A) (A) (A) (A) (A) (A) (A) (A)
                 (A) (A) (A) (A) (A) (A) (A) (A) (A) (A) (A) (A)
                 (A) (A) (A) (A) (A) (A) (A) (A) (A) (A) (A) (A)
                 (A) (A) (A) (A) (A) (A) (A) (A) (A) (A) (A) (A)
                 (A) (A) (A) (A) (A) (A) (A) (A) (A) (A) (A) (A)
                 (A) (A) (A) (A) (A) (A) (A) (A) (A) (A) (A) (A)
                 (A) (A) (A) (A) (A) (A) (A) (A) (A) (A) (A) (A)
                 (A) (A) (A) (A) (A) (A) (A) (A) (A) (A) (A) (A)
                 (A) (A) (A) (A) (A) (A) (A) (A) (A)
 The electronic state is 1-A.
 Alpha  occ. eigenvalues -- -483.06154 -62.64361 -56.45137 -56.44768 -56.44764
 Alpha  occ. eigenvalues --  -19.30182 -10.37661 -10.37147 -10.36013 -10.35490
 Alpha  occ. eigenvalues --  -10.32966 -10.32923 -10.32798 -10.32591  -8.81315
 Alpha  occ. eigenvalues --   -6.96298  -6.63884  -6.62531  -6.62526  -4.98641
 Alpha  occ. eigenvalues --   -4.96984  -4.96953  -2.74255  -2.73858  -2.73856
 Alpha  occ. eigenvalues --   -2.72777  -2.72776  -2.02030  -2.01500  -2.01484
 Alpha  occ. eigenvalues --   -2.00070  -2.00070  -1.19069  -0.98438  -0.91415
 Alpha  occ. eigenvalues --   -0.90984  -0.85074  -0.83203  -0.79085  -0.73867
 Alpha  occ. eigenvalues --   -0.70382  -0.68520  -0.61732  -0.61089  -0.59392
 Alpha  occ. eigenvalues --   -0.56079  -0.52218  -0.51212  -0.50491  -0.50153
 Alpha  occ. eigenvalues --   -0.49470  -0.46551  -0.44948  -0.44070  -0.42352
 Alpha  occ. eigenvalues --   -0.39173  -0.37269  -0.36737  -0.33949  -0.32215
 Alpha  occ. eigenvalues --   -0.29587
 Alpha virt. eigenvalues --    0.03308   0.03767   0.05375   0.09036   0.13262
 Alpha virt. eigenvalues --    0.16009   0.17075   0.18582   0.19785   0.20639
 Alpha virt. eigenvalues --    0.21977   0.24475   0.25536   0.27608   0.30329
 Alpha virt. eigenvalues --    0.32036   0.33152   0.35265   0.37182   0.38830
 Alpha virt. eigenvalues --    0.39966   0.41662   0.43852   0.45666   0.46734
 Alpha virt. eigenvalues --    0.47282   0.48133   0.49057   0.49434   0.50097
 Alpha virt. eigenvalues --    0.50780   0.51481   0.52933   0.54723   0.56641
 Alpha virt. eigenvalues --    0.57348   0.58135   0.58502   0.58986   0.60024
 Alpha virt. eigenvalues --    0.61477   0.62950   0.65237   0.65877   0.66546
 Alpha virt. eigenvalues --    0.68650   0.69268   0.70328   0.71274   0.71520
 Alpha virt. eigenvalues --    0.72958   0.73522   0.73845   0.75112   0.76105
 Alpha virt. eigenvalues --    0.76610   0.77586   0.78698   0.81293   0.81651
 Alpha virt. eigenvalues --    0.82140   0.84629   0.86940   0.88423   0.91215
 Alpha virt. eigenvalues --    0.93380   0.98195   0.99390   1.04713   1.08315
 Alpha virt. eigenvalues --    1.09817   1.11365   1.14648   1.17303   1.22396
 Alpha virt. eigenvalues --    1.26702   1.29695   1.32511   1.34209   1.35059
 Alpha virt. eigenvalues --    1.37398   1.41147   1.46489   1.48494   1.53035
 Alpha virt. eigenvalues --    1.58878   1.60276   1.61440   1.65508   1.71472
 Alpha virt. eigenvalues --    1.74442   1.76983   1.78601   1.80896   1.81947
 Alpha virt. eigenvalues --    1.83513   1.84611   1.85136   1.86171   1.89231
 Alpha virt. eigenvalues --    1.89914   1.91049   1.94341   1.95192   1.99178
 Alpha virt. eigenvalues --    2.01034   2.04542   2.06679   2.08983   2.09968
 Alpha virt. eigenvalues --    2.16098   2.18433   2.19024   2.22730   2.28091
 Alpha virt. eigenvalues --    2.32824   2.33857   2.34616   2.37980   2.38334
 Alpha virt. eigenvalues --    2.43652   2.45044   2.48264   2.53149   2.59893
 Alpha virt. eigenvalues --    2.64335   2.68086   2.70298   2.73688   2.78745
 Alpha virt. eigenvalues --    2.80538   2.88159   2.93261   2.94486   2.95852
 Alpha virt. eigenvalues --    3.01180   3.03452   3.08096   3.11069   3.15987
 Alpha virt. eigenvalues --    3.23721   3.37988   3.48535   3.52476   3.56262
 Alpha virt. eigenvalues --    3.60375   3.70371   3.72806   3.92395  18.77698
 Alpha virt. eigenvalues --   18.97392  19.47168  56.59212
          Condensed to atoms (all electrons):
               1          2          3          4          5          6
     1  Br  34.933460   0.221310  -0.060326   0.004216  -0.000155   0.000800
     2  C    0.221310   5.231289   0.367540   0.067515   0.003997  -0.133945
     3  C   -0.060326   0.367540   4.918232   0.385287  -0.065043   0.052766
     4  C    0.004216   0.067515   0.385287   5.462418   0.242680   0.280832
     5  I   -0.000155   0.003997  -0.065043   0.242680  24.769506  -0.056641
     6  C    0.000800  -0.133945   0.052766   0.280832  -0.056641   4.912565
     7  C    0.004085   0.074556  -0.104368  -0.001728   0.004969   0.394961
     8  C   -0.060424   0.318542   0.052785  -0.119484   0.000469   0.067766
     9  C   -0.000107   0.012973  -0.002133   0.022932  -0.000376  -0.116985
    10  C    0.000002  -0.000793   0.000132   0.006092   0.000137  -0.063699
    11  O    0.000000   0.000225   0.001789  -0.071141   0.005217   0.405801
    12  H   -0.000597  -0.051740   0.429206  -0.048550  -0.002742   0.013179
    13  H    0.000028  -0.058386   0.012270  -0.001765   0.000026   0.012710
    14  H   -0.000001  -0.000307   0.000145  -0.000822   0.000008   0.006577
    15  H   -0.000000  -0.000037   0.000041  -0.000290   0.000012   0.000214
    16  H   -0.000000   0.000003   0.000030  -0.000464  -0.000007   0.003843
    17  H   -0.000000   0.000021  -0.000068   0.000821  -0.000001   0.005449
               7          8          9         10         11         12
     1  Br   0.004085  -0.060424  -0.000107   0.000002   0.000000  -0.000597
     2  C    0.074556   0.318542   0.012973  -0.000793   0.000225  -0.051740
     3  C   -0.104368   0.052785  -0.002133   0.000132   0.001789   0.429206
     4  C   -0.001728  -0.119484   0.022932   0.006092  -0.071141  -0.048550
     5  I    0.004969   0.000469  -0.000376   0.000137   0.005217  -0.002742
     6  C    0.394961   0.067766  -0.116985  -0.063699   0.405801   0.013179
     7  C    5.290593   0.340093   0.354932  -0.074199  -0.078053  -0.000996
     8  C    0.340093   5.034449  -0.070820   0.011948   0.005764   0.011486
     9  C    0.354932  -0.070820   4.749229   0.419729  -0.053656   0.000004
    10  C   -0.074199   0.011948   0.419729   4.447489   0.302707   0.000008
    11  O   -0.078053   0.005764  -0.053656   0.302707   7.859230  -0.000053
    12  H   -0.000996   0.011486   0.000004   0.000008  -0.000053   0.618292
    13  H   -0.052016   0.439301  -0.013675   0.000098  -0.000088  -0.000206
    14  H   -0.000798  -0.002384   0.353802  -0.010208   0.003048  -0.000000
    15  H   -0.013191  -0.004551   0.362008  -0.009777   0.002350  -0.000000
    16  H    0.005257  -0.000158  -0.018078   0.392275  -0.021721  -0.000000
    17  H   -0.003297  -0.000483  -0.018569   0.385896  -0.033362  -0.000000
              13         14         15         16         17
     1  Br   0.000028  -0.000001  -0.000000  -0.000000  -0.000000
     2  C   -0.058386  -0.000307  -0.000037   0.000003   0.000021
     3  C    0.012270   0.000145   0.000041   0.000030  -0.000068
     4  C   -0.001765  -0.000822  -0.000290  -0.000464   0.000821
     5  I    0.000026   0.000008   0.000012  -0.000007  -0.000001
     6  C    0.012710   0.006577   0.000214   0.003843   0.005449
     7  C   -0.052016  -0.000798  -0.013191   0.005257  -0.003297
     8  C    0.439301  -0.002384  -0.004551  -0.000158  -0.000483
     9  C   -0.013675   0.353802   0.362008  -0.018078  -0.018569
    10  C    0.000098  -0.010208  -0.009777   0.392275   0.385896
    11  O   -0.000088   0.003048   0.002350  -0.021721  -0.033362
    12  H   -0.000206  -0.000000  -0.000000  -0.000000  -0.000000
    13  H    0.640806   0.002089   0.000834   0.000002  -0.000018
    14  H    0.002089   0.622769  -0.021593   0.003705  -0.012527
    15  H    0.000834  -0.021593   0.622874  -0.012926   0.006549
    16  H    0.000002   0.003705  -0.012926   0.626706  -0.032524
    17  H   -0.000018  -0.012527   0.006549  -0.032524   0.648515
 Mulliken charges:
               1
     1  Br  -0.042291
     2  C   -0.052763
     3  C    0.011714
     4  C   -0.228549
     5  I    0.097945
     6  C    0.213806
     7  C   -0.140800
     8  C   -0.024299
     9  C    0.018791
    10  C    0.192161
    11  O   -0.328056
    12  H    0.032709
    13  H    0.017992
    14  H    0.056497
    15  H    0.067486
    16  H    0.054057
    17  H    0.053600
 Sum of Mulliken charges =  -0.00000
 Mulliken charges with hydrogens summed into heavy atoms:
               1
     1  Br  -0.042291
     2  C   -0.052763
     3  C    0.044423
     4  C   -0.228549
     5  I    0.097945
     6  C    0.213806
     7  C   -0.140800
     8  C   -0.006307
     9  C    0.142774
    10  C    0.299818
    11  O   -0.328056
 Electronic spatial extent (au):  <R**2>=           3882.8351
 Charge=              0.0000 electrons
 Dipole moment (field-independent basis, Debye):
    X=              0.0678    Y=              3.2931    Z=              0.1208  Tot=              3.2960
 Quadrupole moment (field-independent basis, Debye-Ang):
   XX=            -99.2485   YY=            -80.4010   ZZ=            -98.4221
   XY=              1.7588   XZ=             -0.3549   YZ=              0.3084
 Traceless Quadrupole moment (field-independent basis, Debye-Ang):
   XX=             -6.5579   YY=             12.2895   ZZ=             -5.7316
   XY=              1.7588   XZ=             -0.3549   YZ=              0.3084
 Octapole moment (field-independent basis, Debye-Ang**2):
  XXX=            -24.7927  YYY=            -28.4784  ZZZ=              0.4580  XYY=            -12.9521
  XXY=            -30.9149  XXZ=              0.5594  XZZ=             -8.2737  YZZ=            -23.0172
  YYZ=              1.1249  XYZ=             -0.6716
 Hexadecapole moment (field-independent basis, Debye-Ang**3):
 XXXX=          -2724.9042 YYYY=          -1603.2703 ZZZZ=           -128.4013 XXXY=             64.8979
 XXXZ=              2.5348 YYYX=             -2.5140 YYYZ=              2.0231 ZZZX=              1.0404
 ZZZY=             -0.1400 XXYY=           -712.1500 XXZZ=           -501.6485 YYZZ=           -314.6893
 XXYZ=             -0.2677 YYXZ=              0.9150 ZZXY=              4.4868
 N-N= 9.992234077179D+02 E-N=-9.672111740431D+03  KE= 3.064108533495D+03
 StAtR1:  DoIntr=F IAtCor=3 NETot=     122 Failed=F Sum=  2.80D+01 SumC=  0.00D+00
 There are a total of      412812 grid points.
 ElSum from          density=      121.9999908764
 ElSum from atomic densities=      149.9999153835

 Hirshfeld populations at iteration   1 (CX, CA, CB, DipXYZ):
               1          2          3          4          5          6
     1  Br   0.000000  17.522249  17.522249  -0.028841   0.008433  -0.000477
     2  C    0.000000   3.002388   3.002388   0.062954  -0.030318   0.001026
     3  C    0.000000   3.024329   3.024329  -0.000497  -0.039206  -0.000106
     4  C    0.000000   3.011584   3.011584  -0.062179  -0.033271  -0.002640
     5  I    0.000000  12.506666  12.506666  -0.054792  -0.014067  -0.000818
     6  C    0.000000   2.965809   2.965809  -0.093237   0.061058  -0.004201
     7  C    0.000000   3.008638   3.008638   0.011617   0.070526  -0.004439
     8  C    0.000000   3.022448   3.022448   0.039188   0.048764  -0.003637
     9  C    0.000000   3.022501   3.022501  -0.004954   0.017653   0.001321
    10  C    0.000000   2.975523   2.975523  -0.014439  -0.037271  -0.017693
    11  O    0.000000   4.072380   4.072380   0.143962   0.074598   0.021231
    12  H    0.000000   0.476717   0.476717   0.008424  -0.157085   0.001987
    13  H    0.000000   0.475625   0.475625   0.126434   0.099658  -0.002537
    14  H    0.000000   0.477797   0.477797   0.073272   0.093198   0.099077
    15  H    0.000000   0.479223   0.479223   0.028098   0.060659  -0.136961
    16  H    0.000000   0.476148   0.476148  -0.084457   0.095448  -0.089093
    17  H    0.000000   0.479972   0.479972  -0.031240   0.045200   0.138991
       Tot   0.000000  60.999995  60.999995   0.119313   0.363978   0.001031

 Dip from Atomic Chgs             -0.092613   0.931659   0.046508
         Total Dipole              0.026701   1.295637   0.047539

 Hirshfeld charges, spin densities, dipoles, and CM5 charges using IRadAn=      5:
              Q-H        S-H        Dx         Dy         Dz        Q-CM5   
     1  Br  -0.044498   0.000000  -0.028841   0.008433  -0.000477  -0.029463
     2  C   -0.004775   0.000000   0.062954  -0.030318   0.001026  -0.025799
     3  C   -0.048658   0.000000  -0.000497  -0.039206  -0.000106  -0.099929
     4  C   -0.023169   0.000000  -0.062179  -0.033271  -0.002640  -0.048402
     5  I   -0.013333   0.000000  -0.054792  -0.014067  -0.000818   0.016272
     6  C    0.068382   0.000000  -0.093237   0.061058  -0.004201   0.090429
     7  C   -0.017276   0.000000   0.011617   0.070526  -0.004439  -0.025552
     8  C   -0.044896   0.000000   0.039188   0.048764  -0.003637  -0.094760
     9  C   -0.045003   0.000000  -0.004954   0.017653   0.001321  -0.142567
    10  C    0.048955   0.000000  -0.014439  -0.037271  -0.017693  -0.029351
    11  O   -0.144760   0.000000   0.143962   0.074598   0.021231  -0.224577
    12  H    0.046567   0.000000   0.008424  -0.157085   0.001987   0.103185
    13  H    0.048750   0.000000   0.126434   0.099658  -0.002537   0.104879
    14  H    0.044406   0.000000   0.073272   0.093198   0.099077   0.098601
    15  H    0.041554   0.000000   0.028098   0.060659  -0.136961   0.096264
    16  H    0.047705   0.000000  -0.084457   0.095448  -0.089093   0.109203
    17  H    0.040057   0.000000  -0.031240   0.045200   0.138991   0.101576
       Tot   0.000009   0.000000   0.119313   0.363978   0.001031   0.000009
 Hirshfeld charges with hydrogens summed into heavy atoms:
              Q-H       Q-CM5   
     1  Br  -0.044498  -0.029463
     2  C   -0.004775  -0.025799
     3  C   -0.002091   0.003256
     4  C   -0.023169  -0.048402
     5  I   -0.013333   0.016272
     6  C    0.068382   0.090429
     7  C   -0.017276  -0.025552
     8  C    0.003854   0.010119
     9  C    0.040958   0.052298
    10  C    0.136716   0.181429
    11  O   -0.144760  -0.224577
 
 EQQ= 0.000000000000E+00 EQD= 0.000000000000E+00 EDD= 0.184528483589E-02
 EQQ+QD+DD= 0.184528483589E-02
 
 Running external command "gaunbo6 R"
         input file       "/home/rpaton/opt/dzvp/popn/Gau-1012967.EIn"
         output file      "/home/rpaton/opt/dzvp/popn/Gau-1012967.EOu"
         message file     "/home/rpaton/opt/dzvp/popn/Gau-1012967.EMs"
         fchk file        "/home/rpaton/opt/dzvp/popn/Gau-1012967.EFC"
         mat. el file     "/home/rpaton/opt/dzvp/popn/Gau-1012967.EUF"

 Writing WrtUnf unformatted file "/home/rpaton/opt/dzvp/popn/Gau-1012967.EUF"
 Gaussian matrix elements                                         Version   2 NLab=11 Len12L=8 Len4L=8
 Write SHELL TO ATOM MAP                   from file      0 offset           0 length                  94 to matrix element file.
 Write SHELL TYPES                         from file      0 offset           0 length                  94 to matrix element file.
 Write NUMBER OF PRIMITIVES PER SHELL      from file      0 offset           0 length                  94 to matrix element file.
 Write PRIMITIVE EXPONENTS                 from file      0 offset           0 length                 191 to matrix element file.
 Write CONTRACTION COEFFICIENTS            from file      0 offset           0 length                 191 to matrix element file.
 Write P(S=P) CONTRACTION COEFFICIENTS     from file      0 offset           0 length                 191 to matrix element file.
 Write COORDINATES OF EACH SHELL           from file      0 offset           0 length                 282 to matrix element file.
 Write BONDS PER ATOM                      from file      0 offset           0 length                  17 to matrix element file.
 Write BONDED ATOMS                        from file      0 offset           0 length                  36 to matrix element file.
 Write BOND TYPES                          from file      0 offset           0 length                  36 to matrix element file.
 Write ONIOM CHARGE/MULT                   from file      0 offset           0 length                  32 to matrix element file.
 Write ONIOM ATOM LAYERS                   from file      0 offset           0 length                  17 to matrix element file.
 Write ONIOM ATOM MODIFIERS                from file      0 offset           0 length                  17 to matrix element file.
 Write ONIOM ATOM TYPES                    from file      0 offset           0 length                  17 to matrix element file.
 Write ONIOM LINK ATOMS                    from file      0 offset           0 length                  17 to matrix element file.
 Write ONIOM LINK CHARGES                  from file      0 offset           0 length                  17 to matrix element file.
 Write ONIOM LINK DISTANCES                from file      0 offset           0 length                  68 to matrix element file.
 Write SYMINF INTS                         from file      0 offset           0 length                  26 to matrix element file.
 Write ROTTR TO SO                         from file      0 offset           0 length                  12 to matrix element file.
 Write GAUSSIAN SCALARS                    from file    501 offset           0 to matrix element file.
 Write OPTIMIZATION FLAGS                  from file      0 offset           0 length                  17 to matrix element file.
 Write INTEGER ISO                         from file      0 offset           0 length                  17 to matrix element file.
 Write INTEGER SPIN                        from file      0 offset           0 length                  17 to matrix element file.
 Write REAL ZEFFECTIVE                     from file      0 offset           0 length                  17 to matrix element file.
 Write REAL QUADRUPOLEMOMENT               from file      0 offset           0 length                  17 to matrix element file.
 Write REAL GFACTOR                        from file      0 offset           0 length                  17 to matrix element file.
 Write REAL ZNUCLEAR                       from file      0 offset           0 length                  17 to matrix element file.
 Write MULLIKEN CHARGES                    from file      0 offset           0 length                  17 to matrix element file.
 Write TYPE 6 CHARGES                      from file      0 offset           0 length                  17 to matrix element file.
 Write TYPE 7 CHARGES                      from file      0 offset           0 length                  17 to matrix element file.
 Write NUCLEAR GRADIENT                    from file  10584 offset           0 length                  51 to matrix element file.
 Array NUCLEAR FORCE CONSTANTS              on  file  10585 does not exist.
 Write ELECTRIC DIPOLE MOMENT              from file      0 offset           0 length                   3 to matrix element file.
 Write NON-ADIABATIC COUPLING              from file  10810 offset           0 length                  51 to matrix element file.
 Write FINITE EM FIELD                     from file  10521 offset           0 length                  35 to matrix element file.
 Write OVERLAP                             from file  10514 offset           0 length               23005 to matrix element file.
 Write CORE HAMILTONIAN ALPHA              from file  10515 offset           0 length               23005 to matrix element file.
 Write CORE HAMILTONIAN BETA               from file  10515 offset       23005 length               23005 to matrix element file.
 Write KINETIC ENERGY                      from file  10516 offset           0 length               23005 to matrix element file.
 Write ORTHOGONAL BASIS                    from file  10685 offset           0 length               45796 to matrix element file.
 Write DIPOLE INTEGRALS                    from file  10518 offset           0 length               69015 to matrix element file.
 Array DIP VEL INTEGRALS                    on  file  10572 does not exist.
 Array R X DEL INTEGRALS                    on  file  10572 does not exist.
 Write ALPHA ORBITAL ENERGIES              from file      0 offset           0 length                 214 to matrix element file.
 Write ALPHA MO COEFFICIENTS               from file  10524 offset           0 length               45796 to matrix element file.
 Write ALPHA DENSITY MATRIX                from file      0 offset           0 length               23005 to matrix element file.
 Write ALPHA FOCK MATRIX                   from file  10536 offset           0 length               23005 to matrix element file.
 Write ENERGY-WEIGHTED DENSITY             from file  10571 offset           0 length               23005 to matrix element file.
 Write ALPHA SCF DENSITY MATRIX            from file      0 offset           0 length               23005 to matrix element file.
 Write INTEGER PARAMETERS                  from file      0 offset           0 length                   2 to matrix element file.
 No 2e integrals to process.
 Perform NBO analysis...

 *********************************** NBO 7.0 ***********************************
             N A T U R A L   A T O M I C   O R B I T A L   A N D
          N A T U R A L   B O N D   O R B I T A L   A N A L Y S I S
 **************************** Robert Paton (I101709) ***************************
  (c) Copyright 1996-2019 Board of Regents of the University of Wisconsin System
      on behalf of the Theoretical Chemistry Institute.  All rights reserved.

          Cite this program [NBO 7.0.5 (4-Jun-2019)] as:

          NBO 7.0.  E. D. Glendening, J. K. Badenhoop, A. E. Reed,
          J. E. Carpenter, J. A. Bohmann, C. M. Morales, P. Karafiloglou,
          C. R. Landis, and F. Weinhold, Theoretical Chemistry Institute,
          University of Wisconsin, Madison, WI (2018)

       /AONBO  / : Checkpoint the AO to NBO transformation
                   NBOs sorted by occupancy
       /BNDIDX / : Print bond indices based on the NAO density matrix

 Filename set to /home/rpaton/opt/dzvp/popn/Gau-1012967

 Job title:  arbr48_wb97xd_popncreated by GaussianPrep


 NATURAL POPULATIONS:  Natural atomic orbital occupancies

  NAO Atom No lang   Type(AO)    Occupancy      Energy
 -------------------------------------------------------
   1   Br  1  s      Cor( 1s)     2.00000    -399.72845
   2   Br  1  s      Cor( 2s)     2.00000    -130.30259
   3   Br  1  s      Cor( 3s)     2.00000     -24.48708
   4   Br  1  s      Val( 4s)     1.84846      -0.75866
   5   Br  1  s      Ryd( 5s)     0.00303       0.56760
   6   Br  1  px     Cor( 2p)     2.00000     -38.08429
   7   Br  1  px     Cor( 3p)     2.00000     -25.00205
   8   Br  1  px     Val( 4p)     1.33687      -0.27349
   9   Br  1  px     Ryd( 5p)     0.00258       0.74330
  10   Br  1  py     Cor( 2p)     2.00000     -38.07932
  11   Br  1  py     Cor( 3p)     2.00000     -24.99738
  12   Br  1  py     Val( 4p)     1.79296      -0.34114
  13   Br  1  py     Ryd( 5p)     0.00154       0.75539
  14   Br  1  pz     Cor( 2p)     2.00000     -38.07740
  15   Br  1  pz     Cor( 3p)     2.00000     -24.99556
  16   Br  1  pz     Val( 4p)     1.94581      -0.36415
  17   Br  1  pz     Ryd( 5p)     0.00121       0.73095
  18   Br  1  dxy    Cor( 3d)     1.99999      -2.73873
  19   Br  1  dxy    Ryd( 4d)     0.00423       0.97274
  20   Br  1  dxy    Ryd( 5d)     0.00001       3.77644
  21   Br  1  dxz    Cor( 3d)     2.00000      -2.73619
  22   Br  1  dxz    Ryd( 4d)     0.00212       0.72108
  23   Br  1  dxz    Ryd( 5d)     0.00001       3.55589
  24   Br  1  dyz    Cor( 3d)     2.00000      -2.73017
  25   Br  1  dyz    Ryd( 4d)     0.00064       0.67211
  26   Br  1  dyz    Ryd( 5d)     0.00000       3.51020
  27   Br  1  dx2y2  Cor( 3d)     2.00000      -2.73864
  28   Br  1  dx2y2  Ryd( 4d)     0.00243       0.95327
  29   Br  1  dx2y2  Ryd( 5d)     0.00001       3.73629
  30   Br  1  dz2    Cor( 3d)     2.00000      -2.73148
  31   Br  1  dz2    Ryd( 4d)     0.00190       0.77694
  32   Br  1  dz2    Ryd( 5d)     0.00000       3.61736

  33    C  2  s      Cor( 1s)     1.99996     -10.35948
  34    C  2  s      Val( 2s)     0.92054      -0.13656
  35    C  2  s      Ryd( 3s)     0.00075       0.64226
  36    C  2  px     Val( 2p)     1.00630      -0.11168
  37    C  2  px     Ryd( 3p)     0.00745       0.99992
  38    C  2  py     Val( 2p)     1.07105      -0.07373
  39    C  2  py     Ryd( 3p)     0.00684       0.88084
  40    C  2  pz     Val( 2p)     1.10921      -0.16030
  41    C  2  pz     Ryd( 3p)     0.00143       0.66249
  42    C  2  dxy    Ryd( 3d)     0.00168       2.36625
  43    C  2  dxz    Ryd( 3d)     0.00092       1.90331
  44    C  2  dyz    Ryd( 3d)     0.00083       1.97056
  45    C  2  dx2y2  Ryd( 3d)     0.00140       2.41674
  46    C  2  dz2    Ryd( 3d)     0.00089       2.20311

  47    C  3  s      Cor( 1s)     1.99995     -10.32821
  48    C  3  s      Val( 2s)     0.93483      -0.08298
  49    C  3  s      Ryd( 3s)     0.00155       0.65291
  50    C  3  px     Val( 2p)     1.07260      -0.04277
  51    C  3  px     Ryd( 3p)     0.00431       0.72943
  52    C  3  py     Val( 2p)     1.21866      -0.09611
  53    C  3  py     Ryd( 3p)     0.00908       1.10458
  54    C  3  pz     Val( 2p)     0.98482      -0.12225
  55    C  3  pz     Ryd( 3p)     0.00105       0.63157
  56    C  3  dxy    Ryd( 3d)     0.00101       2.46060
  57    C  3  dxz    Ryd( 3d)     0.00069       1.97829
  58    C  3  dyz    Ryd( 3d)     0.00048       1.94871
  59    C  3  dx2y2  Ryd( 3d)     0.00071       2.51607
  60    C  3  dz2    Ryd( 3d)     0.00072       2.25547

  61    C  4  s      Cor( 1s)     1.99996     -10.35430
  62    C  4  s      Val( 2s)     0.94533      -0.13775
  63    C  4  s      Ryd( 3s)     0.00124       0.60136
  64    C  4  px     Val( 2p)     1.08406      -0.12222
  65    C  4  px     Ryd( 3p)     0.00953       1.15661
  66    C  4  py     Val( 2p)     1.08141      -0.08589
  67    C  4  py     Ryd( 3p)     0.00790       0.88873
  68    C  4  pz     Val( 2p)     1.11789      -0.16265
  69    C  4  pz     Ryd( 3p)     0.00205       0.66241
  70    C  4  dxy    Ryd( 3d)     0.00103       2.32941
  71    C  4  dxz    Ryd( 3d)     0.00080       1.90419
  72    C  4  dyz    Ryd( 3d)     0.00074       1.97634
  73    C  4  dx2y2  Ryd( 3d)     0.00121       2.45441
  74    C  4  dz2    Ryd( 3d)     0.00069       2.21725

  75    I  5  s      Cor( 4s)     2.00000      -6.96288
  76    I  5  s      Val( 5s)     1.87976      -0.70535
  77    I  5  s      Ryd( 6s)     0.00487       1.16056
  78    I  5  s      Ryd( 7s)     0.00000      55.39199
  79    I  5  px     Cor( 4p)     2.00000      -4.98151
  80    I  5  px     Val( 5p)     1.27128      -0.23653
  81    I  5  px     Ryd( 6p)     0.00408       0.52500
  82    I  5  px     Ryd( 7p)     0.00000      19.33068
  83    I  5  py     Cor( 4p)     2.00000      -4.97442
  84    I  5  py     Val( 5p)     1.69607      -0.29629
  85    I  5  py     Ryd( 6p)     0.00217       0.54345
  86    I  5  py     Ryd( 7p)     0.00000      19.10520
  87    I  5  pz     Cor( 4p)     2.00000      -4.96981
  88    I  5  pz     Val( 5p)     1.95099      -0.33252
  89    I  5  pz     Ryd( 6p)     0.00164       0.50183
  90    I  5  pz     Ryd( 7p)     0.00000      18.77322
  91    I  5  dxy    Cor( 4d)     1.99997      -2.01508
  92    I  5  dxy    Ryd( 5d)     0.00267       0.89625
  93    I  5  dxz    Cor( 4d)     2.00000      -2.01087
  94    I  5  dxz    Ryd( 5d)     0.00134       0.61401
  95    I  5  dyz    Cor( 4d)     2.00000      -2.00486
  96    I  5  dyz    Ryd( 5d)     0.00045       0.55238
  97    I  5  dx2y2  Cor( 4d)     1.99999      -2.01490
  98    I  5  dx2y2  Ryd( 5d)     0.00101       0.86201
  99    I  5  dz2    Cor( 4d)     1.99999      -2.00571
 100    I  5  dz2    Ryd( 5d)     0.00116       0.66093

 101    C  6  s      Cor( 1s)     1.99995     -10.37557
 102    C  6  s      Val( 2s)     0.78925      -0.02975
 103    C  6  s      Ryd( 3s)     0.00353       0.71036
 104    C  6  px     Val( 2p)     0.85037      -0.00398
 105    C  6  px     Ryd( 3p)     0.01187       0.88492
 106    C  6  py     Val( 2p)     1.02745      -0.04113
 107    C  6  py     Ryd( 3p)     0.00318       1.01497
 108    C  6  pz     Val( 2p)     0.97187      -0.13041
 109    C  6  pz     Ryd( 3p)     0.00185       0.67022
 110    C  6  dxy    Ryd( 3d)     0.00192       2.49548
 111    C  6  dxz    Ryd( 3d)     0.00192       1.96204
 112    C  6  dyz    Ryd( 3d)     0.00142       1.96659
 113    C  6  dx2y2  Ryd( 3d)     0.00193       2.46607
 114    C  6  dz2    Ryd( 3d)     0.00093       2.22927

 115    C  7  s      Cor( 1s)     1.99996     -10.32494
 116    C  7  s      Val( 2s)     0.85803      -0.04637
 117    C  7  s      Ryd( 3s)     0.00189       0.66211
 118    C  7  px     Val( 2p)     1.10278      -0.04809
 119    C  7  px     Ryd( 3p)     0.00347       0.98831
 120    C  7  py     Val( 2p)     1.06141      -0.05713
 121    C  7  py     Ryd( 3p)     0.00490       1.14919
 122    C  7  pz     Val( 2p)     1.04500      -0.12623
 123    C  7  pz     Ryd( 3p)     0.00212       0.70783
 124    C  7  dxy    Ryd( 3d)     0.00110       2.56622
 125    C  7  dxz    Ryd( 3d)     0.00072       2.02209
 126    C  7  dyz    Ryd( 3d)     0.00071       1.99521
 127    C  7  dx2y2  Ryd( 3d)     0.00073       2.45984
 128    C  7  dz2    Ryd( 3d)     0.00062       2.26799

 129    C  8  s      Cor( 1s)     1.99995     -10.32689
 130    C  8  s      Val( 2s)     0.92832      -0.07163
 131    C  8  s      Ryd( 3s)     0.00137       0.63042
 132    C  8  px     Val( 2p)     1.17046      -0.06837
 133    C  8  px     Ryd( 3p)     0.00686       0.98504
 134    C  8  py     Val( 2p)     1.11095      -0.05523
 135    C  8  py     Ryd( 3p)     0.00458       0.83366
 136    C  8  pz     Val( 2p)     0.98995      -0.12162
 137    C  8  pz     Ryd( 3p)     0.00105       0.63345
 138    C  8  dxy    Ryd( 3d)     0.00077       2.53259
 139    C  8  dxz    Ryd( 3d)     0.00057       1.99233
 140    C  8  dyz    Ryd( 3d)     0.00059       1.98048
 141    C  8  dx2y2  Ryd( 3d)     0.00092       2.50760
 142    C  8  dz2    Ryd( 3d)     0.00066       2.27219

 143    C  9  s      Cor( 1s)     1.99994     -10.32813
 144    C  9  s      Val( 2s)     1.03044      -0.17825
 145    C  9  s      Ryd( 3s)     0.00067       1.01783
 146    C  9  px     Val( 2p)     1.08486      -0.10181
 147    C  9  px     Ryd( 3p)     0.00324       0.64823
 148    C  9  py     Val( 2p)     1.11091      -0.08863
 149    C  9  py     Ryd( 3p)     0.00185       0.58622
 150    C  9  pz     Val( 2p)     1.23817      -0.12239
 151    C  9  pz     Ryd( 3p)     0.00293       0.83400
 152    C  9  dxy    Ryd( 3d)     0.00046       2.23687
 153    C  9  dxz    Ryd( 3d)     0.00052       2.22711
 154    C  9  dyz    Ryd( 3d)     0.00072       2.34152
 155    C  9  dx2y2  Ryd( 3d)     0.00084       2.34595
 156    C  9  dz2    Ryd( 3d)     0.00083       2.38580

 157    C 10  s      Cor( 1s)     1.99994     -10.37026
 158    C 10  s      Val( 2s)     1.01885      -0.19729
 159    C 10  s      Ryd( 3s)     0.00109       0.92446
 160    C 10  px     Val( 2p)     1.04119      -0.08509
 161    C 10  px     Ryd( 3p)     0.00390       0.60685
 162    C 10  py     Val( 2p)     0.76633      -0.04436
 163    C 10  py     Ryd( 3p)     0.00438       0.62575
 164    C 10  pz     Val( 2p)     1.20212      -0.11850
 165    C 10  pz     Ryd( 3p)     0.00196       0.78669
 166    C 10  dxy    Ryd( 3d)     0.00130       2.23090
 167    C 10  dxz    Ryd( 3d)     0.00064       2.24881
 168    C 10  dyz    Ryd( 3d)     0.00143       2.24457
 169    C 10  dx2y2  Ryd( 3d)     0.00172       2.28444
 170    C 10  dz2    Ryd( 3d)     0.00133       2.39260

 171    O 11  s      Cor( 1s)     1.99995     -19.30127
 172    O 11  s      Val( 2s)     1.58334      -0.75517
 173    O 11  s      Ryd( 3s)     0.00032       1.71325
 174    O 11  px     Val( 2p)     1.70692      -0.40536
 175    O 11  px     Ryd( 3p)     0.00191       1.25135
 176    O 11  py     Val( 2p)     1.41618      -0.34071
 177    O 11  py     Ryd( 3p)     0.00090       1.60444
 178    O 11  pz     Val( 2p)     1.83326      -0.39737
 179    O 11  pz     Ryd( 3p)     0.00202       1.20197
 180    O 11  dxy    Ryd( 3d)     0.00180       3.19530
 181    O 11  dxz    Ryd( 3d)     0.00150       2.79539
 182    O 11  dyz    Ryd( 3d)     0.00028       2.83350
 183    O 11  dx2y2  Ryd( 3d)     0.00135       3.07882
 184    O 11  dz2    Ryd( 3d)     0.00094       2.98858

 185    H 12  s      Val( 1s)     0.73748       0.11461
 186    H 12  s      Ryd( 2s)     0.00168       0.40740
 187    H 12  px     Ryd( 2p)     0.00006       2.05758
 188    H 12  py     Ryd( 2p)     0.00103       2.50319
 189    H 12  pz     Ryd( 2p)     0.00017       1.74721

 190    H 13  s      Val( 1s)     0.74829       0.10464
 191    H 13  s      Ryd( 2s)     0.00153       0.39749
 192    H 13  px     Ryd( 2p)     0.00077       2.37629
 193    H 13  py     Ryd( 2p)     0.00028       2.18170
 194    H 13  pz     Ryd( 2p)     0.00016       1.75233

 195    H 14  s      Val( 1s)     0.75047       0.09626
 196    H 14  s      Ryd( 2s)     0.00128       0.40745
 197    H 14  px     Ryd( 2p)     0.00027       1.97517
 198    H 14  py     Ryd( 2p)     0.00034       2.05521
 199    H 14  pz     Ryd( 2p)     0.00048       2.14211

 200    H 15  s      Val( 1s)     0.75539       0.09439
 201    H 15  s      Ryd( 2s)     0.00222       0.41213
 202    H 15  px     Ryd( 2p)     0.00010       1.88652
 203    H 15  py     Ryd( 2p)     0.00018       1.95016
 204    H 15  pz     Ryd( 2p)     0.00083       2.34328

 205    H 16  s      Val( 1s)     0.78141       0.09055
 206    H 16  s      Ryd( 2s)     0.00116       0.38576
 207    H 16  px     Ryd( 2p)     0.00042       2.00582
 208    H 16  py     Ryd( 2p)     0.00034       2.03871
 209    H 16  pz     Ryd( 2p)     0.00045       2.07672

 210    H 17  s      Val( 1s)     0.79400       0.08096
 211    H 17  s      Ryd( 2s)     0.00217       0.39896
 212    H 17  px     Ryd( 2p)     0.00015       1.87169
 213    H 17  py     Ryd( 2p)     0.00009       1.90314
 214    H 17  pz     Ryd( 2p)     0.00100       2.36922

 [28 electrons found in the effective core potential]


 Summary of Natural Population Analysis:

                                     Natural Population
             Natural    ---------------------------------------------
  Atom No    Charge        Core      Valence    Rydberg      Total
 --------------------------------------------------------------------
   Br  1    0.05623     27.99997     6.92411    0.01969    34.94377
    C  2   -0.12923      1.99996     4.10710    0.02216     6.12923
    C  3   -0.23046      1.99995     4.21090    0.01960     6.23046
    C  4   -0.25383      1.99996     4.22868    0.02519     6.25383
    I  5    0.18258     45.99994     6.79809    0.01940    52.81742
    C  6    0.33255      1.99995     3.63895    0.02856     5.66745
    C  7   -0.08344      1.99996     4.06722    0.01626     6.08344
    C  8   -0.21700      1.99995     4.19968    0.01737     6.21700
    C  9   -0.47636      1.99994     4.46438    0.01205     6.47636
    C 10   -0.04617      1.99994     4.02848    0.01774     6.04617
    O 11   -0.55067      1.99995     6.53970    0.01102     8.55067
    H 12    0.25958      0.00000     0.73748    0.00295     0.74042
    H 13    0.24897      0.00000     0.74829    0.00274     0.75103
    H 14    0.24716      0.00000     0.75047    0.00238     0.75284
    H 15    0.24128      0.00000     0.75539    0.00333     0.75872
    H 16    0.21622      0.00000     0.78141    0.00237     0.78378
    H 17    0.20260      0.00000     0.79400    0.00340     0.79740
 ====================================================================
 * Total *  0.00000     91.99948    57.77432    0.22620   150.00000

                                 Natural Population
 ---------------------------------------------------------
   Effective Core            28.00000
   Core                      63.99948 ( 99.9992% of   64)
   Valence                   57.77432 ( 99.6109% of   58)
   Natural Minimal Basis    149.77380 ( 99.8492% of  150)
   Natural Rydberg Basis      0.22620 (  0.1508% of  150)
 ---------------------------------------------------------

    Atom No         Natural Electron Configuration
 ----------------------------------------------------------------------------
     Br  1      [core]4s( 1.85)4p( 5.08)4d( 0.01)5p( 0.01)
      C  2      [core]2s( 0.92)2p( 3.19)3p( 0.02)3d( 0.01)
      C  3      [core]2s( 0.93)2p( 3.28)3p( 0.01)
      C  4      [core]2s( 0.95)2p( 3.28)3p( 0.02)
      I  5      [core]5s( 1.88)5p( 4.92)5d( 0.01)6p( 0.01)
      C  6      [core]2s( 0.79)2p( 2.85)3p( 0.02)3d( 0.01)
      C  7      [core]2s( 0.86)2p( 3.21)3p( 0.01)
      C  8      [core]2s( 0.93)2p( 3.27)3p( 0.01)
      C  9      [core]2s( 1.03)2p( 3.43)3p( 0.01)
      C 10      [core]2s( 1.02)2p( 3.01)3p( 0.01)3d( 0.01)
      O 11      [core]2s( 1.58)2p( 4.96)3d( 0.01)
      H 12            1s( 0.74)
      H 13            1s( 0.75)
      H 14            1s( 0.75)
      H 15            1s( 0.76)
      H 16            1s( 0.78)
      H 17            1s( 0.79)


 Wiberg bond index matrix in the NAO basis:

     Atom    1       2       3       4       5       6       7       8       9
     ---- ------  ------  ------  ------  ------  ------  ------  ------  ------
   1. Br  0.0000  1.0342  0.0410  0.0134  0.0029  0.0116  0.0135  0.0380  0.0011
   2.  C  1.0342  0.0000  1.4127  0.0207  0.0146  0.0851  0.0186  1.3772  0.0089
   3.  C  0.0410  1.4127  0.0000  1.3941  0.0351  0.0174  0.1019  0.0153  0.0014
   4.  C  0.0134  0.0207  1.3941  0.0000  1.0030  1.3558  0.0199  0.0965  0.0088
   5.  I  0.0029  0.0146  0.0351  1.0030  0.0000  0.0328  0.0191  0.0127  0.0017
   6.  C  0.0116  0.0851  0.0174  1.3558  0.0328  0.0000  1.3049  0.0147  0.0110
   7.  C  0.0135  0.0186  0.1019  0.0199  0.0191  1.3049  0.0000  1.4258  1.0051
   8.  C  0.0380  1.3772  0.0153  0.0965  0.0127  0.0147  1.4258  0.0000  0.0148
   9.  C  0.0011  0.0089  0.0014  0.0088  0.0017  0.0110  1.0051  0.0148  0.0000
  10.  C  0.0005  0.0004  0.0006  0.0111  0.0006  0.0112  0.0087  0.0073  1.0113
  11.  O  0.0028  0.0227  0.0067  0.0567  0.0095  1.0108  0.0531  0.0092  0.0170
  12.  H  0.0055  0.0044  0.8966  0.0047  0.0058  0.0080  0.0005  0.0087  0.0003
  13.  H  0.0052  0.0041  0.0085  0.0004  0.0008  0.0098  0.0045  0.9032  0.0028
  14.  H  0.0000  0.0002  0.0025  0.0002  0.0004  0.0091  0.0029  0.0052  0.9069
  15.  H  0.0000  0.0004  0.0045  0.0004  0.0002  0.0089  0.0032  0.0099  0.8999
  16.  H  0.0001  0.0002  0.0002  0.0005  0.0001  0.0063  0.0047  0.0001  0.0022
  17.  H  0.0001  0.0006  0.0000  0.0015  0.0001  0.0029  0.0007  0.0002  0.0030

     Atom   10      11      12      13      14      15      16      17
     ---- ------  ------  ------  ------  ------  ------  ------  ------
   1. Br  0.0005  0.0028  0.0055  0.0052  0.0000  0.0000  0.0001  0.0001
   2.  C  0.0004  0.0227  0.0044  0.0041  0.0002  0.0004  0.0002  0.0006
   3.  C  0.0006  0.0067  0.8966  0.0085  0.0025  0.0045  0.0002  0.0000
   4.  C  0.0111  0.0567  0.0047  0.0004  0.0002  0.0004  0.0005  0.0015
   5.  I  0.0006  0.0095  0.0058  0.0008  0.0004  0.0002  0.0001  0.0001
   6.  C  0.0112  1.0108  0.0080  0.0098  0.0091  0.0089  0.0063  0.0029
   7.  C  0.0087  0.0531  0.0005  0.0045  0.0029  0.0032  0.0047  0.0007
   8.  C  0.0073  0.0092  0.0087  0.9032  0.0052  0.0099  0.0001  0.0002
   9.  C  1.0113  0.0170  0.0003  0.0028  0.9069  0.8999  0.0022  0.0030
  10.  C  0.0000  0.8728  0.0004  0.0002  0.0032  0.0032  0.9261  0.9236
  11.  O  0.8728  0.0000  0.0002  0.0006  0.0052  0.0012  0.0093  0.0171
  12.  H  0.0004  0.0002  0.0000  0.0003  0.0000  0.0000  0.0000  0.0000
  13.  H  0.0002  0.0006  0.0003  0.0000  0.0001  0.0001  0.0000  0.0000
  14.  H  0.0032  0.0052  0.0000  0.0001  0.0000  0.0006  0.0011  0.0034
  15.  H  0.0032  0.0012  0.0000  0.0001  0.0006  0.0000  0.0039  0.0089
  16.  H  0.9261  0.0093  0.0000  0.0000  0.0011  0.0039  0.0000  0.0006
  17.  H  0.9236  0.0171  0.0000  0.0000  0.0034  0.0089  0.0006  0.0000


 Wiberg bond index, Totals by atom:

     Atom    1
     ---- ------
   1. Br  1.1699
   2.  C  4.0051
   3.  C  3.9387
   4.  C  3.9877
   5.  I  1.1395
   6.  C  3.9005
   7.  C  3.9871
   8.  C  3.9388
   9.  C  3.8962
  10.  C  3.7811
  11.  O  2.0950
  12.  H  0.9355
  13.  H  0.9407
  14.  H  0.9411
  15.  H  0.9454
  16.  H  0.9553
  17.  H  0.9627


 NBI: Natural Binding Index (NCU strength parameters)

     Atom    1       2       3       4       5       6       7       8       9
     ---- ------  ------  ------  ------  ------  ------  ------  ------  ------
   1. Br  0.0000  1.0169  0.2025  0.1160  0.0541  0.1078  0.1164  0.1950  0.0326
   2.  C  1.0169  0.0000  1.1886  0.1440  0.1207  0.2917  0.1364  1.1735  0.0946
   3.  C  0.2025  1.1886  0.0000  1.1807  0.1874  0.1320  0.3192  0.1238  0.0373
   4.  C  0.1160  0.1440  1.1807  0.0000  1.0015  1.1644  0.1409  0.3106  0.0937
   5.  I  0.0541  0.1207  0.1874  1.0015  0.0000  0.1812  0.1380  0.1128  0.0413
   6.  C  0.1078  0.2917  0.1320  1.1644  0.1812  0.0000  1.1423  0.1214  0.1050
   7.  C  0.1164  0.1364  0.3192  0.1409  0.1380  1.1423  0.0000  1.1941  1.0025
   8.  C  0.1950  1.1735  0.1238  0.3106  0.1128  0.1214  1.1941  0.0000  0.1216
   9.  C  0.0326  0.0946  0.0373  0.0937  0.0413  0.1050  1.0025  0.1216  0.0000
  10.  C  0.0225  0.0203  0.0238  0.1054  0.0249  0.1058  0.0932  0.0853  1.0057
  11.  O  0.0525  0.1505  0.0821  0.2381  0.0976  1.0054  0.2304  0.0959  0.1304
  12.  H  0.0745  0.0666  0.9469  0.0686  0.0763  0.0892  0.0234  0.0933  0.0161
  13.  H  0.0718  0.0643  0.0921  0.0208  0.0283  0.0991  0.0673  0.9504  0.0533
  14.  H  0.0051  0.0134  0.0504  0.0132  0.0212  0.0956  0.0538  0.0722  0.9523
  15.  H  0.0058  0.0204  0.0671  0.0203  0.0152  0.0942  0.0570  0.0996  0.9486
  16.  H  0.0071  0.0146  0.0150  0.0212  0.0072  0.0795  0.0688  0.0074  0.0467
  17.  H  0.0084  0.0249  0.0064  0.0386  0.0079  0.0542  0.0259  0.0128  0.0549

     Atom   10      11      12      13      14      15      16      17
     ---- ------  ------  ------  ------  ------  ------  ------  ------
   1. Br  0.0225  0.0525  0.0745  0.0718  0.0051  0.0058  0.0071  0.0084
   2.  C  0.0203  0.1505  0.0666  0.0643  0.0134  0.0204  0.0146  0.0249
   3.  C  0.0238  0.0821  0.9469  0.0921  0.0504  0.0671  0.0150  0.0064
   4.  C  0.1054  0.2381  0.0686  0.0208  0.0132  0.0203  0.0212  0.0386
   5.  I  0.0249  0.0976  0.0763  0.0283  0.0212  0.0152  0.0072  0.0079
   6.  C  0.1058  1.0054  0.0892  0.0991  0.0956  0.0942  0.0795  0.0542
   7.  C  0.0932  0.2304  0.0234  0.0673  0.0538  0.0570  0.0688  0.0259
   8.  C  0.0853  0.0959  0.0933  0.9504  0.0722  0.0996  0.0074  0.0128
   9.  C  1.0057  0.1304  0.0161  0.0533  0.9523  0.9486  0.0467  0.0549
  10.  C  0.0000  0.9342  0.0190  0.0127  0.0567  0.0567  0.9624  0.9610
  11.  O  0.9342  0.0000  0.0149  0.0251  0.0722  0.0352  0.0964  0.1309
  12.  H  0.0190  0.0149  0.0000  0.0174  0.0025  0.0019  0.0037  0.0013
  13.  H  0.0127  0.0251  0.0174  0.0000  0.0094  0.0074  0.0051  0.0015
  14.  H  0.0567  0.0722  0.0025  0.0094  0.0000  0.0241  0.0325  0.0585
  15.  H  0.0567  0.0352  0.0019  0.0074  0.0241  0.0000  0.0625  0.0942
  16.  H  0.9624  0.0964  0.0037  0.0051  0.0325  0.0625  0.0000  0.0253
  17.  H  0.9610  0.1309  0.0013  0.0015  0.0585  0.0942  0.0253  0.0000


 NATURAL BOND ORBITAL ANALYSIS:

                            Occupancies       Lewis Structure    Low   High
         Max    Occ     -------------------  -----------------   occ   occ
  Cycle  Ctr   Thresh    Lewis   non-Lewis     CR  BD  nC  LP    (L)   (NL)
 ============================================================================
    1     2     1.90   146.64252   3.35748     32  19   0  10     3      3
    2     2     1.87   146.64252   3.35748     32  19   0  10     3      3
    3     2     1.84   146.51234   3.48766     32  18   0  11     3      3
    4     2     1.70   147.11205   2.88795     32  19   0  10     2      3
    5     2     1.69   147.76087   2.23913     32  20   0   9     1      3
    6     2     1.67   147.76087   2.23913     32  20   0   9     1      3
    7     2     1.66   148.30883   1.69117     32  21   0   8     0      3
    8     2     1.60   148.30883   1.69117     32  21   0   8     0      3
    9     2     1.66   148.30883   1.69117     32  21   0   8     0      3
 ----------------------------------------------------------------------------

 Structure accepted: No low occupancy Lewis orbitals

 -------------------------------------------------------
   Effective core           28.00000
   Core                     63.99948 ( 99.999% of  64)
   Valence Lewis            56.30935 ( 97.085% of  58)
  ==================      =============================
   Total Lewis             148.30883 ( 98.873% of 150)
  -----------------------------------------------------
   Valence non-Lewis         1.55278 (  1.035% of 150)
   Rydberg non-Lewis         0.13839 (  0.092% of 150)
  ==================      =============================
   Total non-Lewis           1.69117 (  1.127% of 150)
 -------------------------------------------------------


     (Occupancy)   Bond orbital / Coefficients / Hybrids
 ------------------ Lewis ------------------------------------------------------
   1. (2.00000) CR ( 1)Br  1            s(100.00%)
                                         1.0000  0.0000  0.0000  0.0000  0.0000
                                         0.0000  0.0000  0.0000  0.0000  0.0000
                                         0.0000  0.0000  0.0000  0.0000  0.0000
                                         0.0000  0.0000  0.0000  0.0000  0.0000
                                         0.0000  0.0000  0.0000  0.0000  0.0000
                                         0.0000  0.0000  0.0000  0.0000  0.0000
                                         0.0000  0.0000
   2. (2.00000) CR ( 2)Br  1            s(100.00%)
                                         0.0000  1.0000  0.0000  0.0000  0.0000
                                         0.0000  0.0000  0.0000  0.0000  0.0000
                                         0.0000  0.0000  0.0000  0.0000  0.0000
                                         0.0000  0.0000  0.0000  0.0000  0.0000
                                         0.0000  0.0000  0.0000  0.0000  0.0000
                                         0.0000  0.0000  0.0000  0.0000  0.0000
                                         0.0000  0.0000
   3. (2.00000) CR ( 3)Br  1            s(100.00%)
                                         0.0000  0.0000  1.0000  0.0000  0.0000
                                         0.0000  0.0000  0.0000  0.0000  0.0000
                                         0.0000  0.0000  0.0000  0.0000  0.0000
                                         0.0000  0.0000  0.0000  0.0000  0.0000
                                         0.0000  0.0000  0.0000  0.0000  0.0000
                                         0.0000  0.0000  0.0000  0.0000  0.0000
                                         0.0000  0.0000
   4. (2.00000) CR ( 4)Br  1            s(  0.00%)p 1.00(100.00%)
                                         0.0000  0.0000  0.0000  0.0000  0.0000
                                         1.0000  0.0000  0.0000  0.0000  0.0000
                                         0.0000  0.0000  0.0000  0.0000  0.0000
                                         0.0000  0.0000  0.0000  0.0000  0.0000
                                         0.0000  0.0000  0.0000  0.0000  0.0000
                                         0.0000  0.0000  0.0000  0.0000  0.0000
                                         0.0000  0.0000
   5. (2.00000) CR ( 5)Br  1            s(  0.00%)p 1.00(100.00%)
                                         0.0000  0.0000  0.0000  0.0000  0.0000
                                         0.0000  1.0000  0.0000  0.0000  0.0000
                                         0.0000  0.0000  0.0000  0.0000  0.0000
                                         0.0000  0.0000  0.0000  0.0000  0.0000
                                         0.0000  0.0000  0.0000  0.0000  0.0000
                                         0.0000  0.0000  0.0000  0.0000  0.0000
                                         0.0000  0.0000
   6. (2.00000) CR ( 6)Br  1            s(  0.00%)p 1.00(100.00%)
                                         0.0000  0.0000  0.0000  0.0000  0.0000
                                         0.0000  0.0000  0.0000  0.0000  1.0000
                                         0.0000  0.0000  0.0000  0.0000  0.0000
                                         0.0000  0.0000  0.0000  0.0000  0.0000
                                         0.0000  0.0000  0.0000  0.0000  0.0000
                                         0.0000  0.0000  0.0000  0.0000  0.0000
                                         0.0000  0.0000
   7. (2.00000) CR ( 7)Br  1            s(  0.00%)p 1.00(100.00%)
                                         0.0000  0.0000  0.0000  0.0000  0.0000
                                         0.0000  0.0000  0.0000  0.0000  0.0000
                                         1.0000  0.0000  0.0000  0.0000  0.0000
                                         0.0000  0.0000  0.0000  0.0000  0.0000
                                         0.0000  0.0000  0.0000  0.0000  0.0000
                                         0.0000  0.0000  0.0000  0.0000  0.0000
                                         0.0000  0.0000
   8. (2.00000) CR ( 8)Br  1            s(  0.00%)p 1.00(100.00%)
                                         0.0000  0.0000  0.0000  0.0000  0.0000
                                         0.0000  0.0000  0.0000  0.0000  0.0000
                                         0.0000  0.0000  0.0000  1.0000  0.0000
                                         0.0000  0.0000  0.0000  0.0000  0.0000
                                         0.0000  0.0000  0.0000  0.0000  0.0000
                                         0.0000  0.0000  0.0000  0.0000  0.0000
                                         0.0000  0.0000
   9. (2.00000) CR ( 9)Br  1            s(  0.00%)p 1.00(100.00%)
                                         0.0000  0.0000  0.0000  0.0000  0.0000
                                         0.0000  0.0000  0.0000  0.0000  0.0000
                                         0.0000  0.0000  0.0000  0.0000  1.0000
                                         0.0000  0.0000  0.0000  0.0000  0.0000
                                         0.0000  0.0000  0.0000  0.0000  0.0000
                                         0.0000  0.0000  0.0000  0.0000  0.0000
                                         0.0000  0.0000
  10. (1.99999) CR (10)Br  1            s(  0.00%)p 0.00(  0.00%)d 1.00(100.00%)
                                         0.0000  0.0000  0.0000  0.0000  0.0000
                                         0.0000  0.0000  0.0000  0.0000  0.0000
                                         0.0000  0.0000  0.0000  0.0000  0.0000
                                         0.0000  0.0000  1.0000  0.0000  0.0000
                                         0.0000  0.0000  0.0000  0.0000  0.0000
                                         0.0000  0.0000  0.0000  0.0000  0.0000
                                         0.0000  0.0000
  11. (2.00000) CR (11)Br  1            s(  0.00%)p 0.00(  0.00%)d 1.00(100.00%)
                                         0.0000  0.0000  0.0000  0.0000  0.0000
                                         0.0000  0.0000  0.0000  0.0000  0.0000
                                         0.0000  0.0000  0.0000  0.0000  0.0000
                                         0.0000  0.0000  0.0000  0.0000  0.0000
                                         1.0000  0.0000  0.0000  0.0000  0.0000
                                         0.0000  0.0000  0.0000  0.0000  0.0000
                                         0.0000  0.0000
  12. (2.00000) CR (12)Br  1            s(  0.00%)p 0.00(  0.00%)d 1.00(100.00%)
                                         0.0000  0.0000  0.0000  0.0000  0.0000
                                         0.0000  0.0000  0.0000  0.0000  0.0000
                                         0.0000  0.0000  0.0000  0.0000  0.0000
                                         0.0000  0.0000  0.0000  0.0000  0.0000
                                         0.0000  0.0000  0.0000  1.0000  0.0000
                                         0.0000  0.0000  0.0000  0.0000  0.0000
                                         0.0000  0.0000
  13. (2.00000) CR (13)Br  1            s(  0.00%)p 0.00(  0.00%)d 1.00(100.00%)
                                         0.0000  0.0000  0.0000  0.0000  0.0000
                                         0.0000  0.0000  0.0000  0.0000  0.0000
                                         0.0000  0.0000  0.0000  0.0000  0.0000
                                         0.0000  0.0000  0.0000  0.0000  0.0000
                                         0.0000  0.0000  0.0000  0.0000  0.0000
                                         0.0000  1.0000  0.0000  0.0000  0.0000
                                         0.0000  0.0000
  14. (2.00000) CR (14)Br  1            s(  0.00%)p 0.00(  0.00%)d 1.00(100.00%)
                                         0.0000  0.0000  0.0000  0.0000  0.0000
                                         0.0000  0.0000  0.0000  0.0000  0.0000
                                         0.0000  0.0000  0.0000  0.0000  0.0000
                                         0.0000  0.0000  0.0000  0.0000  0.0000
                                         0.0000  0.0000  0.0000  0.0000  0.0000
                                         0.0000  0.0000  0.0000  0.0000  1.0000
                                         0.0000  0.0000
  15. (1.99996) CR ( 1) C  2            s(100.00%)
                                         1.0000  0.0000  0.0000  0.0000  0.0000
                                         0.0000  0.0000  0.0000  0.0000  0.0000
                                         0.0000  0.0000  0.0000  0.0000
  16. (1.99995) CR ( 1) C  3            s(100.00%)
                                         1.0000  0.0000  0.0000  0.0000  0.0000
                                         0.0000  0.0000  0.0000  0.0000  0.0000
                                         0.0000  0.0000  0.0000  0.0000
  17. (1.99996) CR ( 1) C  4            s(100.00%)
                                         1.0000  0.0000  0.0000  0.0000  0.0000
                                         0.0000  0.0000  0.0000  0.0000  0.0000
                                         0.0000  0.0000  0.0000  0.0000
  18. (2.00000) CR ( 1) I  5            s(100.00%)
                                         1.0000  0.0000  0.0000  0.0000  0.0000
                                         0.0000  0.0000  0.0000  0.0000  0.0000
                                         0.0000  0.0000  0.0000  0.0000  0.0000
                                         0.0000  0.0000  0.0000  0.0000  0.0000
                                         0.0000  0.0000  0.0000  0.0000  0.0000
                                         0.0000
  19. (2.00000) CR ( 2) I  5            s(  0.00%)p 1.00(100.00%)
                                         0.0000  0.0000  0.0000  0.0000  1.0000
                                         0.0000  0.0000  0.0000  0.0000  0.0000
                                         0.0000  0.0000  0.0000  0.0000  0.0000
                                         0.0000  0.0000  0.0000  0.0000  0.0000
                                         0.0000  0.0000  0.0000  0.0000  0.0000
                                         0.0000
  20. (2.00000) CR ( 3) I  5            s(  0.00%)p 1.00(100.00%)
                                         0.0000  0.0000  0.0000  0.0000  0.0000
                                         0.0000  0.0000  0.0000  1.0000  0.0000
                                         0.0000  0.0000  0.0000  0.0000  0.0000
                                         0.0000  0.0000  0.0000  0.0000  0.0000
                                         0.0000  0.0000  0.0000  0.0000  0.0000
                                         0.0000
  21. (2.00000) CR ( 4) I  5            s(  0.00%)p 1.00(100.00%)
                                         0.0000  0.0000  0.0000  0.0000  0.0000
                                         0.0000  0.0000  0.0000  0.0000  0.0000
                                         0.0000  0.0000  1.0000  0.0000  0.0000
                                         0.0000  0.0000  0.0000  0.0000  0.0000
                                         0.0000  0.0000  0.0000  0.0000  0.0000
                                         0.0000
  22. (1.99997) CR ( 5) I  5            s(  0.00%)p 0.00(  0.00%)d 1.00(100.00%)
                                         0.0000  0.0000  0.0000  0.0000  0.0000
                                         0.0000  0.0000  0.0000  0.0000  0.0000
                                         0.0000  0.0000  0.0000  0.0000  0.0000
                                         0.0000  1.0000  0.0000  0.0000  0.0000
                                         0.0000  0.0000  0.0000  0.0000  0.0000
                                         0.0000
  23. (2.00000) CR ( 6) I  5            s(  0.00%)p 0.00(  0.00%)d 1.00(100.00%)
                                         0.0000  0.0000  0.0000  0.0000  0.0000
                                         0.0000  0.0000  0.0000  0.0000  0.0000
                                         0.0000  0.0000  0.0000  0.0000  0.0000
                                         0.0000  0.0000  0.0000  1.0000  0.0000
                                         0.0000  0.0000  0.0000  0.0000  0.0000
                                         0.0000
  24. (2.00000) CR ( 7) I  5            s(  0.00%)p 0.00(  0.00%)d 1.00(100.00%)
                                         0.0000  0.0000  0.0000  0.0000  0.0000
                                         0.0000  0.0000  0.0000  0.0000  0.0000
                                         0.0000  0.0000  0.0000  0.0000  0.0000
                                         0.0000  0.0000  0.0000  0.0000  0.0000
                                         1.0000  0.0000  0.0000  0.0000  0.0000
                                         0.0000
  25. (1.99999) CR ( 8) I  5            s(  0.00%)p 0.00(  0.00%)d 1.00(100.00%)
                                         0.0000  0.0000  0.0000  0.0000  0.0000
                                         0.0000  0.0000  0.0000  0.0000  0.0000
                                         0.0000  0.0000  0.0000  0.0000  0.0000
                                         0.0000  0.0000  0.0000  0.0000  0.0000
                                         0.0000  0.0000  1.0000  0.0000  0.0000
                                         0.0000
  26. (1.99999) CR ( 9) I  5            s(  0.00%)p 0.00(  0.00%)d 1.00(100.00%)
                                         0.0000  0.0000  0.0000  0.0000  0.0000
                                         0.0000  0.0000  0.0000  0.0000  0.0000
                                         0.0000  0.0000  0.0000  0.0000  0.0000
                                         0.0000  0.0000  0.0000  0.0000  0.0000
                                         0.0000  0.0000  0.0000  0.0000  1.0000
                                         0.0000
  27. (1.99995) CR ( 1) C  6            s(100.00%)
                                         1.0000  0.0000  0.0000  0.0000  0.0000
                                         0.0000  0.0000  0.0000  0.0000  0.0000
                                         0.0000  0.0000  0.0000  0.0000
  28. (1.99996) CR ( 1) C  7            s(100.00%)
                                         1.0000  0.0000  0.0000  0.0000  0.0000
                                         0.0000  0.0000  0.0000  0.0000  0.0000
                                         0.0000  0.0000  0.0000  0.0000
  29. (1.99995) CR ( 1) C  8            s(100.00%)
                                         1.0000  0.0000  0.0000  0.0000  0.0000
                                         0.0000  0.0000  0.0000  0.0000  0.0000
                                         0.0000  0.0000  0.0000  0.0000
  30. (1.99994) CR ( 1) C  9            s(100.00%)
                                         1.0000  0.0000  0.0000  0.0000  0.0000
                                         0.0000  0.0000  0.0000  0.0000  0.0000
                                         0.0000  0.0000  0.0000  0.0000
  31. (1.99994) CR ( 1) C 10            s(100.00%)
                                         1.0000  0.0000  0.0000  0.0000  0.0000
                                         0.0000  0.0000  0.0000  0.0000  0.0000
                                         0.0000  0.0000  0.0000  0.0000
  32. (1.99995) CR ( 1) O 11            s(100.00%)
                                         1.0000  0.0000  0.0000  0.0000  0.0000
                                         0.0000  0.0000  0.0000  0.0000  0.0000
                                         0.0000  0.0000  0.0000  0.0000
  33. (1.99442) LP ( 1)Br  1            s( 85.07%)p 0.18( 14.92%)d 0.00(  0.01%)
                                         0.0000  0.0000  0.0000  0.9223 -0.0109
                                         0.0000  0.0000  0.3333  0.0088  0.0000
                                         0.0000 -0.1949 -0.0046  0.0000  0.0000
                                         0.0051  0.0001  0.0000  0.0085 -0.0001
                                         0.0000 -0.0002  0.0000  0.0000  0.0001
                                         0.0000  0.0000 -0.0053  0.0001  0.0000
                                         0.0046  0.0000
  34. (1.97638) LP ( 2)Br  1            s(  0.02%)p99.99( 99.96%)d 1.29(  0.02%)
                                         0.0000  0.0000  0.0000  0.0135 -0.0007
                                         0.0000  0.0000  0.4765 -0.0065  0.0000
                                         0.0000  0.8788 -0.0126  0.0000  0.0000
                                        -0.0076  0.0001  0.0000 -0.0082  0.0007
                                         0.0000  0.0000  0.0000  0.0000 -0.0002
                                         0.0000  0.0000 -0.0129  0.0011  0.0000
                                        -0.0001  0.0000
  35. (1.94693) LP ( 3)Br  1            s(  0.00%)p 1.00( 99.97%)d 0.00(  0.03%)
                                         0.0000  0.0000  0.0000  0.0004  0.0000
                                         0.0000  0.0000  0.0069 -0.0001  0.0000
                                         0.0000 -0.0124  0.0002  0.0000  0.0000
                                        -0.9996  0.0140  0.0000  0.0003  0.0000
                                         0.0000  0.0154 -0.0020  0.0000 -0.0087
                                         0.0011  0.0000  0.0000  0.0000  0.0000
                                         0.0004  0.0000
  36. (1.99681) LP ( 1) I  5            s( 89.43%)p 0.12( 10.57%)d 0.00(  0.00%)
                                         0.0000  0.9456 -0.0102 -0.0001  0.0000
                                        -0.2913 -0.0095  0.0000  0.0000 -0.1441
                                        -0.0054  0.0000  0.0000 -0.0004  0.0001
                                         0.0000  0.0000 -0.0036  0.0000  0.0000
                                         0.0000  0.0000  0.0000 -0.0020  0.0000
                                         0.0021
  37. (1.97826) LP ( 2) I  5            s(  0.10%)p99.99( 99.89%)d 0.04(  0.00%)
                                         0.0000  0.0316 -0.0048  0.0005  0.0000
                                         0.5238 -0.0099  0.0000  0.0000 -0.8510
                                         0.0123  0.0000  0.0000  0.0132 -0.0002
                                         0.0000  0.0000 -0.0046  0.0000  0.0001
                                         0.0000  0.0000  0.0000  0.0046  0.0000
                                        -0.0015
[...]
   99. RY ( 3) C  2             0.00224     1.08186
  100. RY ( 4) C  2             0.00092     2.00096
  101. RY ( 5) C  2             0.00062     0.78508
  102. RY ( 6) C  2             0.00052     2.28344
  103. RY ( 7) C  2             0.00027     2.15629
  104. RY ( 8) C  2             0.00010     1.45079
  105. RY ( 9) C  2             0.00001     2.24843
  106. RY ( 1) C  3             0.00767     1.20119
  107. RY ( 2) C  3             0.00326     0.75722
  108. RY ( 3) C  3             0.00109     0.64409
  109. RY ( 4) C  3             0.00091     0.66297
  110. RY ( 5) C  3             0.00083     1.95128
  111. RY ( 6) C  3             0.00016     2.42294
  112. RY ( 7) C  3             0.00003     1.94529
  113. RY ( 8) C  3             0.00003     2.41266
  114. RY ( 9) C  3             0.00001     2.26197
  115. RY ( 1) C  4             0.00709     0.92331
  116. RY ( 2) C  4             0.00546     1.17301
  117. RY ( 3) C  4             0.00240     0.88241
  118. RY ( 4) C  4             0.00078     1.99909
  119. RY ( 5) C  4             0.00049     0.62360
  120. RY ( 6) C  4             0.00040     2.48058
  121. RY ( 7) C  4             0.00018     1.65359
  122. RY ( 8) C  4             0.00008     2.22448
  123. RY ( 9) C  4             0.00001     2.20965
  124. RY ( 1) I  5             0.00248     0.53939
  125. RY ( 2) I  5             0.00112     0.67038
  126. RY ( 3) I  5             0.00071     0.68517
  127. RY ( 4) I  5             0.00012     1.28034
  128. RY ( 5) I  5             0.00006     0.89503
  129. RY ( 6) I  5             0.00005     1.30300
  130. RY ( 7) I  5             0.00003     0.55800
  131. RY ( 8) I  5             0.00001     1.21161
  132. RY ( 9) I  5             0.00001     0.69513
  133. RY (10) I  5             0.00000    53.20832
  134. RY (11) I  5             0.00000    19.14363
  135. RY (12) I  5             0.00000    19.91661
  136. RY (13) I  5             0.00000    18.77671
  137. RY ( 1) C  6             0.00868     0.92852
  138. RY ( 2) C  6             0.00437     1.16207
  139. RY ( 3) C  6             0.00335     1.59626
  140. RY ( 4) C  6             0.00198     1.14774
  141. RY ( 5) C  6             0.00142     1.10533
  142. RY ( 6) C  6             0.00081     1.94915
  143. RY ( 7) C  6             0.00069     2.17575
  144. RY ( 8) C  6             0.00019     2.05330
  145. RY ( 9) C  6             0.00002     2.26216
  146. RY ( 1) C  7             0.00499     1.15201
  147. RY ( 2) C  7             0.00285     1.07610
  148. RY ( 3) C  7             0.00206     1.07185
  149. RY ( 4) C  7             0.00102     0.86689
  150. RY ( 5) C  7             0.00083     2.01726
  151. RY ( 6) C  7             0.00020     1.86311
  152. RY ( 7) C  7             0.00017     2.35165
  153. RY ( 8) C  7             0.00007     2.17021
  154. RY ( 9) C  7             0.00001     2.23862
  155. RY ( 1) C  8             0.00623     1.20317
  156. RY ( 2) C  8             0.00336     0.76403
  157. RY ( 3) C  8             0.00108     0.73205
  158. RY ( 4) C  8             0.00078     1.84062
  159. RY ( 5) C  8             0.00073     0.74757
  160. RY ( 6) C  8             0.00008     2.41543
  161. RY ( 7) C  8             0.00003     2.39961
  162. RY ( 8) C  8             0.00002     1.96581
  163. RY ( 9) C  8             0.00001     2.28199
  164. RY ( 1) C  9             0.00395     0.92786
  165. RY ( 2) C  9             0.00242     0.92740
  166. RY ( 3) C  9             0.00083     0.77681
  167. RY ( 4) C  9             0.00046     1.45961
  168. RY ( 5) C  9             0.00031     1.61187
  169. RY ( 6) C  9             0.00010     2.16116
  170. RY ( 7) C  9             0.00002     2.17658
  171. RY ( 8) C  9             0.00002     2.27015
  172. RY ( 9) C  9             0.00000     2.29469
  173. RY ( 1) C 10             0.00393     0.90533
  174. RY ( 2) C 10             0.00266     0.91922
  175. RY ( 3) C 10             0.00163     1.26910
  176. RY ( 4) C 10             0.00116     1.85609
  177. RY ( 5) C 10             0.00038     1.58366
  178. RY ( 6) C 10             0.00023     1.99317
  179. RY ( 7) C 10             0.00007     1.60474
  180. RY ( 8) C 10             0.00001     1.95968
  181. RY ( 9) C 10             0.00000     2.22523
  182. RY ( 1) O 11             0.00219     1.25560
  183. RY ( 2) O 11             0.00184     1.36188
  184. RY ( 3) O 11             0.00025     1.98528
  185. RY ( 4) O 11             0.00024     2.67404
  186. RY ( 5) O 11             0.00018     2.19006
  187. RY ( 6) O 11             0.00004     2.49028
  188. RY ( 7) O 11             0.00002     2.97091
  189. RY ( 8) O 11             0.00001     2.92443
  190. RY ( 9) O 11             0.00000     2.80749
  191. RY ( 1) H 12             0.00170     0.43650
  192. RY ( 2) H 12             0.00017     1.74707
  193. RY ( 3) H 12             0.00006     2.09345
  194. RY ( 4) H 12             0.00005     2.42681
  195. RY ( 1) H 13             0.00155     0.43257
  196. RY ( 2) H 13             0.00016     1.75224
  197. RY ( 3) H 13             0.00006     2.24433
  198. RY ( 4) H 13             0.00004     2.26758
  199. RY ( 1) H 14             0.00129     0.43150
  200. RY ( 2) H 14             0.00009     1.90414
  201. RY ( 3) H 14             0.00008     1.89754
  202. RY ( 4) H 14             0.00001     2.33661
  203. RY ( 1) H 15             0.00224     0.42525
  204. RY ( 2) H 15             0.00009     1.92623
  205. RY ( 3) H 15             0.00007     1.89087
  206. RY ( 4) H 15             0.00001     2.33884
  207. RY ( 1) H 16             0.00117     0.39815
  208. RY ( 2) H 16             0.00009     1.86928
  209. RY ( 3) H 16             0.00008     1.97892
  210. RY ( 4) H 16             0.00001     2.24993
  211. RY ( 1) H 17             0.00220     0.40977
  212. RY ( 2) H 17             0.00010     1.81720
  213. RY ( 3) H 17             0.00007     2.03722
  214. RY ( 4) H 17             0.00001     2.26758
          -------------------------------
                 Total Lewis  148.30883  ( 98.8726%)
           Valence non-Lewis    1.55278  (  1.0352%)
           Rydberg non-Lewis    0.13839  (  0.0923%)
          -------------------------------
               Total unit  1  150.00000  (100.0000%)
              Charge unit  1    0.00000

 $CHOOSE
   LONE 1 3 5 3 11 2 END
   BOND S 1 2 D 2 3 S 2 8 S 3 4 S 3 12 S 4 5 D 4 6 S 6 7 S 6 11 D 7 8 S 7 9
        S 8 13 S 9 10 S 9 14 S 9 15 S 10 11 S 10 16 S 10 17 END
 $END


 Checkpoint NBOs sorted by occupancy:

  Sort    Occ       Energy   Orig   Label
 -----------------------------------------------------------
    1.  2.00000  -399.72845    1.   CR ( 1)Br  1
    2.  2.00000  -130.30259    2.   CR ( 2)Br  1
    3.  2.00000   -38.08429    4.   CR ( 4)Br  1
    4.  2.00000   -38.07932    6.   CR ( 6)Br  1
    5.  2.00000   -38.07740    8.   CR ( 8)Br  1
    6.  2.00000   -24.99556    9.   CR ( 9)Br  1
    7.  2.00000    -6.96288   18.   CR ( 1) I  5
    8.  2.00000   -24.99738    7.   CR ( 7)Br  1
    9.  2.00000    -2.73619   11.   CR (11)Br  1
   10.  2.00000    -2.73017   12.   CR (12)Br  1
   11.  2.00000    -4.98151   19.   CR ( 2) I  5
   12.  2.00000    -4.97442   20.   CR ( 3) I  5
   13.  2.00000    -4.96981   21.   CR ( 4) I  5
   14.  2.00000   -25.00205    5.   CR ( 5)Br  1
   15.  2.00000    -2.00486   24.   CR ( 7) I  5
   16.  2.00000   -24.48708    3.   CR ( 3)Br  1
   17.  2.00000    -2.73864   13.   CR (13)Br  1
   18.  2.00000    -2.73148   14.   CR (14)Br  1
   19.  2.00000    -2.01087   23.   CR ( 6) I  5
   20.  1.99999    -2.73873   10.   CR (10)Br  1
   21.  1.99999    -2.01490   25.   CR ( 8) I  5
   22.  1.99999    -2.00571   26.   CR ( 9) I  5
   23.  1.99997    -2.01508   22.   CR ( 5) I  5
   24.  1.99996   -10.35948   15.   CR ( 1) C  2
   25.  1.99996   -10.32494   28.   CR ( 1) C  7
   26.  1.99996   -10.35430   17.   CR ( 1) C  4
   27.  1.99995   -10.32821   16.   CR ( 1) C  3
   28.  1.99995   -19.30127   32.   CR ( 1) O 11
   29.  1.99995   -10.37557   27.   CR ( 1) C  6
   30.  1.99995   -10.32689   29.   CR ( 1) C  8
   31.  1.99994   -10.37026   31.   CR ( 1) C 10
   32.  1.99994   -10.32813   30.   CR ( 1) C  9
   33.  1.99681    -0.70289   36.   LP ( 1) I  5
   34.  1.99442    -0.74762   33.   LP ( 1)Br  1
   35.  1.99042    -0.91311   51.   BD ( 1) C  6- O 11
   36.  1.98845    -0.82411   59.   BD ( 1) C 10- O 11
   37.  1.98756    -0.58606   61.   BD ( 1) C 10- H 17
   38.  1.98705    -0.59051   60.   BD ( 1) C 10- H 16
   39.  1.98591    -0.64362   56.   BD ( 1) C  9- C 10
   40.  1.98339    -0.64691   41.   BD ( 1)Br  1- C  2
   41.  1.97826    -0.33532   37.   LP ( 2) I  5
   42.  1.97798    -0.58148   55.   BD ( 1) C  8- H 13
   43.  1.97638    -0.36855   34.   LP ( 2)Br  1
   44.  1.97626    -0.57422   57.   BD ( 1) C  9- H 14
   45.  1.97606    -0.71066   44.   BD ( 1) C  2- C  8
   46.  1.97602    -0.57099   47.   BD ( 1) C  4- I  5
   47.  1.97571    -0.57743   46.   BD ( 1) C  3- H 12
   48.  1.97394    -0.73179   48.   BD ( 1) C  4- C  6
   49.  1.97258    -0.56880   58.   BD ( 1) C  9- H 15
   50.  1.97258    -0.71546   42.   BD ( 1) C  2- C  3
   51.  1.96933    -0.71010   45.   BD ( 1) C  3- C  4
   52.  1.96604    -0.64063   54.   BD ( 1) C  7- C  9
   53.  1.96600    -0.70176   52.   BD ( 1) C  7- C  8
   54.  1.96562    -0.56888   39.   LP ( 1) O 11
   55.  1.96208    -0.69787   50.   BD ( 1) C  6- C  7
   56.  1.95188    -0.33279   38.   LP ( 3) I  5
   57.  1.94693    -0.36445   35.   LP ( 3)Br  1
   58.  1.84206    -0.40014   40.   LP ( 2) O 11
   59.  1.70900    -0.33867   43.   BD ( 2) C  2- C  3
   60.  1.69428    -0.32796   53.   BD ( 2) C  7- C  8
   61.  1.66635    -0.34145   49.   BD ( 2) C  4- C  6
   62.  0.42344     0.05532   70.   BD*( 2) C  4- C  6
   63.  0.38513     0.05968   64.   BD*( 2) C  2- C  3
   64.  0.34128     0.08268   74.   BD*( 2) C  7- C  8
   65.  0.03914     0.63433   71.   BD*( 1) C  6- C  7
   66.  0.03503     0.64627   69.   BD*( 1) C  4- C  6
   67.  0.02836     0.46686   72.   BD*( 1) C  6- O 11
   68.  0.02798     0.64448   63.   BD*( 1) C  2- C  3
   69.  0.02683     0.18982   62.   BD*( 1)Br  1- C  2
   70.  0.02675     0.15743   68.   BD*( 1) C  4- I  5
   71.  0.02525     0.67282   73.   BD*( 1) C  7- C  8
   72.  0.02511     0.63456   65.   BD*( 1) C  2- C  8
   73.  0.02271     0.63806   66.   BD*( 1) C  3- C  4
   74.  0.02126     0.52733   82.   BD*( 1) C 10- H 17
   75.  0.02053     0.49309   75.   BD*( 1) C  7- C  9
   76.  0.01724     0.52449   79.   BD*( 1) C  9- H 15
   77.  0.01718     0.35266   80.   BD*( 1) C 10- O 11
   78.  0.01478     0.54676   76.   BD*( 1) C  8- H 13
   79.  0.01447     0.43451   77.   BD*( 1) C  9- C 10
   80.  0.01445     0.55418   67.   BD*( 1) C  3- H 12
   81.  0.01415     0.54141   81.   BD*( 1) C 10- H 16
   82.  0.01173     0.52948   78.   BD*( 1) C  9- H 14
   83.  0.00868     0.92852  137.   RY ( 1) C  6
   84.  0.00767     1.20119  106.   RY ( 1) C  3
   85.  0.00709     0.92331  115.   RY ( 1) C  4
   86.  0.00698     1.16666   97.   RY ( 1) C  2
   87.  0.00624     0.85835   98.   RY ( 2) C  2
   88.  0.00623     1.20317  155.   RY ( 1) C  8
   89.  0.00546     1.17301  116.   RY ( 2) C  4
   90.  0.00499     1.15201  146.   RY ( 1) C  7
   91.  0.00437     1.16207  138.   RY ( 2) C  6
   92.  0.00395     0.92786  164.   RY ( 1) C  9
   93.  0.00393     0.90533  173.   RY ( 1) C 10
   94.  0.00336     0.76403  156.   RY ( 2) C  8
   95.  0.00335     1.59626  139.   RY ( 3) C  6
   96.  0.00326     0.75722  107.   RY ( 2) C  3
   97.  0.00291     0.68064   83.   RY ( 1)Br  1
   98.  0.00285     1.07610  147.   RY ( 2) C  7
   99.  0.00266     0.91922  174.   RY ( 2) C 10
  100.  0.00248     0.53939  124.   RY ( 1) I  5
  101.  0.00242     0.92740  165.   RY ( 2) C  9
  102.  0.00240     0.88241  117.   RY ( 3) C  4
  103.  0.00224     0.42525  203.   RY ( 1) H 15
  104.  0.00224     1.08186   99.   RY ( 3) C  2
  105.  0.00220     0.40977  211.   RY ( 1) H 17
  106.  0.00219     1.25560  182.   RY ( 1) O 11
  107.  0.00206     1.07185  148.   RY ( 3) C  7
  108.  0.00198     1.14774  140.   RY ( 4) C  6
  109.  0.00184     1.36188  183.   RY ( 2) O 11
  110.  0.00170     0.43650  191.   RY ( 1) H 12
  111.  0.00163     1.26910  175.   RY ( 3) C 10
  112.  0.00155     0.43257  195.   RY ( 1) H 13
  113.  0.00142     1.10533  141.   RY ( 5) C  6
  114.  0.00129     0.43150  199.   RY ( 1) H 14
  115.  0.00122     0.77917   84.   RY ( 2)Br  1
  116.  0.00117     0.39815  207.   RY ( 1) H 16
  117.  0.00116     1.85609  176.   RY ( 4) C 10
  118.  0.00112     0.67038  125.   RY ( 2) I  5
  119.  0.00109     0.64409  108.   RY ( 3) C  3
  120.  0.00108     0.73205  157.   RY ( 3) C  8
  121.  0.00102     0.86689  149.   RY ( 4) C  7
  122.  0.00092     2.00096  100.   RY ( 4) C  2
  123.  0.00091     0.66297  109.   RY ( 4) C  3
  124.  0.00083     1.95128  110.   RY ( 5) C  3
  125.  0.00083     0.77681  166.   RY ( 3) C  9
  126.  0.00083     2.01726  150.   RY ( 5) C  7
  127.  0.00081     1.94915  142.   RY ( 6) C  6
  128.  0.00078     1.84062  158.   RY ( 4) C  8
  129.  0.00078     1.99909  118.   RY ( 4) C  4
  130.  0.00073     0.74757  159.   RY ( 5) C  8
  131.  0.00071     0.68517  126.   RY ( 3) I  5
  132.  0.00069     2.17575  143.   RY ( 7) C  6
  133.  0.00062     0.78508  101.   RY ( 5) C  2
  134.  0.00052     2.28344  102.   RY ( 6) C  2
  135.  0.00049     0.62360  119.   RY ( 5) C  4
  136.  0.00046     1.45961  167.   RY ( 4) C  9
  137.  0.00040     2.48058  120.   RY ( 6) C  4
  138.  0.00038     1.58366  177.   RY ( 5) C 10
  139.  0.00031     0.62519   85.   RY ( 3)Br  1
  140.  0.00031     1.61187  168.   RY ( 5) C  9
  141.  0.00027     2.15629  103.   RY ( 7) C  2
  142.  0.00025     1.98528  184.   RY ( 3) O 11
  143.  0.00024     2.67404  185.   RY ( 4) O 11
  144.  0.00023     1.99317  178.   RY ( 6) C 10
  145.  0.00020     1.86311  151.   RY ( 6) C  7
  146.  0.00019     2.05330  144.   RY ( 8) C  6
  147.  0.00018     2.19006  186.   RY ( 5) O 11
  148.  0.00018     1.65359  121.   RY ( 7) C  4
  149.  0.00017     2.35165  152.   RY ( 7) C  7
  150.  0.00017     1.74707  192.   RY ( 2) H 12
  151.  0.00016     1.75224  196.   RY ( 2) H 13
  152.  0.00016     2.42294  111.   RY ( 6) C  3
  153.  0.00012     1.28034  127.   RY ( 4) I  5
  154.  0.00010     1.45079  104.   RY ( 8) C  2
  155.  0.00010     1.02918   86.   RY ( 4)Br  1
  156.  0.00010     2.16116  169.   RY ( 6) C  9
  157.  0.00010     1.81720  212.   RY ( 2) H 17
  158.  0.00009     1.92623  204.   RY ( 2) H 15
  159.  0.00009     1.90414  200.   RY ( 2) H 14
  160.  0.00009     1.86928  208.   RY ( 2) H 16
  161.  0.00008     2.41543  160.   RY ( 6) C  8
  162.  0.00008     2.22448  122.   RY ( 8) C  4
  163.  0.00008     1.89754  201.   RY ( 3) H 14
  164.  0.00008     1.97892  209.   RY ( 3) H 16
  165.  0.00007     2.03722  213.   RY ( 3) H 17
  166.  0.00007     1.89087  205.   RY ( 3) H 15
  167.  0.00007     1.60474  179.   RY ( 7) C 10
  168.  0.00007     2.17021  153.   RY ( 8) C  7
  169.  0.00006     0.89503  128.   RY ( 5) I  5
  170.  0.00006     2.09345  193.   RY ( 3) H 12
  171.  0.00006     2.24433  197.   RY ( 3) H 13
  172.  0.00005     1.30300  129.   RY ( 6) I  5
  173.  0.00005     2.42681  194.   RY ( 4) H 12
  174.  0.00004     0.62037   87.   RY ( 5)Br  1
  175.  0.00004     2.49028  187.   RY ( 6) O 11
  176.  0.00004     2.26758  198.   RY ( 4) H 13
  177.  0.00003     1.94529  112.   RY ( 7) C  3
  178.  0.00003     2.41266  113.   RY ( 8) C  3
  179.  0.00003     0.55800  130.   RY ( 7) I  5
  180.  0.00003     2.39961  161.   RY ( 7) C  8
  181.  0.00002     2.17658  170.   RY ( 7) C  9
  182.  0.00002     2.26216  145.   RY ( 9) C  6
  183.  0.00002     1.96581  162.   RY ( 8) C  8
  184.  0.00002     2.27015  171.   RY ( 8) C  9
  185.  0.00002     2.97091  188.   RY ( 7) O 11
  186.  0.00001     0.88611   88.   RY ( 6)Br  1
  187.  0.00001     1.21161  131.   RY ( 8) I  5
  188.  0.00001     2.23862  154.   RY ( 9) C  7
  189.  0.00001     1.95968  180.   RY ( 8) C 10
  190.  0.00001     0.90484   89.   RY ( 7)Br  1
  191.  0.00001     2.33661  202.   RY ( 4) H 14
  192.  0.00001     2.26197  114.   RY ( 9) C  3
  193.  0.00001     2.20965  123.   RY ( 9) C  4
  194.  0.00001     0.69513  132.   RY ( 9) I  5
  195.  0.00001     2.33884  206.   RY ( 4) H 15
  196.  0.00001     2.24993  210.   RY ( 4) H 16
  197.  0.00001     2.28199  163.   RY ( 9) C  8
  198.  0.00001     1.00612   90.   RY ( 8)Br  1
  199.  0.00001     2.24843  105.   RY ( 9) C  2
  200.  0.00001     2.26758  214.   RY ( 4) H 17
  201.  0.00001     2.92443  189.   RY ( 8) O 11
  202.  0.00000     0.88546   91.   RY ( 9)Br  1
  203.  0.00000     2.29469  172.   RY ( 9) C  9
  204.  0.00000     2.22523  181.   RY ( 9) C 10
  205.  0.00000     2.80749  190.   RY ( 9) O 11
  206.  0.00000     3.45816   92.   RY (10)Br  1
  207.  0.00000     3.52311   93.   RY (11)Br  1
  208.  0.00000     3.67793   94.   RY (12)Br  1
  209.  0.00000     3.61404   95.   RY (13)Br  1
  210.  0.00000     3.38039   96.   RY (14)Br  1
  211.  0.00000    53.20832  133.   RY (10) I  5
  212.  0.00000    19.14363  134.   RY (11) I  5
  213.  0.00000    19.91661  135.   RY (12) I  5
  214.  0.00000    18.77671  136.   RY (13) I  5

 NBO analysis completed in 1.43 CPU seconds (2 wall seconds)
 Maximum scratch memory used by NBO was 889384 words (6.79 MB)
 Maximum scratch memory used by G16NBO was 78526 words (0.60 MB)

 Opening RunExU unformatted file "/home/rpaton/opt/dzvp/popn/Gau-1012967.EUF"
 Read unf file /home/rpaton/opt/dzvp/popn/Gau-1012967.EUF:
 Label Gaussian matrix elements                                         IVers= 2 NLab= 2 Version=ES64L-G16RevC.01
 Title arbr48_wb97xd_popncreated by GaussianPrep                       
 NAtoms=    17 NBasis=   214 NBsUse=   214 ICharg=     0 Multip=     1 NE=   122 Len12L=8 Len4L=8 IOpCl= 0 ICGU=111
 GAUSSIAN SCALARS                    NI= 1 NR= 1 NTot=       1 LenBuf=    2 NRI=1 N=    1000
 ALPHA ORBITAL ENERGIES              NI= 0 NR= 1 NTot=     214 LenBuf= 2048 NRI=1 N=     214
 ALPHA MO COEFFICIENTS               NI= 0 NR= 1 NTot=   45796 LenBuf= 2048 NRI=1 N=     214     214
 Store file  10524 Len=   45796.
 NPA CHARGES                         NI= 0 NR= 1 NTot=      17 LenBuf= 2048 NRI=1 N=      17
 Recovered energy= -3254.95360483     dipole=      0.026666732916      1.295597827885      0.047537840589
 Unable to Open any file for archive entry.
 1\1\GINC-DYNAMO\SP\RwB97XD\def2SVP\C8H6Br1I1O1\RPATON\26-Sep-2024\0\\#
  pop=(nbo6read,savenbos,hirshfeld) wb97xd/def2svp\\arbr48_wb97xd_popnc
 reated by GaussianPrep\\0,1\Br,0,3.504829,-0.904999,0.016071\C,0,1.836
 599,-0.009438,-0.006232\C,0,0.662336,-0.759965,-0.003862\C,0,-0.580843
 ,-0.117488,-0.013911\I,0,-2.36571,-1.213777,-0.002823\C,0,-0.607771,1.
 272953,-0.02633\C,0,0.575812,2.017683,-0.032756\C,0,1.809722,1.389774,
 -0.025824\C,0,0.188045,3.472896,-0.112959\C,0,-1.324375,3.394647,0.172
 693\O,0,-1.715548,2.0329,-0.040732\H,0,0.712622,-1.849315,0.011161\H,0
 ,2.738256,1.962565,-0.03663\H,0,0.715264,4.104821,0.615304\H,0,0.39757
 ,3.874198,-1.11778\H,0,-1.933212,4.028771,-0.484097\H,0,-1.549675,3.65
 4561,1.220142\\Version=ES64L-G16RevC.01\State=1-A\HF=-3254.9536048\RMS
 D=7.709e-09\Dipole=0.0266668,1.2955978,0.0475378\Quadrupole=-4.8756674
 ,9.1369714,-4.261304,1.3076302,-0.2638581,0.2292741\PG=C01 [X(C8H6Br1I
 1O1)]\\@
 The archive entry for this job was punched.


 You can't act like a skunk without someone's getting wind of it.
 -- Lorene Workman
 Job cpu time:       0 days  0 hours  7 minutes 48.9 seconds.
 Elapsed time:       0 days  0 hours  0 minutes 20.0 seconds.
 File lengths (MBytes):  RWF=     32 Int=      0 D2E=      0 Chk=      3 Scr=      1
 Normal termination of Gaussian 16 at Thu Sep 26 10:57:11 2024.
