Job Start Time: Mon Jan 29 12:53:56 MST 2024
SLURM Job ID: 229734
SLURM Job Name: Ac7_rdkit_conf_1_SP_IE
 Entering Gaussian System, Link 0=/opt/apps/Gaussian/G16C/g16/g16
 Initial command:
 /opt/apps/Gaussian/G16C/g16/l1.exe "/tmp/Gau-62387.inp" -scrdir="/tmp/"
 Entering Link 1 = /opt/apps/Gaussian/G16C/g16/l1.exe PID=     62390.
  
 Copyright (c) 1988-2019, Gaussian, Inc.  All Rights Reserved.
  
 This is part of the Gaussian(R) 16 program.  It is based on
 the Gaussian(R) 09 system (copyright 2009, Gaussian, Inc.),
 the Gaussian(R) 03 system (copyright 2003, Gaussian, Inc.),
 the Gaussian(R) 98 system (copyright 1998, Gaussian, Inc.),
 the Gaussian(R) 94 system (copyright 1995, Gaussian, Inc.),
 the Gaussian 92(TM) system (copyright 1992, Gaussian, Inc.),
 the Gaussian 90(TM) system (copyright 1990, Gaussian, Inc.),
 the Gaussian 88(TM) system (copyright 1988, Gaussian, Inc.),
 the Gaussian 86(TM) system (copyright 1986, Carnegie Mellon
 University), and the Gaussian 82(TM) system (copyright 1983,
 Carnegie Mellon University). Gaussian is a federally registered
 trademark of Gaussian, Inc.
  
 This software contains proprietary and confidential information,
 including trade secrets, belonging to Gaussian, Inc.
  
 This software is provided under written license and may be
 used, copied, transmitted, or stored only in accord with that
 written license.
  
 The following legend is applicable only to US Government
 contracts under FAR:
  
                    RESTRICTED RIGHTS LEGEND
  
 Use, reproduction and disclosure by the US Government is
 subject to restrictions as set forth in subparagraphs (a)
 and (c) of the Commercial Computer Software - Restricted
 Rights clause in FAR 52.227-19.
  
 Gaussian, Inc.
 340 Quinnipiac St., Bldg. 40, Wallingford CT 06492
  
  
 ---------------------------------------------------------------
 Warning -- This program may not be used in any manner that
 competes with the business of Gaussian, Inc. or will provide
 assistance to any competitor of Gaussian, Inc.  The licensee
 of this program is prohibited from giving any competitor of
 Gaussian, Inc. access to this program.  By using this program,
 the user acknowledges that Gaussian, Inc. is engaged in the
 business of creating and licensing software in the field of
 computational chemistry and represents and warrants to the
 licensee that it is not a competitor of Gaussian, Inc. and that
 it will not use this program in any manner prohibited above.
 ---------------------------------------------------------------
  

 Cite this work as:
 Gaussian 16, Revision C.01,
 M. J. Frisch, G. W. Trucks, H. B. Schlegel, G. E. Scuseria, 
 M. A. Robb, J. R. Cheeseman, G. Scalmani, V. Barone, 
 G. A. Petersson, H. Nakatsuji, X. Li, M. Caricato, A. V. Marenich, 
 J. Bloino, B. G. Janesko, R. Gomperts, B. Mennucci, H. P. Hratchian, 
 J. V. Ortiz, A. F. Izmaylov, J. L. Sonnenberg, D. Williams-Young, 
 F. Ding, F. Lipparini, F. Egidi, J. Goings, B. Peng, A. Petrone, 
 T. Henderson, D. Ranasinghe, V. G. Zakrzewski, J. Gao, N. Rega, 
 G. Zheng, W. Liang, M. Hada, M. Ehara, K. Toyota, R. Fukuda, 
 J. Hasegawa, M. Ishida, T. Nakajima, Y. Honda, O. Kitao, H. Nakai, 
 T. Vreven, K. Throssell, J. A. Montgomery, Jr., J. E. Peralta, 
 F. Ogliaro, M. J. Bearpark, J. J. Heyd, E. N. Brothers, K. N. Kudin, 
 V. N. Staroverov, T. A. Keith, R. Kobayashi, J. Normand, 
 K. Raghavachari, A. P. Rendell, J. C. Burant, S. S. Iyengar, 
 J. Tomasi, M. Cossi, J. M. Millam, M. Klene, C. Adamo, R. Cammi, 
 J. W. Ochterski, R. L. Martin, K. Morokuma, O. Farkas, 
 J. B. Foresman, and D. J. Fox, Gaussian, Inc., Wallingford CT, 2019.
 
 ******************************************
 Gaussian 16:  AS64L-G16RevC.01  3-Jul-2019
                29-Jan-2024 
 ******************************************
 %nprocshared=8
 Will use up to    8 processors via shared memory.
 %mem=16GB
 ----------------
 # m062x/def2tzvp
 ----------------
 1/38=1,172=1/1;
 2/12=2,17=6,18=5,40=1/2;
 3/5=44,7=101,11=2,25=1,30=1,74=-55/1,2,3;
 4//1;
 5/5=2,38=5/2;
 6/7=2,8=2,9=2,10=2,28=1/1;
 99/5=1,9=1/99;
 ----------------------
 Ac7_rdkit_conf_1_SP_IE
 ----------------------
 Symbolic Z-matrix:
 Charge =  1 Multiplicity = 2
 O                    -1.7018   -1.2396   -0.6893 
 C                    -1.49361  -0.22711  -0.08027 
 O                    -2.2872    0.85536  -0.21497 
 C                    -0.38623  -0.00364   0.92826 
 C                     0.60446  -1.16822   0.92127 
 C                     1.46721  -1.17789  -0.34063 
 C                     2.16652   0.16312  -0.55299 
 C                     1.15698   1.30885  -0.58058 
 C                     0.32901   1.33589   0.70166 
 H                    -2.98012   0.61761  -0.84759 
 H                    -0.89971   0.03817   1.89496 
 H                     1.24824  -1.06397   1.79968 
 H                     0.0669   -2.11156   1.01784 
 H                     2.20198  -1.98237  -0.27469 
 H                     0.83213  -1.39827  -1.20235 
 H                     2.74496   0.14433  -1.4785 
 H                     2.87763   0.33636   0.26244 
 H                     1.66538   2.26543  -0.71398 
 H                     0.48995   1.18468  -1.44156 
 H                    -0.39456   2.14994   0.68387 
 H                     0.99321   1.50763   1.55369 
 
                          Input orientation:                          
 ---------------------------------------------------------------------
 Center     Atomic      Atomic             Coordinates (Angstroms)
 Number     Number       Type             X           Y           Z
 ---------------------------------------------------------------------
      1          8           0       -1.701797   -1.239603   -0.689302
      2          6           0       -1.493609   -0.227111   -0.080266
      3          8           0       -2.287202    0.855359   -0.214972
      4          6           0       -0.386233   -0.003644    0.928262
      5          6           0        0.604460   -1.168217    0.921268
      6          6           0        1.467205   -1.177890   -0.340629
      7          6           0        2.166519    0.163116   -0.552988
      8          6           0        1.156982    1.308854   -0.580577
      9          6           0        0.329012    1.335888    0.701662
     10          1           0       -2.980124    0.617613   -0.847587
     11          1           0       -0.899706    0.038165    1.894960
     12          1           0        1.248236   -1.063965    1.799676
     13          1           0        0.066899   -2.111564    1.017842
     14          1           0        2.201981   -1.982366   -0.274689
     15          1           0        0.832128   -1.398273   -1.202354
     16          1           0        2.744955    0.144326   -1.478504
     17          1           0        2.877627    0.336362    0.262437
     18          1           0        1.665382    2.265431   -0.713978
     19          1           0        0.489953    1.184681   -1.441557
     20          1           0       -0.394561    2.149941    0.683867
     21          1           0        0.993205    1.507628    1.553694
 ---------------------------------------------------------------------
                    Distance matrix (angstroms):
                    1          2          3          4          5
     1  O    0.000000
     2  C    1.199753   0.000000
     3  O    2.226332   1.348954   0.000000
     4  C    2.423802   1.514380   2.378771   0.000000
     5  C    2.813868   2.508116   3.707777   1.528971   0.000000
     6  C    3.188723   3.120607   4.271471   2.534595   1.528662
     7  C    4.117046   3.711102   4.519855   2.956087   2.527035
     8  C    3.831328   3.104051   3.493097   2.526016   2.949017
     9  C    3.562600   2.525139   2.813486   1.535340   2.528763
    10  H    2.260183   1.874051   0.967918   3.204352   4.378045
    11  H    2.992399   2.079570   2.654197   1.095403   2.160081
    12  H    3.863749   3.428151   4.499104   2.134275   1.094037
    13  H    2.608245   2.681826   3.982996   2.157934   1.090047
    14  H    3.995383   4.095864   5.311216   3.472936   2.155278
    15  H    2.590207   2.835446   3.972908   2.822927   2.148145
    16  H    4.723527   4.478667   5.236858   3.952057   3.473240
    17  H    4.935646   4.420707   5.212747   3.348389   2.804479
    18  H    4.860429   4.073522   4.226137   3.471999   3.948357
    19  H    3.353626   2.789406   3.053777   2.792107   3.336493
    20  H    3.883744   2.728036   2.462914   2.167424   3.473410
    21  H    4.454362   3.444327   3.783478   2.139616   2.776910
                    6          7          8          9         10
     6  C    0.000000
     7  C    1.527231   0.000000
     8  C    2.517481   1.527299   0.000000
     9  C    2.949735   2.515149   1.526565   0.000000
    10  H    4.822818   5.175064   4.202946   3.723771   0.000000
    11  H    3.475473   3.925532   3.460188   2.148905   3.490768
    12  H    2.154491   2.807846   3.362172   2.794620   5.264479
    13  H    2.162879   3.471323   3.929693   3.471829   4.495840
    14  H    1.091524   2.163747   3.466658   3.933457   5.826003
    15  H    1.092914   2.154115   2.796547   3.369575   4.326999
    16  H    2.162327   1.091568   2.164268   3.465505   5.779151
    17  H    2.155444   1.095722   2.148728   2.772618   5.968626
    18  H    3.469167   2.167207   1.091470   2.157307   4.930911
    19  H    2.783668   2.155000   1.096190   2.154566   3.565922
    20  H    3.948446   3.469354   2.171067   1.089292   3.373206
    21  H    3.320413   2.760885   2.149755   1.093895   4.727115
                   11         12         13         14         15
    11  H    0.000000
    12  H    2.416076   0.000000
    13  H    2.514954   1.761898   0.000000
    14  H    4.290732   2.460910   2.499181   0.000000
    15  H    3.828310   3.049113   2.454308   1.754487   0.000000
    16  H    4.967402   3.800868   4.300322   2.503360   2.472808
    17  H    4.125809   2.641767   3.803048   2.474167   3.055918
    18  H    4.283334   4.192534   4.971160   4.304032   3.788872
    19  H    3.791833   4.017088   4.134350   3.784549   2.616477
    20  H    2.486265   3.777963   4.299408   4.973612   4.201478
    21  H    2.420516   2.595889   3.774087   4.121187   4.008242
                   16         17         18         19         20
    16  H    0.000000
    17  H    1.756518   0.000000
    18  H    2.499813   2.478756   0.000000
    19  H    2.483694   3.053560   1.754715   0.000000
    20  H    4.307540   3.764822   2.492122   2.496301   0.000000
    21  H    3.757851   2.567149   2.483631   3.054355   1.759278
                   21
    21  H    0.000000
 Stoichiometry    C7H12O2(1+,2)
 Framework group  C1[X(C7H12O2)]
 Deg. of freedom    57
 Full point group                 C1      NOp   1
 Largest Abelian subgroup         C1      NOp   1
 Largest concise Abelian subgroup C1      NOp   1
                         Standard orientation:                         
 ---------------------------------------------------------------------
 Center     Atomic      Atomic             Coordinates (Angstroms)
 Number     Number       Type             X           Y           Z
 ---------------------------------------------------------------------
      1          8           0       -1.701797   -1.239603   -0.689302
      2          6           0       -1.493609   -0.227111   -0.080266
      3          8           0       -2.287202    0.855359   -0.214972
      4          6           0       -0.386233   -0.003644    0.928262
      5          6           0        0.604460   -1.168217    0.921268
      6          6           0        1.467205   -1.177890   -0.340629
      7          6           0        2.166519    0.163116   -0.552988
      8          6           0        1.156982    1.308854   -0.580577
      9          6           0        0.329012    1.335888    0.701662
     10          1           0       -2.980124    0.617613   -0.847587
     11          1           0       -0.899706    0.038165    1.894960
     12          1           0        1.248236   -1.063965    1.799676
     13          1           0        0.066899   -2.111564    1.017842
     14          1           0        2.201981   -1.982366   -0.274689
     15          1           0        0.832128   -1.398273   -1.202354
     16          1           0        2.744955    0.144326   -1.478504
     17          1           0        2.877627    0.336362    0.262437
     18          1           0        1.665382    2.265431   -0.713978
     19          1           0        0.489953    1.184681   -1.441557
     20          1           0       -0.394561    2.149941    0.683867
     21          1           0        0.993205    1.507628    1.553694
 ---------------------------------------------------------------------
 Rotational constants (GHZ):           2.5310325           1.4006431           1.1569964
 Standard basis: def2TZVP (5D, 7F)
 There are   396 symmetry adapted cartesian basis functions of A   symmetry.
 There are   351 symmetry adapted basis functions of A   symmetry.
   351 basis functions,   555 primitive gaussians,   396 cartesian basis functions
    35 alpha electrons       34 beta electrons
       nuclear repulsion energy       488.4188804523 Hartrees.
 NAtoms=   21 NActive=   21 NUniq=   21 SFac= 1.00D+00 NAtFMM=   60 NAOKFM=F Big=F
 Integral buffers will be    131072 words long.
 Raffenetti 2 integral format.
 Two-electron integral symmetry is turned on.
 One-electron integrals computed using PRISM.
   1 Symmetry operations used in ECPInt.
 ECPInt:  NShTT=   10878 NPrTT=   32112 LenC2=   10694 LenP2D=   25391.
 LDataN:  DoStor=T MaxTD1= 6 Len=  172
 NBasis=   351 RedAO= T EigKep=  7.65D-05  NBF=   351
 NBsUse=   351 1.00D-06 EigRej= -1.00D+00 NBFU=   351
 ExpMin= 9.52D-02 ExpMax= 2.70D+04 ExpMxC= 9.22D+02 IAcc=3 IRadAn=         5 AccDes= 0.00D+00
 Harris functional with IExCor= 1009 and IRadAn=       5 diagonalized for initial guess.
 HarFok:  IExCor= 1009 AccDes= 0.00D+00 IRadAn=         5 IDoV= 1 UseB2=F ITyADJ=14
 ICtDFT=  3500011 ScaDFX=  1.000000  1.000000  1.000000  1.000000
 FoFCou: FMM=F IPFlag=           0 FMFlag=      100000 FMFlg1=           0
         NFxFlg=           0 DoJE=T BraDBF=F KetDBF=T FulRan=T
         wScrn=  0.000000 ICntrl=       500 IOpCl=  0 I1Cent=   200000004 NGrid=           0
         NMat0=    1 NMatS0=      1 NMatT0=    0 NMatD0=    1 NMtDS0=    0 NMtDT0=    0
 Petite list used in FoFCou.
 Initial guess <Sx>= 0.0000 <Sy>= 0.0000 <Sz>= 0.5000 <S**2>= 0.7500 S= 0.5000
 Requested convergence on RMS density matrix=1.00D-08 within 128 cycles.
 Requested convergence on MAX density matrix=1.00D-06.
 Requested convergence on             energy=1.00D-06.
 No special actions if energy rises.
 Integral accuracy reduced to 1.0D-05 until final iterations.
 Initial convergence to 1.0D-05 achieved.  Increase integral accuracy.
 SCF Done:  E(UM062X) =  -424.051337145     A.U. after   32 cycles
            NFock= 32  Conv=0.85D-08     -V/T= 2.0047
 <Sx>= 0.0000 <Sy>= 0.0000 <Sz>= 0.5000 <S**2>= 0.7577 S= 0.5039
 <L.S>=  0.00000000000    
 Annihilation of the first spin contaminant:
 S**2 before annihilation     0.7577,   after     0.7500

 **********************************************************************

            Population analysis using the SCF Density.

 **********************************************************************

 Orbital symmetries:
 Alpha Orbitals:
       Occupied  (A) (A) (A) (A) (A) (A) (A) (A) (A) (A) (A) (A)
                 (A) (A) (A) (A) (A) (A) (A) (A) (A) (A) (A) (A)
                 (A) (A) (A) (A) (A) (A) (A) (A) (A) (A) (A)
       Virtual   (A) (A) (A) (A) (A) (A) (A) (A) (A) (A) (A) (A)
                 (A) (A) (A) (A) (A) (A) (A) (A) (A) (A) (A) (A)
                 (A) (A) (A) (A) (A) (A) (A) (A) (A) (A) (A) (A)
                 (A) (A) (A) (A) (A) (A) (A) (A) (A) (A) (A) (A)
                 (A) (A) (A) (A) (A) (A) (A) (A) (A) (A) (A) (A)
                 (A) (A) (A) (A) (A) (A) (A) (A) (A) (A) (A) (A)
                 (A) (A) (A) (A) (A) (A) (A) (A) (A) (A) (A) (A)
                 (A) (A) (A) (A) (A) (A) (A) (A) (A) (A) (A) (A)
                 (A) (A) (A) (A) (A) (A) (A) (A) (A) (A) (A) (A)
                 (A) (A) (A) (A) (A) (A) (A) (A) (A) (A) (A) (A)
                 (A) (A) (A) (A) (A) (A) (A) (A) (A) (A) (A) (A)
                 (A) (A) (A) (A) (A) (A) (A) (A) (A) (A) (A) (A)
                 (A) (A) (A) (A) (A) (A) (A) (A) (A) (A) (A) (A)
                 (A) (A) (A) (A) (A) (A) (A) (A) (A) (A) (A) (A)
                 (A) (A) (A) (A) (A) (A) (A) (A) (A) (A) (A) (A)
                 (A) (A) (A) (A) (A) (A) (A) (A) (A) (A) (A) (A)
                 (A) (A) (A) (A) (A) (A) (A) (A) (A) (A) (A) (A)
                 (A) (A) (A) (A) (A) (A) (A) (A) (A) (A) (A) (A)
                 (A) (A) (A) (A) (A) (A) (A) (A) (A) (A) (A) (A)
                 (A) (A) (A) (A) (A) (A) (A) (A) (A) (A) (A) (A)
                 (A) (A) (A) (A) (A) (A) (A) (A) (A) (A) (A) (A)
                 (A) (A) (A) (A) (A) (A) (A) (A) (A) (A) (A) (A)
                 (A) (A) (A) (A) (A) (A) (A) (A) (A) (A) (A) (A)
                 (A) (A) (A) (A) (A) (A) (A) (A) (A) (A) (A) (A)
                 (A) (A) (A) (A) (A) (A) (A) (A) (A) (A) (A) (A)
                 (A) (A) (A) (A) (A) (A) (A) (A) (A) (A) (A) (A)
                 (A) (A) (A) (A)
 Beta  Orbitals:
       Occupied  (A) (A) (A) (A) (A) (A) (A) (A) (A) (A) (A) (A)
                 (A) (A) (A) (A) (A) (A) (A) (A) (A) (A) (A) (A)
                 (A) (A) (A) (A) (A) (A) (A) (A) (A) (A)
       Virtual   (A) (A) (A) (A) (A) (A) (A) (A) (A) (A) (A) (A)
                 (A) (A) (A) (A) (A) (A) (A) (A) (A) (A) (A) (A)
                 (A) (A) (A) (A) (A) (A) (A) (A) (A) (A) (A) (A)
                 (A) (A) (A) (A) (A) (A) (A) (A) (A) (A) (A) (A)
                 (A) (A) (A) (A) (A) (A) (A) (A) (A) (A) (A) (A)
                 (A) (A) (A) (A) (A) (A) (A) (A) (A) (A) (A) (A)
                 (A) (A) (A) (A) (A) (A) (A) (A) (A) (A) (A) (A)
                 (A) (A) (A) (A) (A) (A) (A) (A) (A) (A) (A) (A)
                 (A) (A) (A) (A) (A) (A) (A) (A) (A) (A) (A) (A)
                 (A) (A) (A) (A) (A) (A) (A) (A) (A) (A) (A) (A)
                 (A) (A) (A) (A) (A) (A) (A) (A) (A) (A) (A) (A)
                 (A) (A) (A) (A) (A) (A) (A) (A) (A) (A) (A) (A)
                 (A) (A) (A) (A) (A) (A) (A) (A) (A) (A) (A) (A)
                 (A) (A) (A) (A) (A) (A) (A) (A) (A) (A) (A) (A)
                 (A) (A) (A) (A) (A) (A) (A) (A) (A) (A) (A) (A)
                 (A) (A) (A) (A) (A) (A) (A) (A) (A) (A) (A) (A)
                 (A) (A) (A) (A) (A) (A) (A) (A) (A) (A) (A) (A)
                 (A) (A) (A) (A) (A) (A) (A) (A) (A) (A) (A) (A)
                 (A) (A) (A) (A) (A) (A) (A) (A) (A) (A) (A) (A)
                 (A) (A) (A) (A) (A) (A) (A) (A) (A) (A) (A) (A)
                 (A) (A) (A) (A) (A) (A) (A) (A) (A) (A) (A) (A)
                 (A) (A) (A) (A) (A) (A) (A) (A) (A) (A) (A) (A)
                 (A) (A) (A) (A) (A) (A) (A) (A) (A) (A) (A) (A)
                 (A) (A) (A) (A) (A) (A) (A) (A) (A) (A) (A) (A)
                 (A) (A) (A) (A) (A) (A) (A) (A) (A) (A) (A) (A)
                 (A) (A) (A) (A) (A) (A) (A) (A) (A) (A) (A) (A)
                 (A) (A) (A) (A) (A)
 The electronic state is 2-A.
 Alpha  occ. eigenvalues --  -19.96824 -19.92379 -10.94337 -10.77372 -10.71680
 Alpha  occ. eigenvalues --  -10.70917 -10.68935 -10.68822 -10.67677  -1.53174
 Alpha  occ. eigenvalues --   -1.42561  -1.14131  -1.04604  -1.01469  -0.96292
 Alpha  occ. eigenvalues --   -0.89009  -0.87748  -0.85805  -0.84719  -0.80886
 Alpha  occ. eigenvalues --   -0.78457  -0.73258  -0.72171  -0.69583  -0.67874
 Alpha  occ. eigenvalues --   -0.67517  -0.66673  -0.62114  -0.61985  -0.61086
 Alpha  occ. eigenvalues --   -0.60629  -0.57498  -0.54126  -0.52852  -0.52524
 Alpha virt. eigenvalues --   -0.20432  -0.11551  -0.08208  -0.06022  -0.04881
 Alpha virt. eigenvalues --   -0.03508  -0.01924  -0.01824  -0.00573   0.00131
 Alpha virt. eigenvalues --    0.00483   0.01904   0.02251   0.02664   0.04686
 Alpha virt. eigenvalues --    0.05276   0.06582   0.06748   0.07402   0.09250
 Alpha virt. eigenvalues --    0.10352   0.11383   0.11935   0.12307   0.12617
 Alpha virt. eigenvalues --    0.12927   0.14686   0.14761   0.17928   0.18653
 Alpha virt. eigenvalues --    0.21392   0.21794   0.22678   0.25062   0.25223
 Alpha virt. eigenvalues --    0.26671   0.27662   0.28019   0.28727   0.29204
 Alpha virt. eigenvalues --    0.30284   0.31272   0.31815   0.32329   0.32643
 Alpha virt. eigenvalues --    0.33337   0.33870   0.34647   0.35285   0.36017
 Alpha virt. eigenvalues --    0.36611   0.37232   0.37920   0.38368   0.39224
 Alpha virt. eigenvalues --    0.40599   0.41321   0.43822   0.46340   0.48562
 Alpha virt. eigenvalues --    0.50112   0.51681   0.54704   0.56661   0.58524
 Alpha virt. eigenvalues --    0.60562   0.60676   0.63442   0.65763   0.66213
 Alpha virt. eigenvalues --    0.67525   0.69037   0.69646   0.71287   0.72725
 Alpha virt. eigenvalues --    0.76406   0.78220   0.78332   0.80054   0.82388
 Alpha virt. eigenvalues --    0.82820   0.85948   0.87760   0.90492   0.92734
 Alpha virt. eigenvalues --    0.93215   0.94744   0.96607   0.98526   0.99229
 Alpha virt. eigenvalues --    1.01351   1.02783   1.03529   1.05164   1.05901
 Alpha virt. eigenvalues --    1.09246   1.10725   1.12779   1.13672   1.14786
 Alpha virt. eigenvalues --    1.16809   1.17732   1.23124   1.24562   1.27627
 Alpha virt. eigenvalues --    1.29951   1.31076   1.34802   1.34986   1.37430
 Alpha virt. eigenvalues --    1.41771   1.43015   1.43788   1.46061   1.47710
 Alpha virt. eigenvalues --    1.48591   1.49058   1.51346   1.52709   1.53835
 Alpha virt. eigenvalues --    1.54684   1.56188   1.57193   1.59145   1.63448
 Alpha virt. eigenvalues --    1.64178   1.65463   1.67972   1.69469   1.71078
 Alpha virt. eigenvalues --    1.71615   1.73296   1.74580   1.75525   1.78082
 Alpha virt. eigenvalues --    1.80229   1.81173   1.82578   1.84815   1.89018
 Alpha virt. eigenvalues --    1.90841   1.92570   1.93163   1.97192   1.98374
 Alpha virt. eigenvalues --    1.99466   2.00584   2.02341   2.04060   2.04814
 Alpha virt. eigenvalues --    2.06532   2.09332   2.10231   2.11483   2.14540
 Alpha virt. eigenvalues --    2.16320   2.20512   2.25103   2.27560   2.28673
 Alpha virt. eigenvalues --    2.30118   2.30883   2.32920   2.34245   2.37196
 Alpha virt. eigenvalues --    2.39176   2.40044   2.40794   2.42253   2.43258
 Alpha virt. eigenvalues --    2.44803   2.45631   2.47073   2.48815   2.49147
 Alpha virt. eigenvalues --    2.49629   2.52087   2.52791   2.54059   2.54768
 Alpha virt. eigenvalues --    2.56150   2.58967   2.60677   2.62131   2.63053
 Alpha virt. eigenvalues --    2.64289   2.66098   2.67447   2.69826   2.71787
 Alpha virt. eigenvalues --    2.72896   2.75513   2.76303   2.77842   2.80099
 Alpha virt. eigenvalues --    2.80658   2.82167   2.83546   2.87123   2.88037
 Alpha virt. eigenvalues --    2.91109   2.92101   2.94014   2.95353   2.96764
 Alpha virt. eigenvalues --    2.97003   2.98152   3.01625   3.03646   3.04774
 Alpha virt. eigenvalues --    3.06273   3.07966   3.08927   3.11476   3.12046
 Alpha virt. eigenvalues --    3.13962   3.15705   3.17095   3.17940   3.21068
 Alpha virt. eigenvalues --    3.21602   3.22537   3.24800   3.26214   3.27489
 Alpha virt. eigenvalues --    3.28308   3.30988   3.31488   3.33200   3.34311
 Alpha virt. eigenvalues --    3.35982   3.37006   3.39209   3.40185   3.40753
 Alpha virt. eigenvalues --    3.42888   3.45074   3.46120   3.49327   3.51918
 Alpha virt. eigenvalues --    3.56036   3.60162   3.62139   3.66829   3.70288
 Alpha virt. eigenvalues --    3.73224   3.75781   3.79083   3.80289   3.82011
 Alpha virt. eigenvalues --    3.83913   3.87173   3.89011   3.90439   3.91296
 Alpha virt. eigenvalues --    3.93137   3.95972   3.99358   4.01184   4.04435
 Alpha virt. eigenvalues --    4.05277   4.06299   4.10707   4.15153   4.17524
 Alpha virt. eigenvalues --    4.21259   4.25121   4.31294   4.32663   4.35298
 Alpha virt. eigenvalues --    4.36185   4.43091   4.45739   4.52426   4.56820
 Alpha virt. eigenvalues --    4.59652   4.60845   4.62476   4.64869   4.75493
 Alpha virt. eigenvalues --    4.78749   4.81536   4.82310   4.86997   4.90838
 Alpha virt. eigenvalues --    4.96344   5.16281   5.17018   5.25890   5.34109
 Alpha virt. eigenvalues --    5.49789   5.61988   5.62853   5.90660   5.96728
 Alpha virt. eigenvalues --    6.03099   6.09407   6.17875   6.21837   6.39855
 Alpha virt. eigenvalues --    6.46388   6.50992   6.54346   6.65002   6.80139
 Alpha virt. eigenvalues --    6.83985   7.05658  22.39049  22.42680  22.47947
 Alpha virt. eigenvalues --   22.51468  22.56293  22.58146  23.13714  43.73604
 Alpha virt. eigenvalues --   43.75772
  Beta  occ. eigenvalues --  -19.95520 -19.92192 -10.94376 -10.77298 -10.71661
  Beta  occ. eigenvalues --  -10.70914 -10.68924 -10.68801 -10.67674  -1.50267
  Beta  occ. eigenvalues --   -1.40416  -1.13392  -1.03936  -1.01216  -0.95339
  Beta  occ. eigenvalues --   -0.87552  -0.86261  -0.84404  -0.82178  -0.79827
  Beta  occ. eigenvalues --   -0.75797  -0.72636  -0.70520  -0.67962  -0.67529
  Beta  occ. eigenvalues --   -0.65753  -0.61860  -0.61802  -0.61185  -0.60753
  Beta  occ. eigenvalues --   -0.56755  -0.53898  -0.52552  -0.52442
  Beta virt. eigenvalues --   -0.41454  -0.19953  -0.11485  -0.08109  -0.05968
  Beta virt. eigenvalues --   -0.04880  -0.03489  -0.01859  -0.01778  -0.00569
  Beta virt. eigenvalues --    0.00134   0.00520   0.02002   0.02297   0.02834
  Beta virt. eigenvalues --    0.04744   0.05418   0.06553   0.06872   0.07747
  Beta virt. eigenvalues --    0.09328   0.10404   0.11509   0.12002   0.12354
  Beta virt. eigenvalues --    0.12686   0.13010   0.14822   0.15511   0.18037
  Beta virt. eigenvalues --    0.18700   0.21581   0.22000   0.23441   0.25110
  Beta virt. eigenvalues --    0.25520   0.26778   0.27773   0.28141   0.28708
  Beta virt. eigenvalues --    0.29331   0.30335   0.31375   0.31859   0.32440
  Beta virt. eigenvalues --    0.32678   0.33392   0.33938   0.34667   0.35409
  Beta virt. eigenvalues --    0.36077   0.36662   0.37385   0.38023   0.38449
  Beta virt. eigenvalues --    0.39352   0.40817   0.41373   0.44128   0.46427
  Beta virt. eigenvalues --    0.48694   0.50278   0.51840   0.55121   0.56733
  Beta virt. eigenvalues --    0.58610   0.60700   0.60815   0.63551   0.65823
  Beta virt. eigenvalues --    0.66303   0.67597   0.69128   0.69689   0.71340
  Beta virt. eigenvalues --    0.72837   0.76496   0.78300   0.78339   0.80124
  Beta virt. eigenvalues --    0.82479   0.82925   0.86074   0.87864   0.90527
  Beta virt. eigenvalues --    0.92800   0.93194   0.94937   0.96614   0.98561
  Beta virt. eigenvalues --    0.99392   1.01332   1.02793   1.03590   1.05169
  Beta virt. eigenvalues --    1.05946   1.09344   1.10843   1.12760   1.13659
  Beta virt. eigenvalues --    1.14829   1.16832   1.17758   1.23319   1.24825
  Beta virt. eigenvalues --    1.27808   1.30380   1.31521   1.35077   1.35546
  Beta virt. eigenvalues --    1.37746   1.42427   1.43151   1.43947   1.46194
  Beta virt. eigenvalues --    1.47692   1.48570   1.49053   1.51560   1.52785
  Beta virt. eigenvalues --    1.53882   1.54787   1.56221   1.57290   1.59463
  Beta virt. eigenvalues --    1.63520   1.64309   1.65494   1.68146   1.69525
  Beta virt. eigenvalues --    1.71199   1.71667   1.73443   1.74694   1.75701
  Beta virt. eigenvalues --    1.78169   1.80333   1.81469   1.82633   1.85011
  Beta virt. eigenvalues --    1.89278   1.90996   1.92741   1.93309   1.97332
  Beta virt. eigenvalues --    1.98487   1.99618   2.00777   2.02706   2.04107
  Beta virt. eigenvalues --    2.04927   2.06784   2.09710   2.10218   2.11443
  Beta virt. eigenvalues --    2.15141   2.16372   2.20505   2.25162   2.27592
  Beta virt. eigenvalues --    2.28737   2.30341   2.31019   2.33127   2.34530
  Beta virt. eigenvalues --    2.37302   2.39361   2.40197   2.40985   2.42297
  Beta virt. eigenvalues --    2.43490   2.44888   2.45704   2.47251   2.48878
  Beta virt. eigenvalues --    2.49210   2.49623   2.52352   2.52812   2.54348
  Beta virt. eigenvalues --    2.54950   2.56165   2.59042   2.60773   2.62539
  Beta virt. eigenvalues --    2.63300   2.64613   2.66360   2.67573   2.70131
  Beta virt. eigenvalues --    2.71876   2.73003   2.75532   2.76108   2.78190
  Beta virt. eigenvalues --    2.80240   2.80908   2.82201   2.83731   2.87264
  Beta virt. eigenvalues --    2.88375   2.91177   2.92500   2.94382   2.95977
  Beta virt. eigenvalues --    2.96931   2.97002   2.98563   3.01717   3.04301
  Beta virt. eigenvalues --    3.05022   3.06425   3.07883   3.08888   3.11778
  Beta virt. eigenvalues --    3.12485   3.14156   3.15756   3.17073   3.18143
  Beta virt. eigenvalues --    3.21173   3.21685   3.22670   3.24905   3.26346
  Beta virt. eigenvalues --    3.27484   3.28534   3.31019   3.31574   3.33134
  Beta virt. eigenvalues --    3.34278   3.35968   3.36949   3.39274   3.40247
  Beta virt. eigenvalues --    3.40732   3.43004   3.45196   3.46136   3.49321
  Beta virt. eigenvalues --    3.51882   3.56021   3.60119   3.62551   3.66793
  Beta virt. eigenvalues --    3.70115   3.73250   3.75803   3.79088   3.80229
  Beta virt. eigenvalues --    3.82020   3.83907   3.87206   3.89005   3.90452
  Beta virt. eigenvalues --    3.91350   3.93078   3.95860   3.99362   4.01442
  Beta virt. eigenvalues --    4.04576   4.05368   4.06419   4.10960   4.15337
  Beta virt. eigenvalues --    4.17674   4.21370   4.25501   4.31320   4.32827
  Beta virt. eigenvalues --    4.35185   4.36269   4.43134   4.45705   4.52307
  Beta virt. eigenvalues --    4.56736   4.59546   4.60262   4.62519   4.64594
  Beta virt. eigenvalues --    4.75550   4.78489   4.81549   4.82519   4.89527
  Beta virt. eigenvalues --    4.94051   4.97264   5.16770   5.17643   5.27077
  Beta virt. eigenvalues --    5.35338   5.51038   5.62249   5.63777   5.91314
  Beta virt. eigenvalues --    5.97740   6.10344   6.10767   6.23832   6.26150
  Beta virt. eigenvalues --    6.44160   6.47386   6.52197   6.55689   6.67625
  Beta virt. eigenvalues --    6.81819   6.87830   7.06000  22.39054  22.42673
  Beta virt. eigenvalues --   22.47957  22.51478  22.56295  22.58278  23.13377
  Beta virt. eigenvalues --   43.73653  43.75694
          Condensed to atoms (all electrons):
               1          2          3          4          5          6
     1  O    7.593569   0.473902  -0.047260  -0.039133   0.006791  -0.000105
     2  C    0.473902   4.700295   0.381687   0.136573  -0.041039   0.021531
     3  O   -0.047260   0.381687   7.736118  -0.087737   0.005432  -0.000137
     4  C   -0.039133   0.136573  -0.087737   5.451931   0.200003  -0.019939
     5  C    0.006791  -0.041039   0.005432   0.200003   5.342351   0.139264
     6  C   -0.000105   0.021531  -0.000137  -0.019939   0.139264   5.352520
     7  C   -0.000607  -0.012196   0.000622   0.001791  -0.011613   0.186848
     8  C   -0.002056   0.025245  -0.004111  -0.019137  -0.013366  -0.047465
     9  C    0.002212  -0.034689   0.004338   0.211829  -0.013774  -0.011318
    10  H   -0.001386  -0.012124   0.293748   0.010576  -0.000568   0.000141
    11  H   -0.000584  -0.013180  -0.000051   0.415255  -0.035317   0.006777
    12  H    0.000385   0.008611  -0.000075  -0.050388   0.428531  -0.031070
    13  H   -0.001023  -0.007374  -0.000042  -0.037930   0.453630  -0.060351
    14  H    0.000236  -0.000479   0.000010   0.006701  -0.042318   0.438711
    15  H    0.001026   0.005228   0.000019  -0.010273  -0.053158   0.432781
    16  H   -0.000009  -0.000052  -0.000008  -0.000796   0.006350  -0.039457
    17  H    0.000016   0.001286  -0.000002  -0.001811  -0.001819  -0.046418
    18  H   -0.000023  -0.000766  -0.000198   0.007231  -0.000845   0.005341
    19  H   -0.000195   0.016494  -0.000223  -0.017008   0.002101  -0.004430
    20  H   -0.000006  -0.016098   0.000648  -0.024201   0.001701  -0.000831
    21  H   -0.000048   0.008795  -0.000041  -0.048922  -0.000497   0.001261
               7          8          9         10         11         12
     1  O   -0.000607  -0.002056   0.002212  -0.001386  -0.000584   0.000385
     2  C   -0.012196   0.025245  -0.034689  -0.012124  -0.013180   0.008611
     3  O    0.000622  -0.004111   0.004338   0.293748  -0.000051  -0.000075
     4  C    0.001791  -0.019137   0.211829   0.010576   0.415255  -0.050388
     5  C   -0.011613  -0.013366  -0.013774  -0.000568  -0.035317   0.428531
     6  C    0.186848  -0.047465  -0.011318   0.000141   0.006777  -0.031070
     7  C    5.249715   0.207850  -0.022724  -0.000014  -0.001615  -0.003191
     8  C    0.207850   5.282628   0.170521   0.000128   0.004028   0.000692
     9  C   -0.022724   0.170521   5.287264  -0.000550  -0.034395  -0.002495
    10  H   -0.000014   0.000128  -0.000550   0.327798  -0.000300   0.000014
    11  H   -0.001615   0.004028  -0.034395  -0.000300   0.430654  -0.003318
    12  H   -0.003191   0.000692  -0.002495   0.000014  -0.003318   0.438201
    13  H    0.007189  -0.000575   0.002474   0.000022  -0.003462  -0.002384
    14  H   -0.040383   0.007563  -0.001079  -0.000001  -0.000175  -0.001499
    15  H   -0.050589  -0.004829   0.002418   0.000001  -0.000122   0.003767
    16  H    0.434383  -0.042185   0.007413  -0.000000   0.000095  -0.000083
    17  H    0.429461  -0.048373  -0.001622  -0.000001  -0.000024   0.001077
    18  H   -0.036185   0.438346  -0.044131   0.000005  -0.000246  -0.000091
    19  H   -0.048581   0.425851  -0.048496  -0.000280   0.000101  -0.000014
    20  H    0.006266  -0.047236   0.438632   0.000099  -0.003498  -0.000078
    21  H   -0.004994  -0.032009   0.422705   0.000005  -0.002824   0.000442
              13         14         15         16         17         18
     1  O   -0.001023   0.000236   0.001026  -0.000009   0.000016  -0.000023
     2  C   -0.007374  -0.000479   0.005228  -0.000052   0.001286  -0.000766
     3  O   -0.000042   0.000010   0.000019  -0.000008  -0.000002  -0.000198
     4  C   -0.037930   0.006701  -0.010273  -0.000796  -0.001811   0.007231
     5  C    0.453630  -0.042318  -0.053158   0.006350  -0.001819  -0.000845
     6  C   -0.060351   0.438711   0.432781  -0.039457  -0.046418   0.005341
     7  C    0.007189  -0.040383  -0.050589   0.434383   0.429461  -0.036185
     8  C   -0.000575   0.007563  -0.004829  -0.042185  -0.048373   0.438346
     9  C    0.002474  -0.001079   0.002418   0.007413  -0.001622  -0.044131
    10  H    0.000022  -0.000001   0.000001  -0.000000  -0.000001   0.000005
    11  H   -0.003462  -0.000175  -0.000122   0.000095  -0.000024  -0.000246
    12  H   -0.002384  -0.001499   0.003767  -0.000083   0.001077  -0.000091
    13  H    0.444169  -0.005961   0.000014  -0.000208  -0.000196   0.000110
    14  H   -0.005961   0.453145  -0.003407  -0.005014  -0.001555  -0.000175
    15  H    0.000014  -0.003407   0.481883  -0.001677   0.004856  -0.000270
    16  H   -0.000208  -0.005014  -0.001677   0.463525  -0.005631  -0.005540
    17  H   -0.000196  -0.001555   0.004856  -0.005631   0.479609  -0.001921
    18  H    0.000110  -0.000175  -0.000270  -0.005540  -0.001921   0.458913
    19  H   -0.000189  -0.000247   0.002189  -0.001007   0.005143  -0.007285
    20  H   -0.000204   0.000096  -0.000119  -0.000170  -0.000209  -0.005312
    21  H   -0.000111  -0.000098   0.000026   0.000020   0.000857  -0.001596
              19         20         21
     1  O   -0.000195  -0.000006  -0.000048
     2  C    0.016494  -0.016098   0.008795
     3  O   -0.000223   0.000648  -0.000041
     4  C   -0.017008  -0.024201  -0.048922
     5  C    0.002101   0.001701  -0.000497
     6  C   -0.004430  -0.000831   0.001261
     7  C   -0.048581   0.006266  -0.004994
     8  C    0.425851  -0.047236  -0.032009
     9  C   -0.048496   0.438632   0.422705
    10  H   -0.000280   0.000099   0.000005
    11  H    0.000101  -0.003498  -0.002824
    12  H   -0.000014  -0.000078   0.000442
    13  H   -0.000189  -0.000204  -0.000111
    14  H   -0.000247   0.000096  -0.000098
    15  H    0.002189  -0.000119   0.000026
    16  H   -0.001007  -0.000170   0.000020
    17  H    0.005143  -0.000209   0.000857
    18  H   -0.007285  -0.005312  -0.001596
    19  H    0.499370  -0.000516   0.003779
    20  H   -0.000516   0.443345  -0.004292
    21  H    0.003779  -0.004292   0.433676
          Atomic-Atomic Spin Densities.
               1          2          3          4          5          6
     1  O    0.756194  -0.065758  -0.008218  -0.000902   0.013746  -0.006701
     2  C   -0.065758  -0.082130   0.004565   0.102906  -0.014064   0.003879
     3  O   -0.008218   0.004565   0.089345   0.004268   0.000614  -0.000453
     4  C   -0.000902   0.102906   0.004268   0.007006  -0.004035   0.004626
     5  C    0.013746  -0.014064   0.000614  -0.004035   0.006308   0.000059
     6  C   -0.006701   0.003879  -0.000453   0.004626   0.000059   0.018398
     7  C    0.000458   0.000185   0.000058  -0.004052   0.003344  -0.004122
     8  C   -0.000386   0.001954   0.000069   0.001726  -0.001937   0.004494
     9  C    0.000217  -0.004981  -0.000481  -0.008581   0.005568  -0.003652
    10  H    0.003693   0.000665  -0.000821  -0.000155  -0.000128   0.000073
    11  H    0.001617  -0.005007   0.000956   0.005859   0.000741  -0.000456
    12  H   -0.000325  -0.001057  -0.000024  -0.000874   0.005049  -0.001046
    13  H   -0.002022   0.001324  -0.000057   0.000389  -0.002345   0.001638
    14  H   -0.000047  -0.000150  -0.000001   0.000189   0.000607  -0.000419
    15  H   -0.004035  -0.001203  -0.000165   0.004602  -0.003977   0.008463
    16  H    0.000036   0.000074   0.000004  -0.000232   0.000374  -0.001522
    17  H   -0.000040  -0.000143  -0.000005   0.000001   0.000074  -0.001328
    18  H   -0.000002   0.000102   0.000006  -0.000144  -0.000030   0.000253
    19  H   -0.000223  -0.000713  -0.000522   0.003751  -0.000802   0.000398
    20  H   -0.000034   0.000802  -0.000162  -0.000797  -0.000001   0.000056
    21  H   -0.000106  -0.000114  -0.000032  -0.005974   0.000321  -0.000400
               7          8          9         10         11         12
     1  O    0.000458  -0.000386   0.000217   0.003693   0.001617  -0.000325
     2  C    0.000185   0.001954  -0.004981   0.000665  -0.005007  -0.001057
     3  O    0.000058   0.000069  -0.000481  -0.000821   0.000956  -0.000024
     4  C   -0.004052   0.001726  -0.008581  -0.000155   0.005859  -0.000874
     5  C    0.003344  -0.001937   0.005568  -0.000128   0.000741   0.005049
     6  C   -0.004122   0.004494  -0.003652   0.000073  -0.000456  -0.001046
     7  C   -0.000735  -0.004421   0.005711  -0.000017  -0.000060   0.000708
     8  C   -0.004421   0.009994   0.001138   0.000104   0.000113  -0.000261
     9  C    0.005711   0.001138   0.013588  -0.000315   0.000640   0.001113
    10  H   -0.000017   0.000104  -0.000315  -0.001119  -0.000178   0.000003
    11  H   -0.000060   0.000113   0.000640  -0.000178   0.021675  -0.000564
    12  H    0.000708  -0.000261   0.001113   0.000003  -0.000564   0.006550
    13  H   -0.000166  -0.000023   0.000023   0.000008  -0.000272   0.000162
    14  H    0.000468  -0.000113   0.000041   0.000000  -0.000001  -0.000065
    15  H   -0.000573   0.001026  -0.000383   0.000032  -0.000078  -0.000121
    16  H    0.003993   0.000049  -0.000110  -0.000001   0.000009  -0.000010
    17  H    0.003955  -0.001682   0.001081   0.000001  -0.000057   0.000036
    18  H   -0.000228  -0.000308   0.000043   0.000002  -0.000009   0.000014
    19  H   -0.000689   0.003470  -0.002822   0.000128  -0.000102   0.000008
    20  H   -0.000073   0.000057  -0.000361   0.000027  -0.000259   0.000035
    21  H    0.001565  -0.003197   0.012645   0.000019  -0.001506   0.000421
              13         14         15         16         17         18
     1  O   -0.002022  -0.000047  -0.004035   0.000036  -0.000040  -0.000002
     2  C    0.001324  -0.000150  -0.001203   0.000074  -0.000143   0.000102
     3  O   -0.000057  -0.000001  -0.000165   0.000004  -0.000005   0.000006
     4  C    0.000389   0.000189   0.004602  -0.000232   0.000001  -0.000144
     5  C   -0.002345   0.000607  -0.003977   0.000374   0.000074  -0.000030
     6  C    0.001638  -0.000419   0.008463  -0.001522  -0.001328   0.000253
     7  C   -0.000166   0.000468  -0.000573   0.003993   0.003955  -0.000228
     8  C   -0.000023  -0.000113   0.001026   0.000049  -0.001682  -0.000308
     9  C    0.000023   0.000041  -0.000383  -0.000110   0.001081   0.000043
    10  H    0.000008   0.000000   0.000032  -0.000001   0.000001   0.000002
    11  H   -0.000272  -0.000001  -0.000078   0.000009  -0.000057  -0.000009
    12  H    0.000162  -0.000065  -0.000121  -0.000010   0.000036   0.000014
    13  H    0.000884   0.000014   0.000150  -0.000003   0.000020  -0.000001
    14  H    0.000014  -0.000528  -0.000725   0.000071  -0.000114   0.000002
    15  H    0.000150  -0.000725   0.008003  -0.000145   0.000021   0.000046
    16  H   -0.000003   0.000071  -0.000145   0.007620  -0.001021  -0.000117
    17  H    0.000020  -0.000114   0.000021  -0.001021   0.007181   0.000236
    18  H   -0.000001   0.000002   0.000046  -0.000117   0.000236  -0.000605
    19  H    0.000011  -0.000014   0.000019  -0.000340   0.000085   0.000577
    20  H    0.000003   0.000001   0.000020  -0.000013   0.000045  -0.000026
    21  H    0.000039  -0.000002   0.000043  -0.000078   0.000483   0.000234
              19         20         21
     1  O   -0.000223  -0.000034  -0.000106
     2  C   -0.000713   0.000802  -0.000114
     3  O   -0.000522  -0.000162  -0.000032
     4  C    0.003751  -0.000797  -0.005974
     5  C   -0.000802  -0.000001   0.000321
     6  C    0.000398   0.000056  -0.000400
     7  C   -0.000689  -0.000073   0.001565
     8  C    0.003470   0.000057  -0.003197
     9  C   -0.002822  -0.000361   0.012645
    10  H    0.000128   0.000027   0.000019
    11  H   -0.000102  -0.000259  -0.001506
    12  H    0.000008   0.000035   0.000421
    13  H    0.000011   0.000003   0.000039
    14  H   -0.000014   0.000001  -0.000002
    15  H    0.000019   0.000020   0.000043
    16  H   -0.000340  -0.000013  -0.000078
    17  H    0.000085   0.000045   0.000483
    18  H    0.000577  -0.000026   0.000234
    19  H    0.005455   0.000218   0.000266
    20  H    0.000218  -0.000237   0.000368
    21  H    0.000266   0.000368   0.028971
 Mulliken charges and spin densities:
               1          2
     1  O    0.014297   0.687163
     2  C    0.358352  -0.058864
     3  O   -0.282737   0.088947
     4  C   -0.084615   0.109577
     5  C   -0.371841   0.009486
     6  C   -0.323656   0.022239
     7  C   -0.291432   0.005307
     8  C   -0.301511   0.011865
     9  C   -0.334534   0.020123
    10  H    0.382687   0.002023
    11  H    0.242200   0.023062
    12  H    0.212967   0.009754
    13  H    0.212401  -0.000223
    14  H    0.195928  -0.000785
    15  H    0.190235   0.011021
    16  H    0.190051   0.008636
    17  H    0.187278   0.008829
    18  H    0.194638   0.000043
    19  H    0.173443   0.008161
    20  H    0.211984  -0.000330
    21  H    0.223866   0.033966
 Sum of Mulliken charges =   1.00000   1.00000
 Mulliken charges and spin densities with hydrogens summed into heavy atoms:
               1          2
     1  O    0.014297   0.687163
     2  C    0.358352  -0.058864
     3  O    0.099949   0.090970
     4  C    0.157585   0.132639
     5  C    0.053527   0.019017
     6  C    0.062507   0.032475
     7  C    0.085897   0.022772
     8  C    0.066571   0.020070
     9  C    0.101316   0.053759
 Electronic spatial extent (au):  <R**2>=           1127.2322
 Charge=              1.0000 electrons
 Dipole moment (field-independent basis, Debye):
    X=             -2.9971    Y=              0.2599    Z=              0.3214  Tot=              3.0254
 Quadrupole moment (field-independent basis, Debye-Ang):
   XX=            -31.9541   YY=            -48.2348   ZZ=            -46.1031
   XY=             -0.4912   XZ=              3.7628   YZ=             -0.9409
 Traceless Quadrupole moment (field-independent basis, Debye-Ang):
   XX=             10.1432   YY=             -6.1374   ZZ=             -4.0058
   XY=             -0.4912   XZ=              3.7628   YZ=             -0.9409
 Octapole moment (field-independent basis, Debye-Ang**2):
  XXX=            -51.7519  YYY=              0.7587  ZZZ=              1.2228  XYY=              0.2876
  XXY=              3.4646  XXZ=            -16.7009  XZZ=             -8.4529  YZZ=              1.1804
  YYZ=              0.7978  XYZ=              2.9111
 Hexadecapole moment (field-independent basis, Debye-Ang**3):
 XXXX=           -593.2631 YYYY=           -392.1747 ZZZZ=           -208.1995 XXXY=            -19.7768
 XXXZ=             53.3293 YYYX=              0.7394 YYYZ=              0.9741 ZZZX=             11.8940
 ZZZY=              2.6782 XXYY=           -183.8270 XXZZ=           -139.0737 YYZZ=           -103.6671
 XXYZ=             -9.3900 YYXZ=              3.9535 ZZXY=             -1.5848
 N-N= 4.884188804523D+02 E-N=-1.952254938323D+03  KE= 4.220849769777D+02
                          Isotropic Fermi Contact Couplings
        Atom                 a.u.       MegaHertz       Gauss      10(-4) cm-1
     1  O(17)              0.07666     -46.47267     -16.58261     -15.50162
     2  C(13)             -0.01115     -12.53989      -4.47454      -4.18286
     3  O(17)             -0.00248       1.50086       0.53554       0.50063
     4  C(13)              0.00077       0.86334       0.30806       0.28798
     5  C(13)             -0.00657      -7.38862      -2.63644      -2.46458
     6  C(13)              0.00098       1.10347       0.39375       0.36808
     7  C(13)             -0.00158      -1.78141      -0.63565      -0.59421
     8  C(13)              0.00270       3.03872       1.08429       1.01361
     9  C(13)              0.00227       2.54832       0.90930       0.85003
    10  H(1)              -0.00138      -6.17668      -2.20399      -2.06032
    11  H(1)               0.01396      62.38234      22.25957      20.80851
    12  H(1)               0.00665      29.73829      10.61136       9.91963
    13  H(1)              -0.00007      -0.30896      -0.11024      -0.10306
    14  H(1)              -0.00006      -0.27434      -0.09789      -0.09151
    15  H(1)               0.00899      40.17806      14.33653      13.40196
    16  H(1)               0.00492      21.99667       7.84896       7.33730
    17  H(1)               0.00545      24.36212       8.69301       8.12633
    18  H(1)              -0.00018      -0.78350      -0.27957      -0.26135
    19  H(1)               0.00504      22.50692       8.03103       7.50750
    20  H(1)               0.00015       0.67967       0.24252       0.22671
    21  H(1)               0.01935      86.47819      30.85757      28.84602
 --------------------------------------------------------
       Center         ----  Spin Dipole Couplings  ----
                      3XX-RR        3YY-RR        3ZZ-RR
 --------------------------------------------------------
     1   Atom        1.597595     -0.958089     -0.639506
     2   Atom       -0.017229      0.012616      0.004612
     3   Atom       -0.147081      0.396802     -0.249721
     4   Atom       -0.022610     -0.074630      0.097240
     5   Atom       -0.008997     -0.015674      0.024671
     6   Atom       -0.013505     -0.024378      0.037883
     7   Atom       -0.003997     -0.008577      0.012574
     8   Atom       -0.009145     -0.010104      0.019250
     9   Atom       -0.010470     -0.013612      0.024082
    10   Atom        0.004590      0.003933     -0.008523
    11   Atom        0.001600     -0.011970      0.010370
    12   Atom        0.003356     -0.002880     -0.000476
    13   Atom        0.000394     -0.000839      0.000445
    14   Atom        0.003619     -0.000657     -0.002963
    15   Atom        0.011473     -0.008058     -0.003416
    16   Atom        0.002475     -0.002475     -0.000000
    17   Atom        0.003718     -0.002304     -0.001414
    18   Atom        0.000111      0.001122     -0.001233
    19   Atom        0.001195     -0.000352     -0.000842
    20   Atom       -0.001415      0.005740     -0.004324
    21   Atom        0.001667     -0.003380      0.001713
 --------------------------------------------------------
                        XY            XZ            YZ
 --------------------------------------------------------
     1   Atom       -1.151189      1.333111     -0.629443
     2   Atom        0.027835      0.090688      0.071146
     3   Atom       -0.262436      0.000792      0.084171
     4   Atom        0.042232      0.124929      0.068998
     5   Atom        0.001611     -0.001228     -0.009163
     6   Atom       -0.000338      0.009580      0.004627
     7   Atom        0.001604      0.000535      0.002709
     8   Atom        0.003088     -0.005246      0.002388
     9   Atom        0.015805      0.028405      0.025903
    10   Atom       -0.009421      0.016429      0.003978
    11   Atom        0.002936     -0.011926      0.001667
    12   Atom        0.000422      0.006379      0.000185
    13   Atom       -0.002903      0.008748     -0.003444
    14   Atom       -0.004447     -0.000085      0.000735
    15   Atom        0.000737      0.001117      0.003219
    16   Atom        0.000863     -0.003649     -0.000247
    17   Atom        0.000965      0.001324      0.000734
    18   Atom        0.003252     -0.001246     -0.001401
    19   Atom        0.003891     -0.000369     -0.002264
    20   Atom       -0.000962      0.001182      0.002399
    21   Atom        0.001948      0.007520      0.001978
 --------------------------------------------------------


 ---------------------------------------------------------------------------------
              Anisotropic Spin Dipole Couplings in Principal Axis System
 ---------------------------------------------------------------------------------

       Atom             a.u.   MegaHertz   Gauss  10(-4) cm-1        Axes

              Baa    -1.4596   105.616    37.686    35.230  0.1258  0.8752  0.4672
     1 O(17)  Bbb    -1.2299    88.994    31.755    29.685 -0.5117 -0.3462  0.7864
              Bcc     2.6895  -194.610   -69.442   -64.915  0.8499 -0.3380  0.4043
 
              Baa    -0.1053   -14.131    -5.042    -4.714 -0.6454 -0.2771  0.7118
     2 C(13)  Bbb    -0.0247    -3.314    -1.182    -1.105 -0.5641  0.8012 -0.1995
              Bcc     0.1300    17.445     6.225     5.819  0.5151  0.5303  0.6734
 
              Baa    -0.2875    20.806     7.424     6.940 -0.6050 -0.3216  0.7284
     3 O(17)  Bbb    -0.2232    16.151     5.763     5.387  0.7058  0.2068  0.6775
              Bcc     0.5107   -36.957   -13.187   -12.328 -0.3685  0.9240  0.1019
 
              Baa    -0.1016   -13.627    -4.862    -4.545  0.7619  0.2896 -0.5793
     4 C(13)  Bbb    -0.0982   -13.174    -4.701    -4.394 -0.3991  0.9144 -0.0677
              Bcc     0.1997    26.801     9.563     8.940  0.5101  0.2828  0.8123
 
              Baa    -0.0179    -2.396    -0.855    -0.799 -0.1477  0.9677  0.2042
     5 C(13)  Bbb    -0.0089    -1.190    -0.425    -0.397  0.9881  0.1354  0.0732
              Bcc     0.0267     3.586     1.279     1.196 -0.0432 -0.2126  0.9762
 
              Baa    -0.0248    -3.332    -1.189    -1.111  0.1050  0.9905 -0.0891
     6 C(13)  Bbb    -0.0151    -2.026    -0.723    -0.676  0.9788 -0.1187 -0.1666
              Bcc     0.0399     5.358     1.912     1.787  0.1756  0.0697  0.9820
 
              Baa    -0.0094    -1.255    -0.448    -0.419 -0.2748  0.9551 -0.1113
     7 C(13)  Bbb    -0.0036    -0.482    -0.172    -0.161  0.9605  0.2674 -0.0766
              Bcc     0.0129     1.737     0.620     0.580  0.0434  0.1279  0.9908
 
              Baa    -0.0136    -1.825    -0.651    -0.609 -0.6829  0.7126 -0.1609
     8 C(13)  Bbb    -0.0067    -0.898    -0.321    -0.300  0.7107  0.6990  0.0794
              Bcc     0.0203     2.724     0.972     0.909 -0.1690  0.0601  0.9838
 
              Baa    -0.0279    -3.748    -1.337    -1.250 -0.6489  0.7605 -0.0244
     9 C(13)  Bbb    -0.0258    -3.460    -1.235    -1.154  0.6124  0.5029 -0.6100
              Bcc     0.0537     7.208     2.572     2.404  0.4517  0.4107  0.7920
 
              Baa    -0.0225   -12.018    -4.288    -4.009 -0.5696 -0.3169  0.7584
    10 H(1)   Bbb     0.0043     2.291     0.817     0.764  0.1732  0.8557  0.4876
              Bcc     0.0182     9.727     3.471     3.245  0.8035 -0.4091  0.4326
 
              Baa    -0.0136    -7.263    -2.592    -2.423 -0.3645  0.8987 -0.2437
    11 H(1)   Bbb    -0.0051    -2.711    -0.967    -0.904  0.7338  0.4383  0.5191
              Bcc     0.0187     9.974     3.559     3.327 -0.5733 -0.0104  0.8193
 
              Baa    -0.0052    -2.788    -0.995    -0.930 -0.5974  0.0442  0.8007
    12 H(1)   Bbb    -0.0029    -1.544    -0.551    -0.515 -0.0063  0.9982 -0.0598
              Bcc     0.0081     4.332     1.546     1.445  0.8019  0.0408  0.5961
 
              Baa    -0.0084    -4.456    -1.590    -1.486 -0.6961  0.0591  0.7155
    13 H(1)   Bbb    -0.0025    -1.353    -0.483    -0.451  0.2952  0.9320  0.2103
              Bcc     0.0109     5.809     2.073     1.938  0.6544 -0.3577  0.6662
 
              Baa    -0.0038    -2.049    -0.731    -0.684  0.4202  0.7156 -0.5580
    14 H(1)   Bbb    -0.0026    -1.386    -0.495    -0.462  0.3334  0.4502  0.8283
              Bcc     0.0064     3.435     1.226     1.146  0.8440 -0.5341 -0.0494
 
              Baa    -0.0097    -5.179    -1.848    -1.727 -0.0070  0.8907 -0.4545
    15 H(1)   Bbb    -0.0019    -1.014    -0.362    -0.338 -0.0989  0.4517  0.8867
              Bcc     0.0116     6.193     2.210     2.066  0.9951  0.0512  0.0850
 
              Baa    -0.0029    -1.544    -0.551    -0.515 -0.4858  0.6752 -0.5551
    16 H(1)   Bbb    -0.0023    -1.222    -0.436    -0.408  0.3276  0.7294  0.6005
              Bcc     0.0052     2.766     0.987     0.923  0.8103  0.1099 -0.5756
 
              Baa    -0.0027    -1.454    -0.519    -0.485 -0.0391  0.8883 -0.4575
    17 H(1)   Bbb    -0.0015    -0.803    -0.286    -0.268 -0.2956  0.4271  0.8545
              Bcc     0.0042     2.257     0.805     0.753  0.9545  0.1686  0.2459
 
              Baa    -0.0027    -1.428    -0.510    -0.476  0.7659 -0.6418  0.0379
    18 H(1)   Bbb    -0.0018    -0.983    -0.351    -0.328  0.1716  0.2609  0.9500
              Bcc     0.0045     2.411     0.860     0.804  0.6196  0.7211 -0.3099
 
              Baa    -0.0043    -2.287    -0.816    -0.763 -0.5008  0.7469  0.4373
    19 H(1)   Bbb    -0.0006    -0.342    -0.122    -0.114  0.5053 -0.1579  0.8484
              Bcc     0.0049     2.629     0.938     0.877  0.7027  0.6459 -0.2984
 
              Baa    -0.0053    -2.852    -1.018    -0.951 -0.3310 -0.2269  0.9159
    20 H(1)   Bbb    -0.0010    -0.532    -0.190    -0.177  0.9395  0.0121  0.3425
              Bcc     0.0063     3.384     1.208     1.129 -0.0888  0.9738  0.2092
 
              Baa    -0.0058    -3.111    -1.110    -1.038 -0.7070 -0.0088  0.7072
    21 H(1)   Bbb    -0.0040    -2.115    -0.755    -0.706 -0.1520  0.9785 -0.1397
              Bcc     0.0098     5.226     1.865     1.743  0.6907  0.2062  0.6931
 

 ---------------------------------------------------------------------------------

 Unable to Open any file for archive entry.
 1\1\GINC-NODE13\SP\UM062X\def2TZVP\C7H12O2(1+,2)\SVSS\29-Jan-2024\0\\#
  m062x/def2tzvp\\Ac7_rdkit_conf_1_SP_IE\\1,2\O,0,-1.701797,-1.239603,-
 0.689302\C,0,-1.493609,-0.227111,-0.080266\O,0,-2.287202,0.855359,-0.2
 14972\C,0,-0.386233,-0.003644,0.928262\C,0,0.60446,-1.168217,0.921268\
 C,0,1.467205,-1.17789,-0.340629\C,0,2.166519,0.163116,-0.552988\C,0,1.
 156982,1.308854,-0.580577\C,0,0.329012,1.335888,0.701662\H,0,-2.980124
 ,0.617613,-0.847587\H,0,-0.899706,0.038165,1.89496\H,0,1.248236,-1.063
 965,1.799676\H,0,0.066899,-2.111564,1.017842\H,0,2.201981,-1.982366,-0
 .274689\H,0,0.832128,-1.398273,-1.202354\H,0,2.744955,0.144326,-1.4785
 04\H,0,2.877627,0.336362,0.262437\H,0,1.665382,2.265431,-0.713978\H,0,
 0.489953,1.184681,-1.441557\H,0,-0.394561,2.149941,0.683867\H,0,0.9932
 05,1.507628,1.553694\\Version=AS64L-G16RevC.01\State=2-A\HF=-424.05133
 71\S2=0.757729\S2-1=0.\S2A=0.75004\RMSD=8.512e-09\Dipole=-1.1791334,0.
 1022669,0.1264644\Quadrupole=7.5412303,-4.5630324,-2.9781979,-0.365170
 6,2.797561,-0.6995191\PG=C01 [X(C7H12O2)]\\@
 The archive entry for this job was punched.


 Happiness is a conscious choice, not an automatic response.
 -- Mildred Barthel
 Job cpu time:       0 days  0 hours 42 minutes 14.1 seconds.
 Elapsed time:       0 days  0 hours  5 minutes 24.2 seconds.
 File lengths (MBytes):  RWF=    119 Int=      0 D2E=      0 Chk=     10 Scr=      1
 Normal termination of Gaussian 16 at Mon Jan 29 12:59:20 2024.
