Job Start Time: Mon Jan 29 12:54:04 MST 2024
SLURM Job ID: 229747
SLURM Job Name: Ac7_rdkit_conf_1_SP_EA
 Entering Gaussian System, Link 0=/opt/apps/Gaussian/G16C/g16/g16
 Initial command:
 /opt/apps/Gaussian/G16C/g16/l1.exe "/tmp/Gau-623607.inp" -scrdir="/tmp/"
 Entering Link 1 = /opt/apps/Gaussian/G16C/g16/l1.exe PID=    623608.
  
 Copyright (c) 1988-2019, Gaussian, Inc.  All Rights Reserved.
  
 This is part of the Gaussian(R) 16 program.  It is based on
 the Gaussian(R) 09 system (copyright 2009, Gaussian, Inc.),
 the Gaussian(R) 03 system (copyright 2003, Gaussian, Inc.),
 the Gaussian(R) 98 system (copyright 1998, Gaussian, Inc.),
 the Gaussian(R) 94 system (copyright 1995, Gaussian, Inc.),
 the Gaussian 92(TM) system (copyright 1992, Gaussian, Inc.),
 the Gaussian 90(TM) system (copyright 1990, Gaussian, Inc.),
 the Gaussian 88(TM) system (copyright 1988, Gaussian, Inc.),
 the Gaussian 86(TM) system (copyright 1986, Carnegie Mellon
 University), and the Gaussian 82(TM) system (copyright 1983,
 Carnegie Mellon University). Gaussian is a federally registered
 trademark of Gaussian, Inc.
  
 This software contains proprietary and confidential information,
 including trade secrets, belonging to Gaussian, Inc.
  
 This software is provided under written license and may be
 used, copied, transmitted, or stored only in accord with that
 written license.
  
 The following legend is applicable only to US Government
 contracts under FAR:
  
                    RESTRICTED RIGHTS LEGEND
  
 Use, reproduction and disclosure by the US Government is
 subject to restrictions as set forth in subparagraphs (a)
 and (c) of the Commercial Computer Software - Restricted
 Rights clause in FAR 52.227-19.
  
 Gaussian, Inc.
 340 Quinnipiac St., Bldg. 40, Wallingford CT 06492
  
  
 ---------------------------------------------------------------
 Warning -- This program may not be used in any manner that
 competes with the business of Gaussian, Inc. or will provide
 assistance to any competitor of Gaussian, Inc.  The licensee
 of this program is prohibited from giving any competitor of
 Gaussian, Inc. access to this program.  By using this program,
 the user acknowledges that Gaussian, Inc. is engaged in the
 business of creating and licensing software in the field of
 computational chemistry and represents and warrants to the
 licensee that it is not a competitor of Gaussian, Inc. and that
 it will not use this program in any manner prohibited above.
 ---------------------------------------------------------------
  

 Cite this work as:
 Gaussian 16, Revision C.01,
 M. J. Frisch, G. W. Trucks, H. B. Schlegel, G. E. Scuseria, 
 M. A. Robb, J. R. Cheeseman, G. Scalmani, V. Barone, 
 G. A. Petersson, H. Nakatsuji, X. Li, M. Caricato, A. V. Marenich, 
 J. Bloino, B. G. Janesko, R. Gomperts, B. Mennucci, H. P. Hratchian, 
 J. V. Ortiz, A. F. Izmaylov, J. L. Sonnenberg, D. Williams-Young, 
 F. Ding, F. Lipparini, F. Egidi, J. Goings, B. Peng, A. Petrone, 
 T. Henderson, D. Ranasinghe, V. G. Zakrzewski, J. Gao, N. Rega, 
 G. Zheng, W. Liang, M. Hada, M. Ehara, K. Toyota, R. Fukuda, 
 J. Hasegawa, M. Ishida, T. Nakajima, Y. Honda, O. Kitao, H. Nakai, 
 T. Vreven, K. Throssell, J. A. Montgomery, Jr., J. E. Peralta, 
 F. Ogliaro, M. J. Bearpark, J. J. Heyd, E. N. Brothers, K. N. Kudin, 
 V. N. Staroverov, T. A. Keith, R. Kobayashi, J. Normand, 
 K. Raghavachari, A. P. Rendell, J. C. Burant, S. S. Iyengar, 
 J. Tomasi, M. Cossi, J. M. Millam, M. Klene, C. Adamo, R. Cammi, 
 J. W. Ochterski, R. L. Martin, K. Morokuma, O. Farkas, 
 J. B. Foresman, and D. J. Fox, Gaussian, Inc., Wallingford CT, 2019.
 
 ******************************************
 Gaussian 16:  AS64L-G16RevC.01  3-Jul-2019
                29-Jan-2024 
 ******************************************
 %nprocshared=8
 Will use up to    8 processors via shared memory.
 %mem=16GB
 ----------------
 # m062x/def2tzvp
 ----------------
 1/38=1,172=1/1;
 2/12=2,17=6,18=5,40=1/2;
 3/5=44,7=101,11=2,25=1,30=1,74=-55/1,2,3;
 4//1;
 5/5=2,38=5/2;
 6/7=2,8=2,9=2,10=2,28=1/1;
 99/5=1,9=1/99;
 ----------------------
 Ac7_rdkit_conf_1_SP_EA
 ----------------------
 Symbolic Z-matrix:
 Charge = -1 Multiplicity = 2
 O                    -1.7018   -1.2396   -0.6893 
 C                    -1.49361  -0.22711  -0.08027 
 O                    -2.2872    0.85536  -0.21497 
 C                    -0.38623  -0.00364   0.92826 
 C                     0.60446  -1.16822   0.92127 
 C                     1.46721  -1.17789  -0.34063 
 C                     2.16652   0.16312  -0.55299 
 C                     1.15698   1.30885  -0.58058 
 C                     0.32901   1.33589   0.70166 
 H                    -2.98012   0.61761  -0.84759 
 H                    -0.89971   0.03817   1.89496 
 H                     1.24824  -1.06397   1.79968 
 H                     0.0669   -2.11156   1.01784 
 H                     2.20198  -1.98237  -0.27469 
 H                     0.83213  -1.39827  -1.20235 
 H                     2.74496   0.14433  -1.4785 
 H                     2.87763   0.33636   0.26244 
 H                     1.66538   2.26543  -0.71398 
 H                     0.48995   1.18468  -1.44156 
 H                    -0.39456   2.14994   0.68387 
 H                     0.99321   1.50763   1.55369 
 
                          Input orientation:                          
 ---------------------------------------------------------------------
 Center     Atomic      Atomic             Coordinates (Angstroms)
 Number     Number       Type             X           Y           Z
 ---------------------------------------------------------------------
      1          8           0       -1.701797   -1.239603   -0.689302
      2          6           0       -1.493609   -0.227111   -0.080266
      3          8           0       -2.287202    0.855359   -0.214972
      4          6           0       -0.386233   -0.003644    0.928262
      5          6           0        0.604460   -1.168217    0.921268
      6          6           0        1.467205   -1.177890   -0.340629
      7          6           0        2.166519    0.163116   -0.552988
      8          6           0        1.156982    1.308854   -0.580577
      9          6           0        0.329012    1.335888    0.701662
     10          1           0       -2.980124    0.617613   -0.847587
     11          1           0       -0.899706    0.038165    1.894960
     12          1           0        1.248236   -1.063965    1.799676
     13          1           0        0.066899   -2.111564    1.017842
     14          1           0        2.201981   -1.982366   -0.274689
     15          1           0        0.832128   -1.398273   -1.202354
     16          1           0        2.744955    0.144326   -1.478504
     17          1           0        2.877627    0.336362    0.262437
     18          1           0        1.665382    2.265431   -0.713978
     19          1           0        0.489953    1.184681   -1.441557
     20          1           0       -0.394561    2.149941    0.683867
     21          1           0        0.993205    1.507628    1.553694
 ---------------------------------------------------------------------
                    Distance matrix (angstroms):
                    1          2          3          4          5
     1  O    0.000000
     2  C    1.199753   0.000000
     3  O    2.226332   1.348954   0.000000
     4  C    2.423802   1.514380   2.378771   0.000000
     5  C    2.813868   2.508116   3.707777   1.528971   0.000000
     6  C    3.188723   3.120607   4.271471   2.534595   1.528662
     7  C    4.117046   3.711102   4.519855   2.956087   2.527035
     8  C    3.831328   3.104051   3.493097   2.526016   2.949017
     9  C    3.562600   2.525139   2.813486   1.535340   2.528763
    10  H    2.260183   1.874051   0.967918   3.204352   4.378045
    11  H    2.992399   2.079570   2.654197   1.095403   2.160081
    12  H    3.863749   3.428151   4.499104   2.134275   1.094037
    13  H    2.608245   2.681826   3.982996   2.157934   1.090047
    14  H    3.995383   4.095864   5.311216   3.472936   2.155278
    15  H    2.590207   2.835446   3.972908   2.822927   2.148145
    16  H    4.723527   4.478667   5.236858   3.952057   3.473240
    17  H    4.935646   4.420707   5.212747   3.348389   2.804479
    18  H    4.860429   4.073522   4.226137   3.471999   3.948357
    19  H    3.353626   2.789406   3.053777   2.792107   3.336493
    20  H    3.883744   2.728036   2.462914   2.167424   3.473410
    21  H    4.454362   3.444327   3.783478   2.139616   2.776910
                    6          7          8          9         10
     6  C    0.000000
     7  C    1.527231   0.000000
     8  C    2.517481   1.527299   0.000000
     9  C    2.949735   2.515149   1.526565   0.000000
    10  H    4.822818   5.175064   4.202946   3.723771   0.000000
    11  H    3.475473   3.925532   3.460188   2.148905   3.490768
    12  H    2.154491   2.807846   3.362172   2.794620   5.264479
    13  H    2.162879   3.471323   3.929693   3.471829   4.495840
    14  H    1.091524   2.163747   3.466658   3.933457   5.826003
    15  H    1.092914   2.154115   2.796547   3.369575   4.326999
    16  H    2.162327   1.091568   2.164268   3.465505   5.779151
    17  H    2.155444   1.095722   2.148728   2.772618   5.968626
    18  H    3.469167   2.167207   1.091470   2.157307   4.930911
    19  H    2.783668   2.155000   1.096190   2.154566   3.565922
    20  H    3.948446   3.469354   2.171067   1.089292   3.373206
    21  H    3.320413   2.760885   2.149755   1.093895   4.727115
                   11         12         13         14         15
    11  H    0.000000
    12  H    2.416076   0.000000
    13  H    2.514954   1.761898   0.000000
    14  H    4.290732   2.460910   2.499181   0.000000
    15  H    3.828310   3.049113   2.454308   1.754487   0.000000
    16  H    4.967402   3.800868   4.300322   2.503360   2.472808
    17  H    4.125809   2.641767   3.803048   2.474167   3.055918
    18  H    4.283334   4.192534   4.971160   4.304032   3.788872
    19  H    3.791833   4.017088   4.134350   3.784549   2.616477
    20  H    2.486265   3.777963   4.299408   4.973612   4.201478
    21  H    2.420516   2.595889   3.774087   4.121187   4.008242
                   16         17         18         19         20
    16  H    0.000000
    17  H    1.756518   0.000000
    18  H    2.499813   2.478756   0.000000
    19  H    2.483694   3.053560   1.754715   0.000000
    20  H    4.307540   3.764822   2.492122   2.496301   0.000000
    21  H    3.757851   2.567149   2.483631   3.054355   1.759278
                   21
    21  H    0.000000
 Stoichiometry    C7H12O2(1-,2)
 Framework group  C1[X(C7H12O2)]
 Deg. of freedom    57
 Full point group                 C1      NOp   1
 Largest Abelian subgroup         C1      NOp   1
 Largest concise Abelian subgroup C1      NOp   1
                         Standard orientation:                         
 ---------------------------------------------------------------------
 Center     Atomic      Atomic             Coordinates (Angstroms)
 Number     Number       Type             X           Y           Z
 ---------------------------------------------------------------------
      1          8           0       -1.701797   -1.239603   -0.689302
      2          6           0       -1.493609   -0.227111   -0.080266
      3          8           0       -2.287202    0.855359   -0.214972
      4          6           0       -0.386233   -0.003644    0.928262
      5          6           0        0.604460   -1.168217    0.921268
      6          6           0        1.467205   -1.177890   -0.340629
      7          6           0        2.166519    0.163116   -0.552988
      8          6           0        1.156982    1.308854   -0.580577
      9          6           0        0.329012    1.335888    0.701662
     10          1           0       -2.980124    0.617613   -0.847587
     11          1           0       -0.899706    0.038165    1.894960
     12          1           0        1.248236   -1.063965    1.799676
     13          1           0        0.066899   -2.111564    1.017842
     14          1           0        2.201981   -1.982366   -0.274689
     15          1           0        0.832128   -1.398273   -1.202354
     16          1           0        2.744955    0.144326   -1.478504
     17          1           0        2.877627    0.336362    0.262437
     18          1           0        1.665382    2.265431   -0.713978
     19          1           0        0.489953    1.184681   -1.441557
     20          1           0       -0.394561    2.149941    0.683867
     21          1           0        0.993205    1.507628    1.553694
 ---------------------------------------------------------------------
 Rotational constants (GHZ):           2.5310325           1.4006431           1.1569964
 Standard basis: def2TZVP (5D, 7F)
 There are   396 symmetry adapted cartesian basis functions of A   symmetry.
 There are   351 symmetry adapted basis functions of A   symmetry.
   351 basis functions,   555 primitive gaussians,   396 cartesian basis functions
    36 alpha electrons       35 beta electrons
       nuclear repulsion energy       488.4188804523 Hartrees.
 NAtoms=   21 NActive=   21 NUniq=   21 SFac= 1.00D+00 NAtFMM=   60 NAOKFM=F Big=F
 Integral buffers will be    131072 words long.
 Raffenetti 2 integral format.
 Two-electron integral symmetry is turned on.
 One-electron integrals computed using PRISM.
   1 Symmetry operations used in ECPInt.
 ECPInt:  NShTT=   10878 NPrTT=   32112 LenC2=   10694 LenP2D=   25391.
 LDataN:  DoStor=T MaxTD1= 6 Len=  172
 NBasis=   351 RedAO= T EigKep=  7.65D-05  NBF=   351
 NBsUse=   351 1.00D-06 EigRej= -1.00D+00 NBFU=   351
 ExpMin= 9.52D-02 ExpMax= 2.70D+04 ExpMxC= 9.22D+02 IAcc=3 IRadAn=         5 AccDes= 0.00D+00
 Harris functional with IExCor= 1009 and IRadAn=       5 diagonalized for initial guess.
 HarFok:  IExCor= 1009 AccDes= 0.00D+00 IRadAn=         5 IDoV= 1 UseB2=F ITyADJ=14
 ICtDFT=  3500011 ScaDFX=  1.000000  1.000000  1.000000  1.000000
 FoFCou: FMM=F IPFlag=           0 FMFlag=      100000 FMFlg1=           0
         NFxFlg=           0 DoJE=T BraDBF=F KetDBF=T FulRan=T
         wScrn=  0.000000 ICntrl=       500 IOpCl=  0 I1Cent=   200000004 NGrid=           0
         NMat0=    1 NMatS0=      1 NMatT0=    0 NMatD0=    1 NMtDS0=    0 NMtDT0=    0
 Petite list used in FoFCou.
 Initial guess <Sx>= 0.0000 <Sy>= 0.0000 <Sz>= 0.5000 <S**2>= 0.7500 S= 0.5000
 Requested convergence on RMS density matrix=1.00D-08 within 128 cycles.
 Requested convergence on MAX density matrix=1.00D-06.
 Requested convergence on             energy=1.00D-06.
 No special actions if energy rises.
 Integral accuracy reduced to 1.0D-05 until final iterations.
 Initial convergence to 1.2D-05 achieved.  Increase integral accuracy.
 SCF Done:  E(UM062X) =  -424.357539733     A.U. after   39 cycles
            NFock= 39  Conv=0.18D-08     -V/T= 2.0038
 <Sx>= 0.0000 <Sy>= 0.0000 <Sz>= 0.5000 <S**2>= 0.7527 S= 0.5013
 <L.S>=  0.00000000000    
 Annihilation of the first spin contaminant:
 S**2 before annihilation     0.7527,   after     0.7500

 **********************************************************************

            Population analysis using the SCF Density.

 **********************************************************************

 Orbital symmetries:
 Alpha Orbitals:
       Occupied  (A) (A) (A) (A) (A) (A) (A) (A) (A) (A) (A) (A)
                 (A) (A) (A) (A) (A) (A) (A) (A) (A) (A) (A) (A)
                 (A) (A) (A) (A) (A) (A) (A) (A) (A) (A) (A) (A)
       Virtual   (A) (A) (A) (A) (A) (A) (A) (A) (A) (A) (A) (A)
                 (A) (A) (A) (A) (A) (A) (A) (A) (A) (A) (A) (A)
                 (A) (A) (A) (A) (A) (A) (A) (A) (A) (A) (A) (A)
                 (A) (A) (A) (A) (A) (A) (A) (A) (A) (A) (A) (A)
                 (A) (A) (A) (A) (A) (A) (A) (A) (A) (A) (A) (A)
                 (A) (A) (A) (A) (A) (A) (A) (A) (A) (A) (A) (A)
                 (A) (A) (A) (A) (A) (A) (A) (A) (A) (A) (A) (A)
                 (A) (A) (A) (A) (A) (A) (A) (A) (A) (A) (A) (A)
                 (A) (A) (A) (A) (A) (A) (A) (A) (A) (A) (A) (A)
                 (A) (A) (A) (A) (A) (A) (A) (A) (A) (A) (A) (A)
                 (A) (A) (A) (A) (A) (A) (A) (A) (A) (A) (A) (A)
                 (A) (A) (A) (A) (A) (A) (A) (A) (A) (A) (A) (A)
                 (A) (A) (A) (A) (A) (A) (A) (A) (A) (A) (A) (A)
                 (A) (A) (A) (A) (A) (A) (A) (A) (A) (A) (A) (A)
                 (A) (A) (A) (A) (A) (A) (A) (A) (A) (A) (A) (A)
                 (A) (A) (A) (A) (A) (A) (A) (A) (A) (A) (A) (A)
                 (A) (A) (A) (A) (A) (A) (A) (A) (A) (A) (A) (A)
                 (A) (A) (A) (A) (A) (A) (A) (A) (A) (A) (A) (A)
                 (A) (A) (A) (A) (A) (A) (A) (A) (A) (A) (A) (A)
                 (A) (A) (A) (A) (A) (A) (A) (A) (A) (A) (A) (A)
                 (A) (A) (A) (A) (A) (A) (A) (A) (A) (A) (A) (A)
                 (A) (A) (A) (A) (A) (A) (A) (A) (A) (A) (A) (A)
                 (A) (A) (A) (A) (A) (A) (A) (A) (A) (A) (A) (A)
                 (A) (A) (A) (A) (A) (A) (A) (A) (A) (A) (A) (A)
                 (A) (A) (A) (A) (A) (A) (A) (A) (A) (A) (A) (A)
                 (A) (A) (A) (A) (A) (A) (A) (A) (A) (A) (A) (A)
                 (A) (A) (A)
 Beta  Orbitals:
       Occupied  (A) (A) (A) (A) (A) (A) (A) (A) (A) (A) (A) (A)
                 (A) (A) (A) (A) (A) (A) (A) (A) (A) (A) (A) (A)
                 (A) (A) (A) (A) (A) (A) (A) (A) (A) (A) (A)
       Virtual   (A) (A) (A) (A) (A) (A) (A) (A) (A) (A) (A) (A)
                 (A) (A) (A) (A) (A) (A) (A) (A) (A) (A) (A) (A)
                 (A) (A) (A) (A) (A) (A) (A) (A) (A) (A) (A) (A)
                 (A) (A) (A) (A) (A) (A) (A) (A) (A) (A) (A) (A)
                 (A) (A) (A) (A) (A) (A) (A) (A) (A) (A) (A) (A)
                 (A) (A) (A) (A) (A) (A) (A) (A) (A) (A) (A) (A)
                 (A) (A) (A) (A) (A) (A) (A) (A) (A) (A) (A) (A)
                 (A) (A) (A) (A) (A) (A) (A) (A) (A) (A) (A) (A)
                 (A) (A) (A) (A) (A) (A) (A) (A) (A) (A) (A) (A)
                 (A) (A) (A) (A) (A) (A) (A) (A) (A) (A) (A) (A)
                 (A) (A) (A) (A) (A) (A) (A) (A) (A) (A) (A) (A)
                 (A) (A) (A) (A) (A) (A) (A) (A) (A) (A) (A) (A)
                 (A) (A) (A) (A) (A) (A) (A) (A) (A) (A) (A) (A)
                 (A) (A) (A) (A) (A) (A) (A) (A) (A) (A) (A) (A)
                 (A) (A) (A) (A) (A) (A) (A) (A) (A) (A) (A) (A)
                 (A) (A) (A) (A) (A) (A) (A) (A) (A) (A) (A) (A)
                 (A) (A) (A) (A) (A) (A) (A) (A) (A) (A) (A) (A)
                 (A) (A) (A) (A) (A) (A) (A) (A) (A) (A) (A) (A)
                 (A) (A) (A) (A) (A) (A) (A) (A) (A) (A) (A) (A)
                 (A) (A) (A) (A) (A) (A) (A) (A) (A) (A) (A) (A)
                 (A) (A) (A) (A) (A) (A) (A) (A) (A) (A) (A) (A)
                 (A) (A) (A) (A) (A) (A) (A) (A) (A) (A) (A) (A)
                 (A) (A) (A) (A) (A) (A) (A) (A) (A) (A) (A) (A)
                 (A) (A) (A) (A) (A) (A) (A) (A) (A) (A) (A) (A)
                 (A) (A) (A) (A) (A) (A) (A) (A) (A) (A) (A) (A)
                 (A) (A) (A) (A) (A) (A) (A) (A) (A) (A) (A) (A)
                 (A) (A) (A) (A)
 The electronic state is 2-A.
 Alpha  occ. eigenvalues --  -19.48582 -19.40819 -10.44434 -10.38444 -10.37903
 Alpha  occ. eigenvalues --  -10.37677 -10.36846 -10.36681 -10.36485  -1.04762
 Alpha  occ. eigenvalues --   -0.94709  -0.78191  -0.69320  -0.68357  -0.57480
 Alpha  occ. eigenvalues --   -0.53988  -0.51642  -0.46356  -0.40921  -0.39173
 Alpha  occ. eigenvalues --   -0.38069  -0.37079  -0.35258  -0.33742  -0.31228
 Alpha  occ. eigenvalues --   -0.28951  -0.28437  -0.28090  -0.25787  -0.24667
 Alpha  occ. eigenvalues --   -0.23510  -0.22079  -0.20222  -0.20061  -0.15864
 Alpha  occ. eigenvalues --    0.10189
 Alpha virt. eigenvalues --    0.19616   0.20950   0.22522   0.23406   0.24603
 Alpha virt. eigenvalues --    0.26121   0.26440   0.27235   0.28629   0.29303
 Alpha virt. eigenvalues --    0.30604   0.31505   0.33225   0.34856   0.37002
 Alpha virt. eigenvalues --    0.37893   0.38458   0.38767   0.39222   0.41241
 Alpha virt. eigenvalues --    0.41701   0.41872   0.42174   0.43188   0.44736
 Alpha virt. eigenvalues --    0.47448   0.48747   0.50402   0.51482   0.52950
 Alpha virt. eigenvalues --    0.56221   0.56683   0.56849   0.57942   0.58438
 Alpha virt. eigenvalues --    0.58922   0.59257   0.59513   0.60081   0.61632
 Alpha virt. eigenvalues --    0.61867   0.62577   0.63313   0.63612   0.64220
 Alpha virt. eigenvalues --    0.65544   0.66158   0.67568   0.67926   0.68451
 Alpha virt. eigenvalues --    0.69449   0.69748   0.71651   0.72063   0.73695
 Alpha virt. eigenvalues --    0.77421   0.78222   0.80272   0.81869   0.83931
 Alpha virt. eigenvalues --    0.85628   0.89220   0.90750   0.91335   0.92477
 Alpha virt. eigenvalues --    0.93783   0.95044   0.98571   0.99768   1.00345
 Alpha virt. eigenvalues --    1.02836   1.03656   1.04104   1.07621   1.09018
 Alpha virt. eigenvalues --    1.10909   1.11520   1.13718   1.15147   1.19499
 Alpha virt. eigenvalues --    1.21411   1.23083   1.23578   1.26062   1.27083
 Alpha virt. eigenvalues --    1.30376   1.30471   1.32528   1.33772   1.34074
 Alpha virt. eigenvalues --    1.34968   1.36708   1.38219   1.40583   1.42605
 Alpha virt. eigenvalues --    1.43664   1.45624   1.46697   1.48889   1.49445
 Alpha virt. eigenvalues --    1.51004   1.58932   1.60528   1.63040   1.66782
 Alpha virt. eigenvalues --    1.68792   1.70915   1.72887   1.73222   1.74720
 Alpha virt. eigenvalues --    1.78098   1.78194   1.79162   1.80956   1.81062
 Alpha virt. eigenvalues --    1.83419   1.84224   1.84682   1.86260   1.88453
 Alpha virt. eigenvalues --    1.89843   1.90084   1.95703   1.96871   1.99337
 Alpha virt. eigenvalues --    2.00005   2.01493   2.02957   2.05065   2.07160
 Alpha virt. eigenvalues --    2.08489   2.09338   2.11193   2.12742   2.14963
 Alpha virt. eigenvalues --    2.17152   2.17957   2.20465   2.24356   2.24874
 Alpha virt. eigenvalues --    2.26726   2.30159   2.32238   2.32584   2.34441
 Alpha virt. eigenvalues --    2.36089   2.36685   2.39775   2.40747   2.42959
 Alpha virt. eigenvalues --    2.45361   2.46706   2.49122   2.51211   2.53310
 Alpha virt. eigenvalues --    2.53735   2.57816   2.58700   2.60955   2.63400
 Alpha virt. eigenvalues --    2.64922   2.67762   2.69088   2.71226   2.72029
 Alpha virt. eigenvalues --    2.72420   2.74271   2.74825   2.75962   2.76864
 Alpha virt. eigenvalues --    2.78131   2.79298   2.80658   2.80950   2.83444
 Alpha virt. eigenvalues --    2.84717   2.85196   2.88070   2.88351   2.89846
 Alpha virt. eigenvalues --    2.92432   2.93283   2.95090   2.96690   2.98443
 Alpha virt. eigenvalues --    3.00158   3.00596   3.05614   3.07313   3.07855
 Alpha virt. eigenvalues --    3.09864   3.12834   3.13213   3.15020   3.18769
 Alpha virt. eigenvalues --    3.20044   3.20360   3.22338   3.24547   3.25200
 Alpha virt. eigenvalues --    3.27710   3.29253   3.29765   3.33129   3.34848
 Alpha virt. eigenvalues --    3.36662   3.37364   3.38918   3.40431   3.41040
 Alpha virt. eigenvalues --    3.42320   3.43935   3.46684   3.47590   3.50411
 Alpha virt. eigenvalues --    3.51821   3.53699   3.53776   3.54730   3.55912
 Alpha virt. eigenvalues --    3.57926   3.58379   3.60312   3.61932   3.63345
 Alpha virt. eigenvalues --    3.64654   3.66042   3.67623   3.68435   3.69885
 Alpha virt. eigenvalues --    3.73045   3.73493   3.74690   3.75663   3.78409
 Alpha virt. eigenvalues --    3.79989   3.81801   3.83741   3.86015   3.90583
 Alpha virt. eigenvalues --    3.96919   4.01221   4.02632   4.05085   4.06474
 Alpha virt. eigenvalues --    4.10914   4.14475   4.14598   4.15647   4.17240
 Alpha virt. eigenvalues --    4.20796   4.21433   4.23797   4.25693   4.26942
 Alpha virt. eigenvalues --    4.31865   4.34541   4.36393   4.38734   4.39959
 Alpha virt. eigenvalues --    4.41422   4.47127   4.48002   4.50315   4.54567
 Alpha virt. eigenvalues --    4.60850   4.66692   4.68099   4.71183   4.74178
 Alpha virt. eigenvalues --    4.75506   4.78748   4.85562   4.90171   4.93387
 Alpha virt. eigenvalues --    4.95306   4.97070   5.02577   5.09303   5.11257
 Alpha virt. eigenvalues --    5.15024   5.17410   5.36925   5.42394   5.42739
 Alpha virt. eigenvalues --    5.59036   5.61248   5.73280   5.82316   5.95836
 Alpha virt. eigenvalues --    6.07253   6.08861   6.39456   6.41627   6.53645
 Alpha virt. eigenvalues --    6.58302   6.66469   6.70644   6.87126   6.89173
 Alpha virt. eigenvalues --    6.96801   7.03049   7.10162   7.29427   7.32714
 Alpha virt. eigenvalues --    7.48433  22.69676  22.75684  22.80062  22.83255
 Alpha virt. eigenvalues --   22.89796  22.97905  23.62537  44.19089  44.28250
  Beta  occ. eigenvalues --  -19.48508 -19.40546 -10.44222 -10.38422 -10.37885
  Beta  occ. eigenvalues --  -10.37678 -10.36847 -10.36634 -10.36369  -1.04287
  Beta  occ. eigenvalues --   -0.94005  -0.78055  -0.69121  -0.68269  -0.57016
  Beta  occ. eigenvalues --   -0.53862  -0.51370  -0.46116  -0.40534  -0.38630
  Beta  occ. eigenvalues --   -0.37558  -0.36680  -0.35067  -0.32925  -0.30949
  Beta  occ. eigenvalues --   -0.28900  -0.28224  -0.27975  -0.25527  -0.24613
  Beta  occ. eigenvalues --   -0.23137  -0.20501  -0.20116  -0.19545  -0.15490
  Beta virt. eigenvalues --    0.16003   0.19227   0.19945   0.21266   0.22451
  Beta virt. eigenvalues --    0.24214   0.24451   0.25718   0.26317   0.26804
  Beta virt. eigenvalues --    0.27267   0.28546   0.30661   0.32655   0.34461
  Beta virt. eigenvalues --    0.35945   0.36962   0.37666   0.37870   0.38190
  Beta virt. eigenvalues --    0.40720   0.41118   0.41233   0.41625   0.42854
  Beta virt. eigenvalues --    0.44085   0.46708   0.48521   0.50183   0.50592
  Beta virt. eigenvalues --    0.52804   0.55426   0.55967   0.56223   0.56672
  Beta virt. eigenvalues --    0.57352   0.57944   0.58184   0.58511   0.59233
  Beta virt. eigenvalues --    0.60135   0.60768   0.62049   0.62073   0.62663
  Beta virt. eigenvalues --    0.63463   0.64916   0.65507   0.66629   0.67025
  Beta virt. eigenvalues --    0.67727   0.68651   0.69206   0.70690   0.71670
  Beta virt. eigenvalues --    0.73688   0.77457   0.78185   0.80962   0.82477
  Beta virt. eigenvalues --    0.84337   0.85988   0.89238   0.91288   0.91743
  Beta virt. eigenvalues --    0.92637   0.93788   0.94834   0.98272   0.99809
  Beta virt. eigenvalues --    1.00223   1.02555   1.03457   1.03898   1.07395
  Beta virt. eigenvalues --    1.08880   1.11174   1.11516   1.13430   1.14819
  Beta virt. eigenvalues --    1.20047   1.21494   1.23138   1.24010   1.26146
  Beta virt. eigenvalues --    1.27494   1.30032   1.30215   1.32473   1.33453
  Beta virt. eigenvalues --    1.34210   1.34854   1.36952   1.38326   1.40476
  Beta virt. eigenvalues --    1.42293   1.43395   1.45510   1.46662   1.48900
  Beta virt. eigenvalues --    1.49255   1.51172   1.59124   1.60577   1.63127
  Beta virt. eigenvalues --    1.66933   1.68644   1.71074   1.72782   1.73667
  Beta virt. eigenvalues --    1.74555   1.77741   1.78323   1.79016   1.80560
  Beta virt. eigenvalues --    1.80947   1.83586   1.84298   1.84801   1.86493
  Beta virt. eigenvalues --    1.88441   1.89818   1.89990   1.95773   1.96759
  Beta virt. eigenvalues --    1.99554   2.00244   2.01822   2.03534   2.05248
  Beta virt. eigenvalues --    2.07706   2.08971   2.09906   2.11568   2.13149
  Beta virt. eigenvalues --    2.15249   2.17351   2.18405   2.21001   2.24693
  Beta virt. eigenvalues --    2.25159   2.27057   2.30537   2.32781   2.32961
  Beta virt. eigenvalues --    2.34767   2.36459   2.37407   2.40090   2.41265
  Beta virt. eigenvalues --    2.43225   2.46082   2.47079   2.49577   2.51716
  Beta virt. eigenvalues --    2.53739   2.54254   2.58010   2.58907   2.61183
  Beta virt. eigenvalues --    2.63761   2.65167   2.68099   2.69301   2.71558
  Beta virt. eigenvalues --    2.72295   2.72489   2.74772   2.75206   2.76278
  Beta virt. eigenvalues --    2.77110   2.78398   2.79372   2.80912   2.81552
  Beta virt. eigenvalues --    2.84034   2.84905   2.85865   2.88527   2.88633
  Beta virt. eigenvalues --    2.90108   2.92719   2.93677   2.95536   2.96985
  Beta virt. eigenvalues --    2.98881   3.00632   3.01038   3.05768   3.06983
  Beta virt. eigenvalues --    3.08674   3.10644   3.13152   3.13676   3.15455
  Beta virt. eigenvalues --    3.19311   3.20259   3.21900   3.23976   3.25407
  Beta virt. eigenvalues --    3.26006   3.28481   3.29523   3.30233   3.33662
  Beta virt. eigenvalues --    3.35120   3.37850   3.38121   3.39325   3.40852
  Beta virt. eigenvalues --    3.41382   3.43048   3.44682   3.47271   3.48051
  Beta virt. eigenvalues --    3.50880   3.52821   3.54328   3.54550   3.55285
  Beta virt. eigenvalues --    3.56386   3.58661   3.58819   3.60983   3.62367
  Beta virt. eigenvalues --    3.63919   3.65108   3.66464   3.68095   3.69008
  Beta virt. eigenvalues --    3.70478   3.73481   3.74013   3.75655   3.76356
  Beta virt. eigenvalues --    3.78945   3.80690   3.82499   3.84625   3.86626
  Beta virt. eigenvalues --    3.91414   3.97554   4.01827   4.03161   4.05669
  Beta virt. eigenvalues --    4.06869   4.11250   4.14937   4.15420   4.16199
  Beta virt. eigenvalues --    4.18107   4.21324   4.21802   4.24154   4.26322
  Beta virt. eigenvalues --    4.27750   4.32667   4.34914   4.37312   4.39168
  Beta virt. eigenvalues --    4.40539   4.41902   4.47446   4.48595   4.50889
  Beta virt. eigenvalues --    4.55001   4.61496   4.67696   4.68576   4.72371
  Beta virt. eigenvalues --    4.74752   4.76276   4.79329   4.86071   4.90756
  Beta virt. eigenvalues --    4.93833   4.95925   4.98044   5.05390   5.10159
  Beta virt. eigenvalues --    5.11894   5.15620   5.18331   5.37138   5.42829
  Beta virt. eigenvalues --    5.43118   5.59224   5.61579   5.73610   5.82865
  Beta virt. eigenvalues --    5.96170   6.07845   6.09571   6.40247   6.42178
  Beta virt. eigenvalues --    6.54634   6.58698   6.67382   6.71996   6.87306
  Beta virt. eigenvalues --    6.89605   6.97333   7.04458   7.10378   7.29959
  Beta virt. eigenvalues --    7.33024   7.48874  22.69711  22.75754  22.80098
  Beta virt. eigenvalues --   22.83315  22.89867  22.98050  23.63199  44.19080
  Beta virt. eigenvalues --   44.28198
          Condensed to atoms (all electrons):
               1          2          3          4          5          6
     1  O    8.053273   0.614685  -0.098424  -0.215657   0.082531  -0.037613
     2  C    0.614685   5.052620   0.320356  -0.132908  -0.414434   0.156437
     3  O   -0.098424   0.320356   8.128664  -0.227743   0.016137  -0.001457
     4  C   -0.215657  -0.132908  -0.227743   7.972661   0.245698   0.089648
     5  C    0.082531  -0.414434   0.016137   0.245698   7.776073  -0.888355
     6  C   -0.037613   0.156437  -0.001457   0.089648  -0.888355   5.807452
     7  C    0.005726  -0.068404   0.000947  -0.270010   0.704535  -0.259751
     8  C   -0.010413   0.162598  -0.004148   0.125290  -0.480082   0.194686
     9  C    0.059446  -0.679832   0.030287   0.062449   1.597700  -0.683937
    10  H    0.000539  -0.013411   0.268353  -0.001437  -0.007256   0.001740
    11  H   -0.005558   0.432348   0.038561  -1.660149  -0.863144   0.222532
    12  H   -0.004183   0.100243   0.000196  -0.187449  -0.555705   0.310166
    13  H    0.002128   0.061870   0.000952  -0.163683   0.052046   0.098584
    14  H   -0.000889   0.007892  -0.000023   0.023780  -0.168159   0.487801
    15  H    0.022140  -0.025645   0.000398  -0.020198   0.030608   0.394085
    16  H   -0.000963   0.008001  -0.000133   0.027836  -0.056905   0.010443
    17  H   -0.001337   0.021416  -0.000226   0.121811  -0.346033   0.188369
    18  H   -0.000988   0.016945  -0.001985   0.069775  -0.046840   0.041160
    19  H   -0.010583   0.049833  -0.005498   0.044382  -0.051878   0.032003
    20  H   -0.002602   0.042298   0.000229  -0.078221  -0.035948   0.013815
    21  H   -0.004716   0.125840  -0.002073  -0.054310  -0.479125   0.170666
               7          8          9         10         11         12
     1  O    0.005726  -0.010413   0.059446   0.000539  -0.005558  -0.004183
     2  C   -0.068404   0.162598  -0.679832  -0.013411   0.432348   0.100243
     3  O    0.000947  -0.004148   0.030287   0.268353   0.038561   0.000196
     4  C   -0.270010   0.125290   0.062449  -0.001437  -1.660149  -0.187449
     5  C    0.704535  -0.480082   1.597700  -0.007256  -0.863144  -0.555705
     6  C   -0.259751   0.194686  -0.683937   0.001740   0.222532   0.310166
     7  C    6.287190  -0.187190   1.057546  -0.000524  -0.112626  -0.243525
     8  C   -0.187190   5.788349  -1.508177   0.003033   0.298105   0.153334
     9  C    1.057546  -1.508177  11.740098  -0.024429  -1.740091  -0.606708
    10  H   -0.000524   0.003033  -0.024429   0.461112   0.024885   0.000821
    11  H   -0.112626   0.298105  -1.740091   0.024885   3.315306   0.418827
    12  H   -0.243525   0.153334  -0.606708   0.000821   0.418827   1.098137
    13  H   -0.029692   0.025507  -0.105896   0.001166   0.163725   0.106153
    14  H   -0.116808   0.028471  -0.035820   0.000037   0.007921   0.028622
    15  H   -0.020609  -0.015786   0.044310  -0.000572  -0.011823  -0.006260
    16  H    0.241894  -0.016299  -0.091580   0.000084   0.004740   0.014111
    17  H   -0.183203   0.190264  -0.559784   0.000150   0.046566   0.138122
    18  H   -0.187828   0.523609  -0.451014   0.000654   0.019347   0.011025
    19  H   -0.123287   0.479776  -0.302165   0.003495   0.024995   0.009121
    20  H   -0.018509   0.054532  -0.005562   0.004591   0.133715   0.015337
    21  H   -0.351183   0.549984  -1.902388   0.003147   0.611195   0.249300
              13         14         15         16         17         18
     1  O    0.002128  -0.000889   0.022140  -0.000963  -0.001337  -0.000988
     2  C    0.061870   0.007892  -0.025645   0.008001   0.021416   0.016945
     3  O    0.000952  -0.000023   0.000398  -0.000133  -0.000226  -0.001985
     4  C   -0.163683   0.023780  -0.020198   0.027836   0.121811   0.069775
     5  C    0.052046  -0.168159   0.030608  -0.056905  -0.346033  -0.046840
     6  C    0.098584   0.487801   0.394085   0.010443   0.188369   0.041160
     7  C   -0.029692  -0.116808  -0.020609   0.241894  -0.183203  -0.187828
     8  C    0.025507   0.028471  -0.015786  -0.016299   0.190264   0.523609
     9  C   -0.105896  -0.035820   0.044310  -0.091580  -0.559784  -0.451014
    10  H    0.001166   0.000037  -0.000572   0.000084   0.000150   0.000654
    11  H    0.163725   0.007921  -0.011823   0.004740   0.046566   0.019347
    12  H    0.106153   0.028622  -0.006260   0.014111   0.138122   0.011025
    13  H    0.652060   0.008660  -0.015954   0.002413   0.015225   0.001482
    14  H    0.008660   0.638576  -0.034511   0.004583   0.022254   0.001157
    15  H   -0.015954  -0.034511   0.535053  -0.012375  -0.003505  -0.002925
    16  H    0.002413   0.004583  -0.012375   0.673660   0.053587   0.019821
    17  H    0.015225   0.022254  -0.003505   0.053587   0.959808   0.063563
    18  H    0.001482   0.001157  -0.002925   0.019821   0.063563   0.710050
    19  H    0.003066   0.001982  -0.004631   0.013559   0.034922   0.010745
    20  H    0.002681   0.000628  -0.001345   0.001885   0.012934   0.021541
    21  H    0.027838   0.007300  -0.006455   0.021772   0.215078   0.116555
              19         20         21
     1  O   -0.010583  -0.002602  -0.004716
     2  C    0.049833   0.042298   0.125840
     3  O   -0.005498   0.000229  -0.002073
     4  C    0.044382  -0.078221  -0.054310
     5  C   -0.051878  -0.035948  -0.479125
     6  C    0.032003   0.013815   0.170666
     7  C   -0.123287  -0.018509  -0.351183
     8  C    0.479776   0.054532   0.549984
     9  C   -0.302165  -0.005562  -1.902388
    10  H    0.003495   0.004591   0.003147
    11  H    0.024995   0.133715   0.611195
    12  H    0.009121   0.015337   0.249300
    13  H    0.003066   0.002681   0.027838
    14  H    0.001982   0.000628   0.007300
    15  H   -0.004631  -0.001345  -0.006455
    16  H    0.013559   0.001885   0.021772
    17  H    0.034922   0.012934   0.215078
    18  H    0.010745   0.021541   0.116555
    19  H    0.613115   0.015092   0.054078
    20  H    0.015092   0.597924   0.132131
    21  H    0.054078   0.132131   1.702359
          Atomic-Atomic Spin Densities.
               1          2          3          4          5          6
     1  O    0.273006  -0.189361   0.017605  -0.008040   0.047155  -0.018863
     2  C   -0.189361   0.723353  -0.062372  -0.218571  -0.386822   0.142934
     3  O    0.017605  -0.062372   0.068916  -0.044267   0.002247  -0.001328
     4  C   -0.008040  -0.218571  -0.044267   2.230046   0.024758   0.160258
     5  C    0.047155  -0.386822   0.002247   0.024758   2.600788  -1.167738
     6  C   -0.018863   0.142934  -0.001328   0.160258  -1.167738   0.680409
     7  C    0.005052  -0.072205   0.000836  -0.258522   0.756200  -0.538250
     8  C   -0.011413   0.159568  -0.006065   0.231262  -0.500577   0.272333
     9  C    0.046901  -0.704487   0.031872  -0.115346   1.638271  -0.701347
    10  H   -0.007468   0.031527  -0.011282  -0.039817  -0.004548   0.001540
    11  H   -0.010570   0.437349   0.031921  -1.982754  -0.837280   0.211561
    12  H   -0.004843   0.088898   0.000377  -0.136318  -0.937438   0.347566
    13  H   -0.006518   0.071372   0.000378  -0.131948  -0.349459   0.127354
    14  H   -0.001559   0.007942  -0.000026   0.012755  -0.120806   0.079381
    15  H    0.008733  -0.025147   0.000670  -0.011740   0.076806  -0.041518
    16  H   -0.000967   0.007913  -0.000141   0.031413  -0.069395   0.059326
    17  H   -0.001240   0.022785  -0.000210   0.113687  -0.335267   0.224142
    18  H   -0.000948   0.018352  -0.001677   0.051790  -0.044322   0.028927
    19  H   -0.009081   0.053353  -0.007991   0.044304  -0.051482   0.032086
    20  H   -0.002909   0.053439  -0.009126  -0.050688  -0.046967   0.016947
    21  H   -0.003858   0.126013  -0.002118  -0.038641  -0.470110   0.170775
               7          8          9         10         11         12
     1  O    0.005052  -0.011413   0.046901  -0.007468  -0.010570  -0.004843
     2  C   -0.072205   0.159568  -0.704487   0.031527   0.437349   0.088898
     3  O    0.000836  -0.006065   0.031872  -0.011282   0.031921   0.000377
     4  C   -0.258522   0.231262  -0.115346  -0.039817  -1.982754  -0.136318
     5  C    0.756200  -0.500577   1.638271  -0.004548  -0.837280  -0.937438
     6  C   -0.538250   0.272333  -0.701347   0.001540   0.211561   0.347566
     7  C    1.103672  -0.482676   1.115348  -0.000592  -0.111947  -0.235670
     8  C   -0.482676   0.741609  -1.828271   0.003471   0.284168   0.153856
     9  C    1.115348  -1.828271   6.500099  -0.021052  -1.707361  -0.597373
    10  H   -0.000592   0.003471  -0.021052   0.018669   0.026793   0.000750
    11  H   -0.111947   0.284168  -1.707361   0.026793   2.734993   0.425243
    12  H   -0.235670   0.153856  -0.597373   0.000750   0.425243   0.462140
    13  H   -0.041612   0.029038  -0.119608   0.001286   0.167905   0.138132
    14  H   -0.063148   0.014283  -0.034163   0.000046   0.008426   0.035805
    15  H    0.032845  -0.013761   0.044605  -0.000527  -0.012149  -0.016108
    16  H   -0.178004   0.032962  -0.104724   0.000086   0.004567   0.014179
    17  H   -0.565292   0.235188  -0.544242   0.000145   0.047093   0.131801
    18  H   -0.134667   0.109406  -0.396495   0.000626   0.020148   0.011225
    19  H   -0.064476   0.036748  -0.237472   0.003078   0.025580   0.008746
    20  H   -0.031334   0.094665  -0.413391   0.005172   0.136714   0.015932
    21  H   -0.341893   0.587848  -2.249735   0.002884   0.621083   0.244107
              13         14         15         16         17         18
     1  O   -0.006518  -0.001559   0.008733  -0.000967  -0.001240  -0.000948
     2  C    0.071372   0.007942  -0.025147   0.007913   0.022785   0.018352
     3  O    0.000378  -0.000026   0.000670  -0.000141  -0.000210  -0.001677
     4  C   -0.131948   0.012755  -0.011740   0.031413   0.113687   0.051790
     5  C   -0.349459  -0.120806   0.076806  -0.069395  -0.335267  -0.044322
     6  C    0.127354   0.079381  -0.041518   0.059326   0.224142   0.028927
     7  C   -0.041612  -0.063148   0.032845  -0.178004  -0.565292  -0.134667
     8  C    0.029038   0.014283  -0.013761   0.032962   0.235188   0.109406
     9  C   -0.119608  -0.034163   0.044605  -0.104724  -0.544242  -0.396495
    10  H    0.001286   0.000046  -0.000527   0.000086   0.000145   0.000626
    11  H    0.167905   0.008426  -0.012149   0.004567   0.047093   0.020148
    12  H    0.138132   0.035805  -0.016108   0.014179   0.131801   0.011225
    13  H    0.083286   0.014910  -0.010566   0.002967   0.015371   0.001296
    14  H    0.014910   0.008627  -0.006134   0.010874   0.029429   0.001861
    15  H   -0.010566  -0.006134   0.000685  -0.007871  -0.012895  -0.002730
    16  H    0.002967   0.010874  -0.007871   0.054540   0.087728   0.026481
    17  H    0.015371   0.029429  -0.012895   0.087728   0.324720   0.068352
    18  H    0.001296   0.001861  -0.002730   0.026481   0.068352   0.080914
    19  H    0.003216   0.002426  -0.007482   0.017882   0.023804   0.042702
    20  H    0.003272   0.000446  -0.001186   0.002439   0.013173   0.028375
    21  H    0.028422   0.007755  -0.006703   0.021865   0.207044   0.120726
              19         20         21
     1  O   -0.009081  -0.002909  -0.003858
     2  C    0.053353   0.053439   0.126013
     3  O   -0.007991  -0.009126  -0.002118
     4  C    0.044304  -0.050688  -0.038641
     5  C   -0.051482  -0.046967  -0.470110
     6  C    0.032086   0.016947   0.170775
     7  C   -0.064476  -0.031334  -0.341893
     8  C    0.036748   0.094665   0.587848
     9  C   -0.237472  -0.413391  -2.249735
    10  H    0.003078   0.005172   0.002884
    11  H    0.025580   0.136714   0.621083
    12  H    0.008746   0.015932   0.244107
    13  H    0.003216   0.003272   0.028422
    14  H    0.002426   0.000446   0.007755
    15  H   -0.007482  -0.001186  -0.006703
    16  H    0.017882   0.002439   0.021865
    17  H    0.023804   0.013173   0.207044
    18  H    0.042702   0.028375   0.120726
    19  H    0.030790   0.018338   0.042112
    20  H    0.018338   0.036548   0.159550
    21  H    0.042112   0.159550   1.069454
 Mulliken charges and spin densities:
               1          2
     1  O   -0.446544   0.120813
     2  C    0.161253   0.285834
     3  O   -0.463367   0.008216
     4  C    0.228434  -0.136381
     5  C   -0.111466  -0.175983
     6  C   -0.348472   0.086492
     7  C   -0.124688  -0.106335
     8  C   -0.355443   0.143642
     9  C    0.105546  -0.397971
    10  H    0.273822   0.010786
    11  H   -0.369376   0.521483
    12  H   -0.049686   0.151006
    13  H    0.089668   0.028494
    14  H    0.086547   0.009129
    15  H    0.156000  -0.012174
    16  H    0.079866   0.014119
    17  H    0.010018   0.085316
    18  H    0.064150   0.030343
    19  H    0.107877   0.007180
    20  H    0.092851   0.029409
    21  H   -0.186992   0.296581
 Sum of Mulliken charges =  -1.00000   1.00000
 Mulliken charges and spin densities with hydrogens summed into heavy atoms:
               1          2
     1  O   -0.446544   0.120813
     2  C    0.161253   0.285834
     3  O   -0.189545   0.019002
     4  C   -0.140941   0.385102
     5  C   -0.071483   0.003517
     6  C   -0.105925   0.083448
     7  C   -0.034804  -0.006899
     8  C   -0.183416   0.181165
     9  C    0.011405  -0.071981
 Electronic spatial extent (au):  <R**2>=           1195.4462
 Charge=             -1.0000 electrons
 Dipole moment (field-independent basis, Debye):
    X=              1.0210    Y=              0.7359    Z=             -3.1229  Tot=              3.3670
 Quadrupole moment (field-independent basis, Debye-Ang):
   XX=            -72.6477   YY=            -72.1900   ZZ=            -73.2045
   XY=             -4.8134   XZ=             -0.7795   YZ=             -4.5611
 Traceless Quadrupole moment (field-independent basis, Debye-Ang):
   XX=              0.0330   YY=              0.4907   ZZ=             -0.5238
   XY=             -4.8134   XZ=             -0.7795   YZ=             -4.5611
 Octapole moment (field-independent basis, Debye-Ang**2):
  XXX=            -38.9924  YYY=             -4.1399  ZZZ=            -44.1622  XYY=             -2.4627
  XXY=              3.0579  XXZ=            -13.9490  XZZ=            -10.1015  YZZ=             -2.3392
  YYZ=             -6.1568  XYZ=              5.8266
 Hexadecapole moment (field-independent basis, Debye-Ang**3):
 XXXX=           -919.6913 YYYY=           -532.4162 ZZZZ=           -402.0094 XXXY=            -29.7093
 XXXZ=             24.5176 YYYX=            -19.5852 YYYZ=            -12.1073 ZZZX=              5.2013
 ZZZY=            -11.0426 XXYY=           -269.9851 XXZZ=           -217.7572 YYZZ=           -155.2993
 XXYZ=            -19.3985 YYXZ=             -7.9906 ZZXY=             -9.5054
 N-N= 4.884188804523D+02 E-N=-1.979161323003D+03  KE= 4.227368846415D+02
                          Isotropic Fermi Contact Couplings
        Atom                 a.u.       MegaHertz       Gauss      10(-4) cm-1
     1  O(17)              0.02825     -17.12683      -6.11128      -5.71290
     2  C(13)              0.03757      42.23227      15.06953      14.08717
     3  O(17)              0.01642      -9.95409      -3.55187      -3.32033
     4  C(13)              0.01096      12.32620       4.39829       4.11158
     5  C(13)              0.04026      45.25656      16.14867      15.09596
     6  C(13)             -0.00058      -0.64671      -0.23076      -0.21572
     7  C(13)              0.01506      16.93002       6.04105       5.64725
     8  C(13)              0.01489      16.74265       5.97419       5.58475
     9  C(13)              0.11848     133.19094      47.52584      44.42771
    10  H(1)              -0.00063      -2.81416      -1.00416      -0.93870
    11  H(1)               0.00727      32.48872      11.59278      10.83707
    12  H(1)              -0.00093      -4.17799      -1.49081      -1.39363
    13  H(1)              -0.00024      -1.06126      -0.37868      -0.35400
    14  H(1)               0.00111       4.95629       1.76853       1.65324
    15  H(1)               0.00149       6.65889       2.37606       2.22117
    16  H(1)               0.00007       0.30371       0.10837       0.10131
    17  H(1)              -0.00017      -0.76045      -0.27135      -0.25366
    18  H(1)               0.00030       1.33957       0.47799       0.44683
    19  H(1)               0.00038       1.69846       0.60605       0.56654
    20  H(1)              -0.00041      -1.81378      -0.64720      -0.60501
    21  H(1)              -0.00156      -6.97744      -2.48972      -2.32742
 --------------------------------------------------------
       Center         ----  Spin Dipole Couplings  ----
                      3XX-RR        3YY-RR        3ZZ-RR
 --------------------------------------------------------
     1   Atom       -0.024521     -0.195908      0.220429
     2   Atom       -0.030030     -0.128850      0.158880
     3   Atom       -0.040642     -0.054250      0.094892
     4   Atom        0.014526     -0.006997     -0.007529
     5   Atom       -0.000623     -0.011434      0.012056
     6   Atom        0.002136      0.001306     -0.003442
     7   Atom        0.006851     -0.009726      0.002875
     8   Atom       -0.003587     -0.001125      0.004712
     9   Atom       -0.008746     -0.012240      0.020987
    10   Atom        0.008727     -0.004812     -0.003915
    11   Atom       -0.009137     -0.008658      0.017795
    12   Atom        0.000159     -0.005265      0.005105
    13   Atom       -0.001066      0.003057     -0.001991
    14   Atom        0.001493     -0.000382     -0.001111
    15   Atom        0.002828     -0.000445     -0.002382
    16   Atom        0.001012     -0.002216      0.001205
    17   Atom        0.001168     -0.003458      0.002291
    18   Atom        0.000294      0.000660     -0.000954
    19   Atom        0.002339     -0.000911     -0.001428
    20   Atom       -0.002419      0.005361     -0.002942
    21   Atom        0.002404     -0.006273      0.003869
 --------------------------------------------------------
                        XY            XZ            YZ
 --------------------------------------------------------
     1   Atom        0.167436     -0.369474     -0.249765
     2   Atom        0.105128     -0.231712     -0.144698
     3   Atom        0.045319     -0.081029     -0.078019
     4   Atom        0.005976     -0.007471     -0.000262
     5   Atom        0.000225      0.016431      0.000329
     6   Atom       -0.004464     -0.002370      0.002140
     7   Atom        0.000541      0.009586      0.000476
     8   Atom        0.003578      0.000027     -0.008467
     9   Atom       -0.002597      0.008244     -0.009797
    10   Atom       -0.000647      0.006869     -0.001241
    11   Atom        0.001230      0.008912      0.005112
    12   Atom       -0.000497      0.006814      0.002330
    13   Atom       -0.000769      0.002500     -0.001071
    14   Atom       -0.002021     -0.000063      0.000590
    15   Atom       -0.004088     -0.002702      0.002604
    16   Atom        0.000101     -0.002061      0.000302
    17   Atom        0.001397      0.003027      0.002375
    18   Atom        0.004247      0.000946      0.000583
    19   Atom        0.007510     -0.002116     -0.002870
    20   Atom       -0.001605      0.002340      0.000028
    21   Atom        0.006527      0.010044      0.004472
 --------------------------------------------------------


 ---------------------------------------------------------------------------------
              Anisotropic Spin Dipole Couplings in Principal Axis System
 ---------------------------------------------------------------------------------

       Atom             a.u.   MegaHertz   Gauss  10(-4) cm-1        Axes

              Baa    -0.3136    22.691     8.097     7.569  0.1377  0.8572  0.4962
     1 O(17)  Bbb    -0.2870    20.768     7.410     6.927  0.8275 -0.3749  0.4180
              Bcc     0.6006   -43.459   -15.507   -14.496 -0.5443 -0.3530  0.7610
 
              Baa    -0.1957   -26.265    -9.372    -8.761 -0.5940  0.8022 -0.0608
     2 C(13)  Bbb    -0.1820   -24.422    -8.715    -8.146  0.6059  0.4957  0.6223
              Bcc     0.3777    50.687    18.086    16.907 -0.5293 -0.3328  0.7805
 
              Baa    -0.0940     6.803     2.428     2.269 -0.5333  0.8377  0.1172
     3 O(17)  Bbb    -0.0750     5.424     1.935     1.809  0.7434  0.3981  0.5375
              Bcc     0.1690   -12.227    -4.363    -4.079 -0.4036 -0.3738  0.8351
 
              Baa    -0.0107    -1.439    -0.513    -0.480  0.3529 -0.5109  0.7839
     4 C(13)  Bbb    -0.0074    -0.998    -0.356    -0.333 -0.0363  0.8297  0.5571
              Bcc     0.0182     2.436     0.869     0.813  0.9350  0.2250 -0.2742
 
              Baa    -0.0119    -1.596    -0.570    -0.532  0.8246  0.0013 -0.5657
     5 C(13)  Bbb    -0.0114    -1.535    -0.548    -0.512 -0.0075  0.9999 -0.0087
              Bcc     0.0233     3.131     1.117     1.044  0.5657  0.0115  0.8246
 
              Baa    -0.0044    -0.591    -0.211    -0.197  0.2188 -0.1879  0.9575
     6 C(13)  Bbb    -0.0028    -0.371    -0.132    -0.124  0.6715  0.7410 -0.0080
              Bcc     0.0072     0.962     0.343     0.321  0.7080 -0.6447 -0.2883
 
              Baa    -0.0097    -1.308    -0.467    -0.436 -0.0193  0.9995 -0.0230
     7 C(13)  Bbb    -0.0049    -0.661    -0.236    -0.221 -0.6314  0.0056  0.7754
              Bcc     0.0147     1.969     0.703     0.657  0.7752  0.0295  0.6310
 
              Baa    -0.0089    -1.189    -0.424    -0.397 -0.5005  0.7340  0.4590
     8 C(13)  Bbb    -0.0022    -0.294    -0.105    -0.098  0.8537  0.3306  0.4023
              Bcc     0.0110     1.482     0.529     0.494 -0.1435 -0.5932  0.7922
 
              Baa    -0.0149    -2.005    -0.715    -0.669  0.0783  0.9662  0.2455
     9 C(13)  Bbb    -0.0109    -1.460    -0.521    -0.487  0.9670 -0.0137 -0.2544
              Bcc     0.0258     3.465     1.236     1.156  0.2424 -0.2573  0.9354
 
              Baa    -0.0073    -3.869    -1.381    -1.291 -0.3587  0.3459  0.8670
    10 H(1)   Bbb    -0.0046    -2.433    -0.868    -0.812  0.1966  0.9360 -0.2921
              Bcc     0.0118     6.303     2.249     2.102  0.9125 -0.0656  0.4037
 
              Baa    -0.0119    -6.326    -2.257    -2.110  0.9440  0.1249 -0.3053
    11 H(1)   Bbb    -0.0095    -5.089    -1.816    -1.698 -0.1704  0.9771 -0.1272
              Bcc     0.0214    11.415     4.073     3.808  0.2824  0.1721  0.9437
 
              Baa    -0.0068    -3.633    -1.296    -1.212  0.4647  0.7804 -0.4184
    12 H(1)   Bbb    -0.0032    -1.732    -0.618    -0.578  0.6857 -0.6161 -0.3876
              Bcc     0.0101     5.365     1.914     1.790  0.5602  0.1068  0.8214
 
              Baa    -0.0041    -2.180    -0.778    -0.727 -0.6294  0.0485  0.7755
    13 H(1)   Bbb     0.0004     0.216     0.077     0.072  0.7140  0.4300  0.5525
              Bcc     0.0037     1.964     0.701     0.655 -0.3067  0.9015 -0.3053
 
              Baa    -0.0019    -1.036    -0.370    -0.345  0.4322  0.7500 -0.5007
    14 H(1)   Bbb    -0.0009    -0.468    -0.167    -0.156  0.3435  0.3764  0.8604
              Bcc     0.0028     1.504     0.537     0.502  0.8338 -0.5439 -0.0949
 
              Baa    -0.0042    -2.239    -0.799    -0.747 -0.0421 -0.6002  0.7987
    15 H(1)   Bbb    -0.0029    -1.522    -0.543    -0.508  0.6514  0.5897  0.4774
              Bcc     0.0070     3.761     1.342     1.255  0.7575 -0.5404 -0.3662
 
              Baa    -0.0023    -1.217    -0.434    -0.406 -0.1319  0.9778 -0.1626
    16 H(1)   Bbb    -0.0009    -0.478    -0.170    -0.159  0.7129  0.2075  0.6699
              Bcc     0.0032     1.694     0.605     0.565 -0.6888  0.0276  0.7245
 
              Baa    -0.0043    -2.312    -0.825    -0.771 -0.0718  0.9489 -0.3075
    17 H(1)   Bbb    -0.0013    -0.689    -0.246    -0.230  0.7982 -0.1302 -0.5882
              Bcc     0.0056     3.001     1.071     1.001  0.5981  0.2876  0.7480
 
              Baa    -0.0038    -2.029    -0.724    -0.677  0.7273 -0.6786 -0.1027
    18 H(1)   Bbb    -0.0011    -0.599    -0.214    -0.200 -0.0498 -0.2014  0.9782
              Bcc     0.0049     2.628     0.938     0.876  0.6845  0.7063  0.1803
 
              Baa    -0.0071    -3.807    -1.358    -1.270 -0.5860  0.7900  0.1800
    19 H(1)   Bbb    -0.0024    -1.257    -0.449    -0.419  0.3489  0.0456  0.9360
              Bcc     0.0095     5.064     1.807     1.689  0.7313  0.6114 -0.3024
 
              Baa    -0.0052    -2.748    -0.981    -0.917 -0.6820 -0.1060  0.7237
    20 H(1)   Bbb    -0.0006    -0.294    -0.105    -0.098  0.7011  0.1871  0.6881
              Bcc     0.0057     3.042     1.085     1.015 -0.2083  0.9766 -0.0532
 
              Baa    -0.0099    -5.270    -1.880    -1.758 -0.5459  0.8278  0.1296
    21 H(1)   Bbb    -0.0060    -3.219    -1.148    -1.074 -0.5151 -0.4535  0.7274
              Bcc     0.0159     8.489     3.029     2.832  0.6608  0.3303  0.6739
 

 ---------------------------------------------------------------------------------

 Unable to Open any file for archive entry.
 1\1\GINC-NODE16\SP\UM062X\def2TZVP\C7H12O2(1-,2)\SVSS\29-Jan-2024\0\\#
  m062x/def2tzvp\\Ac7_rdkit_conf_1_SP_EA\\-1,2\O,0,-1.701797,-1.239603,
 -0.689302\C,0,-1.493609,-0.227111,-0.080266\O,0,-2.287202,0.855359,-0.
 214972\C,0,-0.386233,-0.003644,0.928262\C,0,0.60446,-1.168217,0.921268
 \C,0,1.467205,-1.17789,-0.340629\C,0,2.166519,0.163116,-0.552988\C,0,1
 .156982,1.308854,-0.580577\C,0,0.329012,1.335888,0.701662\H,0,-2.98012
 4,0.617613,-0.847587\H,0,-0.899706,0.038165,1.89496\H,0,1.248236,-1.06
 3965,1.799676\H,0,0.066899,-2.111564,1.017842\H,0,2.201981,-1.982366,-
 0.274689\H,0,0.832128,-1.398273,-1.202354\H,0,2.744955,0.144326,-1.478
 504\H,0,2.877627,0.336362,0.262437\H,0,1.665382,2.265431,-0.713978\H,0
 ,0.489953,1.184681,-1.441557\H,0,-0.394561,2.149941,0.683867\H,0,0.993
 205,1.507628,1.553694\\Version=AS64L-G16RevC.01\State=2-A\HF=-424.3575
 397\S2=0.752651\S2-1=0.\S2A=0.750006\RMSD=1.849e-09\Dipole=0.4017085,0
 .289518,-1.2286383\Quadrupole=0.0245549,0.3648492,-0.3894041,-3.578638
 7,-0.5795189,-3.3910371\PG=C01 [X(C7H12O2)]\\@
 The archive entry for this job was punched.


 10 WHATSOEVER THY HAND FINDETH TO DO, DO IT WITH THY  
 MIGHT. FOR THERE IS NO WORK, NOR DEVICE, NOR KNOWLEDGE, NOR  
 WISDOM, IN THE GRAVE, WHITHER THOU GOEST.                    
 11 I RETURNED AND SAW UNDER THE SUN, THAT THE RACE IS NOT TO 
 THE SWIFT, NOR THE BATTLE TO THE STRONG, NEITHER YET BREAD TO
 THE WISE, NOR YET RICHES TO MEN OF UNDERSTANDING, NOR YET    
 FAVOR TO MEN OF SKILL. BUT TIME AND CHANCE HAPPEN TO THEM ALL.
 12 FOR MAN ALSO KNOWETH NOT HIS TIME. AS THE FISHES   
 THAT ARE TAKEN IN AN EVIL NET, AND AS THE BIRDS THAT ARE     
 CAUGHT IN THE SNARE. SO ARE THE SONS OF MEN SNARED IN AN EVIL
 TIME, WHEN IT FALLETH SUDDENLY UPON THEM.
                                         ECCLESIASTES 9
 Job cpu time:       0 days  0 hours 49 minutes  1.5 seconds.
 Elapsed time:       0 days  0 hours  6 minutes 17.4 seconds.
 File lengths (MBytes):  RWF=    119 Int=      0 D2E=      0 Chk=     10 Scr=      1
 Normal termination of Gaussian 16 at Mon Jan 29 13:00:21 2024.
