
                                 *****************
                                 * O   R   C   A *
                                 *****************

                                            #,                                       
                                            ###                                      
                                            ####                                     
                                            #####                                    
                                            ######                                   
                                           ########,                                 
                                     ,,################,,,,,                         
                               ,,#################################,,                 
                          ,,##########################################,,             
                       ,#########################################, ''#####,          
                    ,#############################################,,   '####,        
                  ,##################################################,,,,####,       
                ,###########''''           ''''###############################       
              ,#####''   ,,,,##########,,,,          '''####'''          '####       
            ,##' ,,,,###########################,,,                        '##       
           ' ,,###''''                  '''############,,,                           
         ,,##''                                '''############,,,,        ,,,,,,###''
      ,#''                                            '''#######################'''  
     '                                                          ''''####''''         
             ,#######,   #######,   ,#######,      ##                                
            ,#'     '#,  ##    ##  ,#'     '#,    #''#        ######   ,####,        
            ##       ##  ##   ,#'  ##            #'  '#       #        #'  '#        
            ##       ##  #######   ##           ,######,      #####,   #    #        
            '#,     ,#'  ##    ##  '#,     ,#' ,#      #,         ##   #,  ,#        
             '#######'   ##     ##  '#######'  #'      '#     #####' # '####'        



                  #######################################################
                  #                        -***-                        #
                  #          Department of theory and spectroscopy      #
                  #    Directorship and core code : Frank Neese         #
                  #        Max Planck Institute fuer Kohlenforschung    #
                  #                Kaiser Wilhelm Platz 1               #
                  #                 D-45470 Muelheim/Ruhr               #
                  #                      Germany                        #
                  #                                                     #
                  #                  All rights reserved                #
                  #                        -***-                        #
                  #######################################################


                         Program Version 5.0.4 -  RELEASE  -


 With contributions from (in alphabetic order):
   Daniel Aravena         : Magnetic Suceptibility
   Michael Atanasov       : Ab Initio Ligand Field Theory (pilot matlab implementation)
   Alexander A. Auer      : GIAO ZORA, VPT2 properties, NMR spectrum
   Ute Becker             : Parallelization
   Giovanni Bistoni       : ED, misc. LED, open-shell LED, HFLD
   Martin Brehm           : Molecular dynamics
   Dmytro Bykov           : SCF Hessian
   Vijay G. Chilkuri      : MRCI spin determinant printing, contributions to CSF-ICE
   Dipayan Datta          : RHF DLPNO-CCSD density
   Achintya Kumar Dutta   : EOM-CC, STEOM-CC
   Dmitry Ganyushin       : Spin-Orbit,Spin-Spin,Magnetic field MRCI
   Miquel Garcia          : C-PCM and meta-GGA Hessian, CC/C-PCM, Gaussian charge scheme
   Yang Guo               : DLPNO-NEVPT2, F12-NEVPT2, CIM, IAO-localization
   Andreas Hansen         : Spin unrestricted coupled pair/coupled cluster methods
   Benjamin Helmich-Paris : MC-RPA, TRAH-SCF, COSX integrals
   Lee Huntington         : MR-EOM, pCC
   Robert Izsak           : Overlap fitted RIJCOSX, COSX-SCS-MP3, EOM
   Marcus Kettner         : VPT2
   Christian Kollmar      : KDIIS, OOCD, Brueckner-CCSD(T), CCSD density, CASPT2, CASPT2-K
   Simone Kossmann        : Meta GGA functionals, TD-DFT gradient, OOMP2, MP2 Hessian
   Martin Krupicka        : Initial AUTO-CI
   Lucas Lang             : DCDCAS
   Marvin Lechner         : AUTO-CI (C++ implementation), FIC-MRCC
   Dagmar Lenk            : GEPOL surface, SMD
   Dimitrios Liakos       : Extrapolation schemes; Compound Job, initial MDCI parallelization
   Dimitrios Manganas     : Further ROCIS development; embedding schemes
   Dimitrios Pantazis     : SARC Basis sets
   Anastasios Papadopoulos: AUTO-CI, single reference methods and gradients
   Taras Petrenko         : DFT Hessian,TD-DFT gradient, ASA, ECA, R-Raman, ABS, FL, XAS/XES, NRVS
   Peter Pinski           : DLPNO-MP2, DLPNO-MP2 Gradient
   Christoph Reimann      : Effective Core Potentials
   Marius Retegan         : Local ZFS, SOC
   Christoph Riplinger    : Optimizer, TS searches, QM/MM, DLPNO-CCSD(T), (RO)-DLPNO pert. Triples
   Tobias Risthaus        : Range-separated hybrids, TD-DFT gradient, RPA, STAB
   Michael Roemelt        : Original ROCIS implementation
   Masaaki Saitow         : Open-shell DLPNO-CCSD energy and density
   Barbara Sandhoefer     : DKH picture change effects
   Avijit Sen             : IP-ROCIS
   Kantharuban Sivalingam : CASSCF convergence, NEVPT2, FIC-MRCI
   Bernardo de Souza      : ESD, SOC TD-DFT
   Georgi Stoychev        : AutoAux, RI-MP2 NMR, DLPNO-MP2 response
   Willem Van den Heuvel  : Paramagnetic NMR
   Boris Wezisla          : Elementary symmetry handling
   Frank Wennmohs         : Technical directorship


 We gratefully acknowledge several colleagues who have allowed us to
 interface, adapt or use parts of their codes:
   Stefan Grimme, W. Hujo, H. Kruse, P. Pracht,  : VdW corrections, initial TS optimization,
                  C. Bannwarth, S. Ehlert          DFT functionals, gCP, sTDA/sTD-DF
   Ed Valeev, F. Pavosevic, A. Kumar             : LibInt (2-el integral package), F12 methods
   Garnet Chan, S. Sharma, J. Yang, R. Olivares  : DMRG
   Ulf Ekstrom                                   : XCFun DFT Library
   Mihaly Kallay                                 : mrcc  (arbitrary order and MRCC methods)
   Jiri Pittner, Ondrej Demel                    : Mk-CCSD
   Frank Weinhold                                : gennbo (NPA and NBO analysis)
   Christopher J. Cramer and Donald G. Truhlar   : smd solvation model
   Lars Goerigk                                  : TD-DFT with DH, B97 family of functionals
   V. Asgeirsson, H. Jonsson                     : NEB implementation
   FAccTs GmbH                                   : IRC, NEB, NEB-TS, DLPNO-Multilevel, CI-OPT
                                                   MM, QMMM, 2- and 3-layer-ONIOM, Crystal-QMMM,
                                                   LR-CPCM, SF, NACMEs, symmetry and pop. for TD-DFT,
                                                   nearIR, NL-DFT gradient (VV10), updates on ESD,
                                                   ML-optimized integration grids
   S Lehtola, MJT Oliveira, MAL Marques          : LibXC Library
   Liviu Ungur et al                             : ANISO software


 Your calculation uses the libint2 library for the computation of 2-el integrals
 For citations please refer to: http://libint.valeyev.net

 Your ORCA version has been built with support for libXC version: 5.1.0
 For citations please refer to: https://tddft.org/programs/libxc/

 This ORCA versions uses:
   CBLAS   interface :  Fast vector & matrix operations
   LAPACKE interface :  Fast linear algebra routines
   SCALAPACK package :  Parallel linear algebra routines
   Shared memory     :  Shared parallel matrices
   BLAS/LAPACK       :  OpenBLAS 0.3.15  USE64BITINT DYNAMIC_ARCH NO_AFFINITY SkylakeX SINGLE_THREADED
        Core in use  :  SkylakeX
   Copyright (c) 2011-2014, The OpenBLAS Project


Your calculation utilizes the DFT-NL dispersion correction.
Cite in your paper:
Vydrov, O. A.; Van Voorhis, T. J. Chem. Phys. 2010, 133, 244103
Hujo, W.; Grimme, S. J. Chem. Theory Comput. 2011, 7, 3866 
   

================================================================================

----- Orbital basis set information -----
Your calculation utilizes the basis: def2-TZVPP
   F. Weigend and R. Ahlrichs, Phys. Chem. Chem. Phys. 7, 3297 (2005).

----- AuxJ basis set information -----
Your calculation utilizes the auxiliary basis: def2/J
   F. Weigend, Phys. Chem. Chem. Phys. 8, 1057 (2006).

================================================================================
                                        WARNINGS
                       Please study these warnings very carefully!
================================================================================

Using LibXC functional ID 531 : wB97M-V exchange-correlation functional
[ 1]  N. Mardirossian and M. Head-Gordon, J. Chem. Phys. 144, 214110 (2016)
Using LibXC functional ID 531 : wB97M-V exchange-correlation functional
[ 1]  N. Mardirossian and M. Head-Gordon, J. Chem. Phys. 144, 214110 (2016)

WARNING: B97M-V or wB97M-V functional requested.
  ===> : libXC variant has now been activated.
         Any manually given DFX/HFX/RangeSep scaling parameters are IGNORED!

Your calculation utilizes LibXC
 by S Lehtola, C Steigemann, MJT Oliveira & MAL Marques
Please cite in your paper:
 S Lehtola, C Steigemann, MJT Oliveira & MAL Marques, SoftwareX, 7, (2018), 1.
   


WARNING: your system is open-shell and RHF/RKS was chosen
  ===> : WILL SWITCH to UHF/UKS


INFO   : the flag for use of the SHARK integral package has been found!

================================================================================
                                       INPUT FILE
================================================================================
NAME = arbr_04_r2scan3c_wB97MV_ox.inp
|  1> %PAL NPROCS 16 END
|  2> %maxcore 4000
|  3> # arbr_04_r2scan3c.out
|  4> ! wB97m-v def2-TZVPP def2/J RIJCOSX Hirshfeld
|  5> * xyz 1 2
|  6>    C        4.46238        -1.02125        -0.00009
|  7>    N        3.08700        -0.60025         0.00002
|  8>    C        1.98340        -1.53653         0.00003
|  9>    C        0.78340        -0.62772         0.00005
| 10>    C       -0.56530        -0.93404         0.00004
| 11>    C       -1.45609         0.13142         0.00001
| 12>   Br       -3.31452        -0.23619        -0.00001
| 13>    C       -1.03470         1.45847        -0.00002
| 14>    C        0.32245         1.74555        -0.00001
| 15>    C        1.21314         0.68811         0.00003
| 16>    C        2.70179         0.71357         0.00010
| 17>    O        3.43354         1.67745        -0.00002
| 18>    H        4.68923        -1.61602        -0.88806
| 19>    H        4.68932        -1.61612         0.88780
| 20>    H        5.08248        -0.12710        -0.00007
| 21>    H        2.00983        -2.18050        -0.88521
| 22>    H        2.00986        -2.18052         0.88525
| 23>    H       -0.92771        -1.95320         0.00004
| 24>    H       -1.76925         2.25127        -0.00004
| 25>    H        0.68431         2.76563        -0.00002
| 26> *
| 27> 
| 28>                          ****END OF INPUT****
================================================================================

                       ****************************
                       * Single Point Calculation *
                       ****************************

---------------------------------
CARTESIAN COORDINATES (ANGSTROEM)
---------------------------------
  C      4.462380   -1.021250   -0.000090
  N      3.087000   -0.600250    0.000020
  C      1.983400   -1.536530    0.000030
  C      0.783400   -0.627720    0.000050
  C     -0.565300   -0.934040    0.000040
  C     -1.456090    0.131420    0.000010
  Br    -3.314520   -0.236190   -0.000010
  C     -1.034700    1.458470   -0.000020
  C      0.322450    1.745550   -0.000010
  C      1.213140    0.688110    0.000030
  C      2.701790    0.713570    0.000100
  O      3.433540    1.677450   -0.000020
  H      4.689230   -1.616020   -0.888060
  H      4.689320   -1.616120    0.887800
  H      5.082480   -0.127100   -0.000070
  H      2.009830   -2.180500   -0.885210
  H      2.009860   -2.180520    0.885250
  H     -0.927710   -1.953200    0.000040
  H     -1.769250    2.251270   -0.000040
  H      0.684310    2.765630   -0.000020

----------------------------
CARTESIAN COORDINATES (A.U.)
----------------------------
  NO LB      ZA    FRAG     MASS         X           Y           Z
   0 C     6.0000    0    12.011    8.432676   -1.929883   -0.000170
   1 N     7.0000    0    14.007    5.833585   -1.134308    0.000038
   2 C     6.0000    0    12.011    3.748083   -2.903621    0.000057
   3 C     6.0000    0    12.011    1.480411   -1.186219    0.000094
   4 C     6.0000    0    12.011   -1.068262   -1.765080    0.000076
   5 C     6.0000    0    12.011   -2.751611    0.248348    0.000019
   6 Br   35.0000    0    79.900   -6.263535   -0.446334   -0.000019
   7 C     6.0000    0    12.011   -1.955300    2.756109   -0.000038
   8 C     6.0000    0    12.011    0.609342    3.298611   -0.000019
   9 C     6.0000    0    12.011    2.292502    1.300339    0.000057
  10 C     6.0000    0    12.011    5.105643    1.348452    0.000189
  11 O     8.0000    0    15.999    6.488450    3.169921   -0.000038
  12 H     1.0000    0     1.008    8.861360   -3.053835   -1.678190
  13 H     1.0000    0     1.008    8.861531   -3.054024    1.677699
  14 H     1.0000    0     1.008    9.604495   -0.240184   -0.000132
  15 H     1.0000    0     1.008    3.798028   -4.120548   -1.672804
  16 H     1.0000    0     1.008    3.798085   -4.120586    1.672880
  17 H     1.0000    0     1.008   -1.753118   -3.691013    0.000076
  18 H     1.0000    0     1.008   -3.343398    4.254284   -0.000076
  19 H     1.0000    0     1.008    1.293158    5.226283   -0.000038

--------------------------------
INTERNAL COORDINATES (ANGSTROEM)
--------------------------------
 C      0   0   0     0.000000000000     0.00000000     0.00000000
 N      1   0   0     1.438371007946     0.00000000     0.00000000
 C      2   1   0     1.447257129366   122.66995217     0.00000000
 C      3   2   1     1.505302499998   102.55099232   180.00425960
 C      4   3   2     1.383048673222   130.06575942   179.99858232
 C      5   4   3     1.388780701407   117.10161816   180.00252147
 Br     6   5   4     1.894439013904   118.70864368   179.99982016
 C      6   5   4     1.392347383199   122.48563727     0.00000000
 C      8   6   5     1.387180971972   119.56046448     0.00000000
 C      9   8   6     1.382572975036   118.16390140     0.00000000
 C      2   1   3     1.369127365478   123.36026012   180.00121600
 O     11   2   1     1.210174669748   126.45421973     0.00000000
 H      1   2   3     1.092567158714   110.97342701    60.49993359
 H      1   2   3     1.092575275484   110.97211356   299.49933215
 H      1   2   3     1.088130613897   107.72240567   180.00016638
 H      3   2   1     1.095009480964   111.22602185   299.86203245
 H      3   2   1     1.095005799117   111.22622553    60.14547097
 H      5   4   3     1.081678378124   122.37129848     0.00000000
 H      8   6   5     1.080784688502   119.56741707   180.00016261
 H      9   8   6     1.082361245657   121.47526939   180.00077996

---------------------------
INTERNAL COORDINATES (A.U.)
---------------------------
 C      0   0   0     0.000000000000     0.00000000     0.00000000
 N      1   0   0     2.718127283990     0.00000000     0.00000000
 C      2   1   0     2.734919619866   122.66995217     0.00000000
 C      3   2   1     2.844609473703   102.55099232   180.00425960
 C      4   3   2     2.613583222272   130.06575942   179.99858232
 C      5   4   3     2.624415185734   117.10161816   180.00252147
 Br     6   5   4     3.579970913694   118.70864368   179.99982016
 C      6   5   4     2.631155237527   122.48563727     0.00000000
 C      8   6   5     2.621392135213   119.56046448     0.00000000
 C      9   8   6     2.612684282979   118.16390140     0.00000000
 C      2   1   3     2.587275763210   123.36026012   180.00121600
 O     11   2   1     2.286898700033   126.45421973     0.00000000
 H      1   2   3     2.064652712886   110.97342701    60.49993359
 H      1   2   3     2.064668051359   110.97211356   299.49933215
 H      1   2   3     2.056268858201   107.72240567   180.00016638
 H      3   2   1     2.069268033068   111.22602185   299.86203245
 H      3   2   1     2.069261075387   111.22622553    60.14547097
 H      5   4   3     2.044075899638   122.37129848     0.00000000
 H      8   6   5     2.042387071004   119.56741707   180.00016261
 H      9   8   6     2.045366332261   121.47526939   180.00077996

---------------------
BASIS SET INFORMATION
---------------------
There are 5 groups of distinct atoms

 Group   1 Type C   : 11s6p2d1f contracted to 5s3p2d1f pattern {62111/411/11/1}
 Group   2 Type N   : 11s6p2d1f contracted to 5s3p2d1f pattern {62111/411/11/1}
 Group   3 Type Br  : 17s13p8d1f contracted to 6s5p4d1f pattern {842111/64111/5111/1}
 Group   4 Type O   : 11s6p2d1f contracted to 5s3p2d1f pattern {62111/411/11/1}
 Group   5 Type H   : 5s2p1d contracted to 3s2p1d pattern {311/11/1}

Atom   0C    basis set group =>   1
Atom   1N    basis set group =>   2
Atom   2C    basis set group =>   1
Atom   3C    basis set group =>   1
Atom   4C    basis set group =>   1
Atom   5C    basis set group =>   1
Atom   6Br   basis set group =>   3
Atom   7C    basis set group =>   1
Atom   8C    basis set group =>   1
Atom   9C    basis set group =>   1
Atom  10C    basis set group =>   1
Atom  11O    basis set group =>   4
Atom  12H    basis set group =>   5
Atom  13H    basis set group =>   5
Atom  14H    basis set group =>   5
Atom  15H    basis set group =>   5
Atom  16H    basis set group =>   5
Atom  17H    basis set group =>   5
Atom  18H    basis set group =>   5
Atom  19H    basis set group =>   5
---------------------------------
AUXILIARY/J BASIS SET INFORMATION
---------------------------------
There are 5 groups of distinct atoms

 Group   1 Type C   : 12s5p4d2f1g contracted to 6s4p3d1f1g pattern {711111/2111/211/2/1}
 Group   2 Type N   : 12s5p4d2f1g contracted to 6s4p3d1f1g pattern {711111/2111/211/2/1}
 Group   3 Type Br  : 19s5p5d3f1g contracted to 8s4p3d2f1g pattern {121111111/2111/311/21/1}
 Group   4 Type O   : 12s5p4d2f1g contracted to 6s4p3d1f1g pattern {711111/2111/211/2/1}
 Group   5 Type H   : 5s2p1d contracted to 3s1p1d pattern {311/2/1}

Atom   0C    basis set group =>   1
Atom   1N    basis set group =>   2
Atom   2C    basis set group =>   1
Atom   3C    basis set group =>   1
Atom   4C    basis set group =>   1
Atom   5C    basis set group =>   1
Atom   6Br   basis set group =>   3
Atom   7C    basis set group =>   1
Atom   8C    basis set group =>   1
Atom   9C    basis set group =>   1
Atom  10C    basis set group =>   1
Atom  11O    basis set group =>   4
Atom  12H    basis set group =>   5
Atom  13H    basis set group =>   5
Atom  14H    basis set group =>   5
Atom  15H    basis set group =>   5
Atom  16H    basis set group =>   5
Atom  17H    basis set group =>   5
Atom  18H    basis set group =>   5
Atom  19H    basis set group =>   5


           ************************************************************
           *        Program running with 16 parallel MPI-processes    *
           *              working on a common directory               *
           ************************************************************
------------------------------------------------------------------------------
                           ORCA GTO INTEGRAL CALCULATION
                           -- RI-GTO INTEGRALS CHOSEN --
------------------------------------------------------------------------------
------------------------------------------------------------------------------
                   ___                                                        
                  /   \      - P O W E R E D   B Y -                         
                 /     \                                                     
                 |  |  |   _    _      __       _____    __    __             
                 |  |  |  | |  | |    /  \     |  _  \  |  |  /  |          
                  \  \/   | |  | |   /    \    | | | |  |  | /  /          
                 / \  \   | |__| |  /  /\  \   | |_| |  |  |/  /          
                |  |  |   |  __  | /  /__\  \  |    /   |      \           
                |  |  |   | |  | | |   __   |  |    \   |  |\   \          
                \     /   | |  | | |  |  |  |  | |\  \  |  | \   \       
                 \___/    |_|  |_| |__|  |__|  |_| \__\ |__|  \__/        
                                                                              
                      - O R C A' S   B I G   F R I E N D -                    
                                      &                                       
                       - I N T E G R A L  F E E D E R -                       
                                                                              
 v1 FN, 2020, v2 2021                                                         
------------------------------------------------------------------------------


Reading SHARK input file arbr_04_r2scan3c_wB97MV_ox.SHARKINP.tmp ... ok
----------------------
SHARK INTEGRAL PACKAGE
----------------------

Number of atoms                             ...     20
Number of basis functions                   ...    501
Number of shells                            ...    185
Maximum angular momentum                    ...      3
Integral batch strategy                     ... SHARK/LIBINT Hybrid
RI-J (if used) integral strategy            ... SPLIT-RIJ (Revised 2003 algorithm where possible)
Printlevel                                  ...      1
Contraction scheme used                     ... SEGMENTED contraction
Coulomb Range Separation                    ... NOT USED
Exchange Range Separation                   ... Long Range
   Mu parameter                             ...  0.300000
   Scaling (regular/separated)              ...  0.150000  0.850000
Finite Nucleus Model                        ... NOT USED
Auxiliary Coulomb fitting basis             ... AVAILABLE
   # of basis functions in Aux-J            ...    685
   # of shells in Aux-J                     ...    223
   Maximum angular momentum in Aux-J        ...      4
Auxiliary J/K fitting basis                 ... NOT available
Auxiliary Correlation fitting basis         ... NOT available
Auxiliary 'external' fitting basis          ... NOT available
Integral threshold                          ...     1.000000e-10
Primitive cut-off                           ...     1.000000e-11
Primitive pair pre-selection threshold      ...     1.000000e-11

Calculating pre-screening integrals         ... done (  0.1 sec) Dimension = 185
Organizing shell pair data                  ... done (  0.1 sec)
Shell pair information
Total number of shell pairs                 ...     17205
Shell pairs after pre-screening             ...     13924
Total number of primitive shell pairs       ...     52658
Primitive shell pairs kept                  ...     30037
          la=0 lb=0:   2864 shell pairs
          la=1 lb=0:   3802 shell pairs
          la=1 lb=1:   1285 shell pairs
          la=2 lb=0:   2246 shell pairs
          la=2 lb=1:   1511 shell pairs
          la=2 lb=2:    456 shell pairs
          la=3 lb=0:    818 shell pairs
          la=3 lb=1:    543 shell pairs
          la=3 lb=2:    331 shell pairs
          la=3 lb=3:     68 shell pairs

Calculating one electron integrals          ... done (  0.0 sec)
Calculating RI/J V-Matrix + Cholesky decomp.... done (  0.0 sec)
Calculating Nuclear repulsion               ... done (  0.0 sec) ENN=    906.650674471206 Eh

SHARK setup successfully completed in   0.5 seconds

Maximum memory used throughout the entire GTOINT-calculation: 30.3 MB


           ************************************************************
           *        Program running with 16 parallel MPI-processes    *
           *              working on a common directory               *
           ************************************************************
-------------------------------------------------------------------------------
                                 ORCA SCF
-------------------------------------------------------------------------------

------------
SCF SETTINGS
------------
Hamiltonian:
 Density Functional     Method          .... DFT(GTOs)
  Functional kind                       .... Exchange-Correlation
  Functional name                       .... wB97M-V exchange-correlation functional
  Functional family                     .... Hybrid MGGA
  Functional refs                              
    [ 0] N. Mardirossian and M. Head-Gordon, J. Chem. Phys. 144, 214110 (2016)
  Fraction of HF Exchange (short range) .... 0.1500
  Fraction of HF Exchange (long range)  .... 1.0000
  Range separation parameter mu         .... 0.3000
  Functional external parameters         .... 0
   Density functional embedding theory  .... OFF
 Long-range corrected/Screened/Range-Separated Hybrid DFT is turned on
   Amount of maximum screened exact exchange              ....  0.850000
   Range separation parameter mu (erf(mu*r12)/r12)        ....  0.300000
   NL short-range parameter             ....  6.000000
   NL long-range parameter              ....  0.010000
 RI-approximation to the Coulomb term is turned on
   Number of AuxJ basis functions       .... 685
   RIJ-COSX (HFX calculated with COS-X)).... on


General Settings:
 Integral files         IntName         .... arbr_04_r2scan3c_wB97MV_ox
 Hartree-Fock type      HFTyp           .... UHF
 Total Charge           Charge          ....    1
 Multiplicity           Mult            ....    2
 Number of Electrons    NEL             ....  111
 Basis Dimension        Dim             ....  501
 Nuclear Repulsion      ENuc            ....    906.6506744712 Eh

Convergence Acceleration:
 DIIS                   CNVDIIS         .... on
   Start iteration      DIISMaxIt       ....    12
   Startup error        DIISStart       ....  0.200000
   # of expansion vecs  DIISMaxEq       ....     5
   Bias factor          DIISBfac        ....   1.050
   Max. coefficient     DIISMaxC        ....  10.000
 Trust-Rad. Augm. Hess. CNVTRAH         .... auto
   Auto Start mean grad. ratio tolernc. ....  1.125000
   Auto Start start iteration           ....    20
   Auto Start num. interpolation iter.  ....    10
   Max. Number of Micro iterations      ....    16
   Max. Number of Macro iterations      .... Maxiter - #DIIS iter
   Number of Davidson start vectors     ....     2
   Converg. threshold I  (grad. norm)   ....   5.000e-05
   Converg. threshold II (energy diff.) ....   1.000e-06
   Grad. Scal. Fac. for Micro threshold ....   0.100
   Minimum threshold for Micro iter.    ....   0.010
   NR start threshold (gradient norm)   ....   0.001
   Initial trust radius                 ....   0.400
   Minimum AH scaling param. (alpha)    ....   1.000
   Maximum AH scaling param. (alpha)    .... 1000.000
   Orbital update algorithm             .... Taylor
   White noise on init. David. guess    .... on
   Maximum white noise                  ....   0.010
   Quad. conv. algorithm                .... NR
 SOSCF                  CNVSOSCF        .... off
 Level Shifting         CNVShift        .... on
   Level shift para.    LevelShift      ....    0.2500
   Turn off err/grad.   ShiftErr        ....    0.0010
 Zerner damping         CNVZerner       .... off
 Static damping         CNVDamp         .... on
   Fraction old density DampFac         ....    0.7000
   Max. Damping (<1)    DampMax         ....    0.9800
   Min. Damping (>=0)   DampMin         ....    0.0000
   Turn off err/grad.   DampErr         ....    0.1000
 Fernandez-Rico         CNVRico         .... off

SCF Procedure:
 Maximum # iterations   MaxIter         ....   125
 SCF integral mode      SCFMode         .... Direct
   Integral package                     .... SHARK and LIBINT hybrid scheme
 Reset frequency        DirectResetFreq ....    20
 Integral Threshold     Thresh          ....  1.000e-10 Eh
 Primitive CutOff       TCut            ....  1.000e-11 Eh

Convergence Tolerance:
 Convergence Check Mode ConvCheckMode   .... Total+1el-Energy
 Convergence forced     ConvForced      .... 0
 Energy Change          TolE            ....  1.000e-06 Eh
 1-El. energy change                    ....  1.000e-03 Eh
 DIIS Error             TolErr          ....  1.000e-06


Diagonalization of the overlap matrix:
Smallest eigenvalue                        ... 6.152e-06
Time for diagonalization                   ...    0.035 sec
Threshold for overlap eigenvalues          ... 1.000e-08
Number of eigenvalues below threshold      ... 0
Time for construction of square roots      ...    0.029 sec
Total time needed                          ...    0.066 sec

Time for model grid setup =    0.098 sec

------------------------------
INITIAL GUESS: MODEL POTENTIAL
------------------------------
Loading Hartree-Fock densities                     ... done
Calculating cut-offs                               ... done
Initializing the effective Hamiltonian             ... done
Setting up the integral package (SHARK)            ... done
Starting the Coulomb interaction                   ... done (   0.1 sec)
Reading the grid                                   ... done
Mapping shells                                     ... done
Starting the XC term evaluation                    ... done (   0.1 sec)
  promolecular density results
     # of electrons  =    111.992205983
     EX              =   -152.435886862
     EC              =     -4.313529055
     EX+EC           =   -156.749415917
Transforming the Hamiltonian                       ... done (   0.0 sec)
Diagonalizing the Hamiltonian                      ... done (   0.0 sec)
Back transforming the eigenvectors                 ... done (   0.0 sec)
Now organizing SCF variables                       ... done
                      ------------------
                      INITIAL GUESS DONE (   0.3 sec)
                      ------------------
-------------------
DFT GRID GENERATION
-------------------

General Integration Accuracy     IntAcc      ... 4.388
Radial Grid Type                 RadialGrid  ... OptM3 with GC (2021)
Angular Grid (max. ang.)         AngularGrid ... 4 (Lebedev-302)
Angular grid pruning method      GridPruning ... 4 (adaptive)
Weight generation scheme         WeightScheme... Becke
Basis function cutoff            BFCut       ... 1.0000e-10
Integration weight cutoff        WCut        ... 1.0000e-14
Angular grids for H and He will be reduced by one unit
Partially contracted basis set               ... off
Rotationally invariant grid construction     ... off

Total number of grid points                  ...   102830
Total number of batches                      ...     1619
Average number of points per batch           ...       63
Average number of grid points per atom       ...     5142
Time for grid setup =    0.473 sec

--------------------
COSX GRID GENERATION
--------------------

GRIDX 1
-------
General Integration Accuracy     IntAcc      ... 3.816
Radial Grid Type                 RadialGrid  ... OptM3 with GC (2021)
Angular Grid (max. ang.)         AngularGrid ... 1 (Lebedev-50)
Angular grid pruning method      GridPruning ... 4 (adaptive)
Weight generation scheme         WeightScheme... Becke
Basis function cutoff            BFCut       ... 1.0000e-10
Integration weight cutoff        WCut        ... 1.0000e-14
Angular grids for H and He will be reduced by one unit
Partially contracted basis set               ... on
Rotationally invariant grid construction     ... off

Total number of grid points                  ...    12921
Total number of batches                      ...      213
Average number of points per batch           ...       60
Average number of grid points per atom       ...      646
UseSFitting                                  ... on

GRIDX 2
-------
General Integration Accuracy     IntAcc      ... 4.020
Radial Grid Type                 RadialGrid  ... OptM3 with GC (2021)
Angular Grid (max. ang.)         AngularGrid ... 2 (Lebedev-110)
Angular grid pruning method      GridPruning ... 4 (adaptive)
Weight generation scheme         WeightScheme... Becke
Basis function cutoff            BFCut       ... 1.0000e-10
Integration weight cutoff        WCut        ... 1.0000e-14
Angular grids for H and He will be reduced by one unit
Partially contracted basis set               ... on
Rotationally invariant grid construction     ... off

Total number of grid points                  ...    28342
Total number of batches                      ...      453
Average number of points per batch           ...       62
Average number of grid points per atom       ...     1417
UseSFitting                                  ... on

GRIDX 3
-------
General Integration Accuracy     IntAcc      ... 4.338
Radial Grid Type                 RadialGrid  ... OptM3 with GC (2021)
Angular Grid (max. ang.)         AngularGrid ... 3 (Lebedev-194)
Angular grid pruning method      GridPruning ... 4 (adaptive)
Weight generation scheme         WeightScheme... Becke
Basis function cutoff            BFCut       ... 1.0000e-10
Integration weight cutoff        WCut        ... 1.0000e-14
Angular grids for H and He will be reduced by one unit
Partially contracted basis set               ... on
Rotationally invariant grid construction     ... off

Total number of grid points                  ...    62445
Total number of batches                      ...      986
Average number of points per batch           ...       63
Average number of grid points per atom       ...     3122
UseSFitting                                  ... on

Time for X-Grid setup             =    0.470 sec

--------------
SCF ITERATIONS
--------------
ITER       Energy         Delta-E        Max-DP      RMS-DP      [F,P]     Damp
               ***  Starting incremental Fock matrix formation  ***
  0  -3051.5619813855   0.000000000000 0.04749283  0.00051031  0.1485190 0.7000
  1  -3051.6985387644  -0.136557378929 0.04863470  0.00042549  0.0715256 0.7000
                               ***Turning on DIIS***
  2  -3051.7651736940  -0.066634929552 0.08172529  0.00081570  0.0259726 0.0000
  3  -3051.8702092001  -0.105035506126 0.03451121  0.00032020  0.0366631 0.0000
  4  -3051.8925735436  -0.022364343527 0.00928744  0.00012726  0.0068327 0.0000
  5  -3051.8946766776  -0.002103133963 0.00599997  0.00007761  0.0067907 0.0000
  6  -3051.8958514043  -0.001174726699 0.00725430  0.00005603  0.0064050 0.0000
  7  -3051.8967509282  -0.000899523898 0.00853815  0.00005253  0.0056682 0.0000
  8  -3051.8975025924  -0.000751664195 0.00744043  0.00003869  0.0045422 0.0000
  9  -3051.8979691605  -0.000466568087 0.00582051  0.00002790  0.0034108 0.0000
 10  -3051.8982414749  -0.000272314395 0.00466181  0.00002349  0.0023913 0.0000
 11  -3051.8984104292  -0.000168954280 0.00381941  0.00002011  0.0016403 0.0000
 12  -3051.8985166054  -0.000106176244 0.00266872  0.00001403  0.0011927 0.0000
 13  -3051.8985749422  -0.000058336750 0.00385555  0.00001944  0.0008117 0.0000
               *** Restarting incremental Fock matrix formation ***
                                   *** Resetting DIIS ***
 14  -3051.8986150442  -0.000040102051 0.00146496  0.00001679  0.0004684 0.0000
 15  -3051.8986273869  -0.000012342676 0.00069881  0.00000453  0.0006046 0.0000
 16  -3051.8986371305  -0.000009743628 0.00084388  0.00000793  0.0002881 0.0000
 17  -3051.8986546165  -0.000017486026 0.00125075  0.00001052  0.0002657 0.0000
 18  -3051.8986734160  -0.000018799431 0.00100064  0.00000814  0.0002605 0.0000
 19  -3051.8986855871  -0.000012171135 0.00165666  0.00001218  0.0002244 0.0000
 20  -3051.8986999193  -0.000014332215 0.00128590  0.00000966  0.0002054 0.0000
 21  -3051.8987083049  -0.000008385577 0.00057396  0.00000351  0.0001727 0.0000
 22  -3051.8987111641  -0.000002859165 0.00127518  0.00000937  0.0001636 0.0000
 23  -3051.8987164782  -0.000005314137 0.00040844  0.00000296  0.0000928 0.0000
 24  -3051.8987182033  -0.000001725093 0.00092557  0.00000635  0.0000823 0.0000
 25  -3051.8987208913  -0.000002687991 0.00029414  0.00000267  0.0000770 0.0000
 26  -3051.8987221248  -0.000001233510 0.00122589  0.00000875  0.0000665 0.0000
 27  -3051.8987248651  -0.000002740284 0.00039129  0.00000348  0.0000678 0.0000
 28  -3051.8987257698  -0.000000904693 0.00080874  0.00000617  0.0000701 0.0000
 29  -3051.8987269133  -0.000001143492 0.00073252  0.00000566  0.0000487 0.0000
 30  -3051.8987275564  -0.000000643120 0.00021565  0.00000228  0.0000429 0.0000
 31  -3051.8987277374  -0.000000180985 0.00028780  0.00000271  0.0000199 0.0000
                 **** Energy Check signals convergence ****

               *****************************************************
               *                     SUCCESS                       *
               *           SCF CONVERGED AFTER  32 CYCLES          *
               *****************************************************

Old exchange energy                            =    -38.055188180 Eh
New exchange energy                            =    -38.055222824 Eh
Exchange energy change after final integration =     -0.000034644 Eh
Total energy after final integration           =  -3051.898762373 Eh
Final COS-X integration done in                =     8.934 sec

------------------
NL GRID GENERATION
------------------

General Integration Accuracy     IntAcc      ... 4.004
Radial Grid Type                 RadialGrid  ... OptM3 with GC (2021)
Angular Grid (max. ang.)         AngularGrid ... 2 (Lebedev-110)
Angular grid pruning method      GridPruning ... 4 (adaptive)
Weight generation scheme         WeightScheme... Becke
Basis function cutoff            BFCut       ... 1.0000e-10
Integration weight cutoff        WCut        ... 1.0000e-14
Angular grids for H and He will be reduced by one unit
Partially contracted basis set               ... off
Rotationally invariant grid construction     ... off

Total number of grid points                  ...    34911
Total number of batches                      ...      558
Average number of points per batch           ...       62
Average number of grid points per atom       ...     1746
Final grid set up in    0.1 sec

-------------------------------------------------------------------------------
                    post-SCF DFT-NL dispersion correction                      
-------------------------------------------------------------------------------

SCF Energy:   -3051.898762373 
NL    Energy:  0.431678977 
SC+NL Energy: -3051.467083396 
NL done in:    0.5 sec
-------------------------------------------------------------------------------

----------------
TOTAL SCF ENERGY
----------------

Total Energy       :        -3051.46708340 Eh          -83034.64074 eV

Components:
Nuclear Repulsion  :          906.65067447 Eh           24671.21911 eV
Electronic Energy  :        -3958.11775787 Eh         -107705.85985 eV
One Electron Energy:        -6011.25981985 Eh         -163574.69568 eV
Two Electron Energy:         2053.14206199 Eh           55868.83582 eV
Max COSX asymmetry :            0.00000072 Eh               0.00002 eV

Virial components:
Potential Energy   :        -6098.67224727 Eh         -165953.30875 eV
Kinetic Energy     :         3047.20516387 Eh           82918.66801 eV
Virial Ratio       :            2.00139863


DFT components:
N(Alpha)           :       55.999981717674 electrons
N(Beta)            :       54.999978533204 electrons
N(Total)           :      110.999960250878 electrons
NL Energy, E(C,NL) :        0.431678976894 Eh       
E(XC)              :     -120.167211425618 Eh       
DFET-embed. en.    :        0.000000000000 Eh       

---------------
SCF CONVERGENCE
---------------

  Last Energy change         ...    8.7043e-09  Tolerance :   1.0000e-06
  Last MAX-Density change    ...    0.0000e+00  Tolerance :   1.0000e-05
  Last RMS-Density change    ...    0.0000e+00  Tolerance :   1.0000e-06
  Last DIIS Error            ...    1.1918e-05  Tolerance :   1.0000e-06

             **** THE GBW FILE WAS UPDATED (arbr_04_r2scan3c_wB97MV_ox.gbw) ****
             **** DENSITY arbr_04_r2scan3c_wB97MV_ox.scfp WAS UPDATED ****
             **** ENERGY FILE WAS UPDATED (arbr_04_r2scan3c_wB97MV_ox.en.tmp) ****
----------------------
UHF SPIN CONTAMINATION
----------------------

Warning: in a DFT calculation there is little theoretical justification to 
         calculate <S**2> as in Hartree-Fock theory. We will do it anyways
         but you should keep in mind that the values have only limited relevance

Expectation value of <S**2>     :     0.779017
Ideal value S*(S+1) for S=0.5   :     0.750000
Deviation                       :     0.029017

             **** THE GBW FILE WAS UPDATED (arbr_04_r2scan3c_wB97MV_ox.gbw) ****
             **** DENSITY arbr_04_r2scan3c_wB97MV_ox.scfp WAS UPDATED ****
----------------
ORBITAL ENERGIES
----------------
                 SPIN UP ORBITALS
  NO   OCC          E(Eh)            E(eV) 
   0   1.0000    -483.707157    -13162.3409 
   1   1.0000     -63.010993     -1714.6163 
   2   1.0000     -56.697489     -1542.8171 
   3   1.0000     -56.696356     -1542.7863 
   4   1.0000     -56.695095     -1542.7520 
   5   1.0000     -19.451677      -529.3070 
   6   1.0000     -14.734506      -400.9463 
   7   1.0000     -10.631553      -289.2993 
   8   1.0000     -10.612930      -288.7925 
   9   1.0000     -10.573865      -287.7295 
  10   1.0000     -10.569703      -287.6162 
  11   1.0000     -10.567304      -287.5510 
  12   1.0000     -10.561568      -287.3949 
  13   1.0000     -10.559684      -287.3436 
  14   1.0000     -10.553094      -287.1643 
  15   1.0000     -10.521912      -286.3158 
  16   1.0000      -9.093792      -247.4547 
  17   1.0000      -6.879026      -187.1878 
  18   1.0000      -6.871813      -186.9915 
  19   1.0000      -6.866503      -186.8471 
  20   1.0000      -2.960654       -80.5635 
  21   1.0000      -2.959124       -80.5219 
  22   1.0000      -2.955255       -80.4166 
  23   1.0000      -2.949151       -80.2505 
  24   1.0000      -2.948686       -80.2378 
  25   1.0000      -1.336122       -36.3577 
  26   1.0000      -1.263610       -34.3846 
  27   1.0000      -1.212772       -33.0012 
  28   1.0000      -1.140720       -31.0406 
  29   1.0000      -1.094367       -29.7792 
  30   1.0000      -1.068174       -29.0665 
  31   1.0000      -1.016681       -27.6653 
  32   1.0000      -0.996539       -27.1172 
  33   1.0000      -0.928012       -25.2525 
  34   1.0000      -0.902599       -24.5610 
  35   1.0000      -0.857955       -23.3461 
  36   1.0000      -0.800592       -21.7852 
  37   1.0000      -0.792353       -21.5610 
  38   1.0000      -0.785721       -21.3805 
  39   1.0000      -0.760924       -20.7058 
  40   1.0000      -0.742621       -20.2078 
  41   1.0000      -0.732595       -19.9349 
  42   1.0000      -0.710501       -19.3337 
  43   1.0000      -0.698764       -19.0143 
  44   1.0000      -0.682487       -18.5714 
  45   1.0000      -0.682395       -18.5689 
  46   1.0000      -0.658987       -17.9319 
  47   1.0000      -0.657416       -17.8892 
  48   1.0000      -0.645756       -17.5719 
  49   1.0000      -0.634636       -17.2693 
  50   1.0000      -0.606077       -16.4922 
  51   1.0000      -0.573887       -15.6162 
  52   1.0000      -0.547072       -14.8866 
  53   1.0000      -0.535801       -14.5799 
  54   1.0000      -0.523062       -14.2332 
  55   1.0000      -0.516532       -14.0555 
  56   0.0000      -0.159586        -4.3426 
  57   0.0000      -0.135144        -3.6775 
  58   0.0000      -0.100100        -2.7239 
  59   0.0000      -0.045030        -1.2253 
  60   0.0000      -0.035685        -0.9710 
  61   0.0000      -0.023302        -0.6341 
  62   0.0000      -0.005056        -0.1376 
  63   0.0000       0.012849         0.3496 
  64   0.0000       0.017091         0.4651 
  65   0.0000       0.023299         0.6340 
  66   0.0000       0.033480         0.9110 
  67   0.0000       0.036348         0.9891 
  68   0.0000       0.045561         1.2398 
  69   0.0000       0.056252         1.5307 
  70   0.0000       0.063795         1.7360 
  71   0.0000       0.071213         1.9378 
  72   0.0000       0.081386         2.2146 
  73   0.0000       0.084698         2.3048 
  74   0.0000       0.095342         2.5944 
  75   0.0000       0.098810         2.6888 
  76   0.0000       0.114692         3.1209 
  77   0.0000       0.121399         3.3034 
  78   0.0000       0.123097         3.3496 
  79   0.0000       0.134807         3.6683 
  80   0.0000       0.137190         3.7331 
  81   0.0000       0.142415         3.8753 
  82   0.0000       0.152531         4.1506 
  83   0.0000       0.162156         4.4125 
  84   0.0000       0.163857         4.4588 
  85   0.0000       0.171539         4.6678 
  86   0.0000       0.185383         5.0445 
  87   0.0000       0.190455         5.1825 
  88   0.0000       0.194545         5.2938 
  89   0.0000       0.201430         5.4812 
  90   0.0000       0.208887         5.6841 
  91   0.0000       0.214554         5.8383 
  92   0.0000       0.224847         6.1184 
  93   0.0000       0.243804         6.6342 
  94   0.0000       0.247744         6.7415 
  95   0.0000       0.259932         7.0731 
  96   0.0000       0.266486         7.2515 
  97   0.0000       0.268946         7.3184 
  98   0.0000       0.271982         7.4010 
  99   0.0000       0.282158         7.6779 
 100   0.0000       0.286545         7.7973 
 101   0.0000       0.302932         8.2432 
 102   0.0000       0.317217         8.6319 
 103   0.0000       0.323808         8.8113 
 104   0.0000       0.337320         9.1789 
 105   0.0000       0.340442         9.2639 
 106   0.0000       0.340738         9.2720 
 107   0.0000       0.349674         9.5151 
 108   0.0000       0.354303         9.6411 
 109   0.0000       0.362179         9.8554 
 110   0.0000       0.364796         9.9266 
 111   0.0000       0.378460        10.2984 
 112   0.0000       0.387604        10.5472 
 113   0.0000       0.390826        10.6349 
 114   0.0000       0.400779        10.9058 
 115   0.0000       0.412884        11.2351 
 116   0.0000       0.419622        11.4185 
 117   0.0000       0.439000        11.9458 
 118   0.0000       0.447119        12.1667 
 119   0.0000       0.452898        12.3240 
 120   0.0000       0.456763        12.4292 
 121   0.0000       0.465265        12.6605 
 122   0.0000       0.487221        13.2580 
 123   0.0000       0.490189        13.3387 
 124   0.0000       0.505343        13.7511 
 125   0.0000       0.519705        14.1419 
 126   0.0000       0.526350        14.3227 
 127   0.0000       0.527113        14.3435 
 128   0.0000       0.533643        14.5212 
 129   0.0000       0.546162        14.8618 
 130   0.0000       0.561139        15.2694 
 131   0.0000       0.570478        15.5235 
 132   0.0000       0.578907        15.7529 
 133   0.0000       0.586115        15.9490 
 134   0.0000       0.589511        16.0414 
 135   0.0000       0.600113        16.3299 
 136   0.0000       0.612228        16.6596 
 137   0.0000       0.619490        16.8572 
 138   0.0000       0.648055        17.6345 
 139   0.0000       0.669051        18.2058 
 140   0.0000       0.678414        18.4606 
 141   0.0000       0.680203        18.5093 
 142   0.0000       0.690918        18.8008 
 143   0.0000       0.696062        18.9408 
 144   0.0000       0.713993        19.4287 
 145   0.0000       0.721285        19.6272 
 146   0.0000       0.732338        19.9279 
 147   0.0000       0.757383        20.6094 
 148   0.0000       0.773387        21.0449 
 149   0.0000       0.788606        21.4591 
 150   0.0000       0.795698        21.6520 
 151   0.0000       0.803214        21.8566 
 152   0.0000       0.806220        21.9384 
 153   0.0000       0.830947        22.6112 
 154   0.0000       0.833191        22.6723 
 155   0.0000       0.849114        23.1056 
 156   0.0000       0.866579        23.5808 
 157   0.0000       0.873277        23.7631 
 158   0.0000       0.887310        24.1449 
 159   0.0000       0.892407        24.2836 
 160   0.0000       0.908215        24.7138 
 161   0.0000       0.908634        24.7252 
 162   0.0000       0.933350        25.3978 
 163   0.0000       0.934823        25.4378 
 164   0.0000       0.946429        25.7536 
 165   0.0000       0.972079        26.4516 
 166   0.0000       0.973267        26.4840 
 167   0.0000       0.995264        27.0825 
 168   0.0000       1.000468        27.2241 
 169   0.0000       1.007867        27.4255 
 170   0.0000       1.018235        27.7076 
 171   0.0000       1.019157        27.7327 
 172   0.0000       1.034875        28.1604 
 173   0.0000       1.055141        28.7118 
 174   0.0000       1.066897        29.0317 
 175   0.0000       1.075522        29.2664 
 176   0.0000       1.081383        29.4259 
 177   0.0000       1.087453        29.5911 
 178   0.0000       1.109543        30.1922 
 179   0.0000       1.117024        30.3958 
 180   0.0000       1.135042        30.8861 
 181   0.0000       1.139944        31.0195 
 182   0.0000       1.144840        31.1527 
 183   0.0000       1.164411        31.6852 
 184   0.0000       1.167037        31.7567 
 185   0.0000       1.187022        32.3005 
 186   0.0000       1.204455        32.7749 
 187   0.0000       1.212893        33.0045 
 188   0.0000       1.221995        33.2522 
 189   0.0000       1.233758        33.5723 
 190   0.0000       1.241686        33.7880 
 191   0.0000       1.254820        34.1454 
 192   0.0000       1.258961        34.2581 
 193   0.0000       1.276736        34.7418 
 194   0.0000       1.279236        34.8098 
 195   0.0000       1.299519        35.3617 
 196   0.0000       1.301826        35.4245 
 197   0.0000       1.320169        35.9236 
 198   0.0000       1.330473        36.2040 
 199   0.0000       1.343812        36.5670 
 200   0.0000       1.355846        36.8944 
 201   0.0000       1.367533        37.2125 
 202   0.0000       1.375865        37.4392 
 203   0.0000       1.389009        37.7969 
 204   0.0000       1.393061        37.9071 
 205   0.0000       1.402136        38.1541 
 206   0.0000       1.413231        38.4560 
 207   0.0000       1.418893        38.6100 
 208   0.0000       1.438983        39.1567 
 209   0.0000       1.440983        39.2111 
 210   0.0000       1.449272        39.4367 
 211   0.0000       1.449929        39.4546 
 212   0.0000       1.467244        39.9257 
 213   0.0000       1.474069        40.1115 
 214   0.0000       1.478732        40.2384 
 215   0.0000       1.493348        40.6361 
 216   0.0000       1.510274        41.0966 
 217   0.0000       1.514889        41.2222 
 218   0.0000       1.521965        41.4148 
 219   0.0000       1.535662        41.7875 
 220   0.0000       1.543618        42.0040 
 221   0.0000       1.546875        42.0926 
 222   0.0000       1.570368        42.7319 
 223   0.0000       1.574219        42.8367 
 224   0.0000       1.589503        43.2526 
 225   0.0000       1.592979        43.3471 
 226   0.0000       1.616814        43.9958 
 227   0.0000       1.631960        44.4079 
 228   0.0000       1.655671        45.0531 
 229   0.0000       1.657621        45.1062 
 230   0.0000       1.663821        45.2749 
 231   0.0000       1.684200        45.8294 
 232   0.0000       1.692124        46.0450 
 233   0.0000       1.708396        46.4878 
 234   0.0000       1.711038        46.5597 
 235   0.0000       1.732458        47.1426 
 236   0.0000       1.750941        47.6455 
 237   0.0000       1.767535        48.0971 
 238   0.0000       1.778176        48.3866 
 239   0.0000       1.835928        49.9582 
 240   0.0000       1.847198        50.2648 
 241   0.0000       1.850479        50.3541 
 242   0.0000       1.857801        50.5533 
 243   0.0000       1.895318        51.5742 
 244   0.0000       1.915840        52.1327 
 245   0.0000       1.918729        52.2113 
 246   0.0000       1.953547        53.1587 
 247   0.0000       1.973448        53.7003 
 248   0.0000       1.992181        54.2100 
 249   0.0000       2.015787        54.8523 
 250   0.0000       2.037676        55.4480 
 251   0.0000       2.047567        55.7171 
 252   0.0000       2.070439        56.3395 
 253   0.0000       2.088860        56.8408 
 254   0.0000       2.104901        57.2773 
 255   0.0000       2.114135        57.5285 
 256   0.0000       2.126235        57.8578 
 257   0.0000       2.163729        58.8781 
 258   0.0000       2.180795        59.3424 
 259   0.0000       2.242471        61.0207 
 260   0.0000       2.259305        61.4788 
 261   0.0000       2.268445        61.7275 
 262   0.0000       2.289230        62.2931 
 263   0.0000       2.340736        63.6947 
 264   0.0000       2.344824        63.8059 
 265   0.0000       2.387094        64.9561 
 266   0.0000       2.397701        65.2448 
 267   0.0000       2.412442        65.6459 
 268   0.0000       2.420320        65.8603 
 269   0.0000       2.434320        66.2412 
 270   0.0000       2.452839        66.7451 
 271   0.0000       2.470688        67.2308 
 272   0.0000       2.494061        67.8669 
 273   0.0000       2.525969        68.7351 
 274   0.0000       2.534062        68.9553 
 275   0.0000       2.546131        69.2838 
 276   0.0000       2.547056        69.3089 
 277   0.0000       2.564693        69.7889 
 278   0.0000       2.582157        70.2641 
 279   0.0000       2.601313        70.7853 
 280   0.0000       2.615620        71.1746 
 281   0.0000       2.628359        71.5213 
 282   0.0000       2.645727        71.9939 
 283   0.0000       2.654474        72.2319 
 284   0.0000       2.661132        72.4131 
 285   0.0000       2.694971        73.3339 
 286   0.0000       2.698063        73.4180 
 287   0.0000       2.707440        73.6732 
 288   0.0000       2.709210        73.7214 
 289   0.0000       2.735720        74.4427 
 290   0.0000       2.738723        74.5244 
 291   0.0000       2.753691        74.9317 
 292   0.0000       2.770416        75.3868 
 293   0.0000       2.771164        75.4072 
 294   0.0000       2.786395        75.8217 
 295   0.0000       2.799255        76.1716 
 296   0.0000       2.810436        76.4758 
 297   0.0000       2.820591        76.7522 
 298   0.0000       2.838275        77.2334 
 299   0.0000       2.844194        77.3945 
 300   0.0000       2.846062        77.4453 
 301   0.0000       2.872229        78.1573 
 302   0.0000       2.877371        78.2972 
 303   0.0000       2.888301        78.5947 
 304   0.0000       2.900489        78.9263 
 305   0.0000       2.917887        79.3997 
 306   0.0000       2.924720        79.5857 
 307   0.0000       2.935167        79.8700 
 308   0.0000       2.951168        80.3054 
 309   0.0000       2.958154        80.4955 
 310   0.0000       2.977481        81.0214 
 311   0.0000       2.982180        81.1492 
 312   0.0000       2.994049        81.4722 
 313   0.0000       3.016229        82.0758 
 314   0.0000       3.025392        82.3251 
 315   0.0000       3.045266        82.8659 
 316   0.0000       3.055471        83.1436 
 317   0.0000       3.065984        83.4297 
 318   0.0000       3.069841        83.5346 
 319   0.0000       3.087184        84.0065 
 320   0.0000       3.093760        84.1855 
 321   0.0000       3.103940        84.4625 
 322   0.0000       3.104520        84.4783 
 323   0.0000       3.134191        85.2857 
 324   0.0000       3.149576        85.7043 
 325   0.0000       3.162873        86.0661 
 326   0.0000       3.173413        86.3530 
 327   0.0000       3.187145        86.7266 
 328   0.0000       3.198857        87.0453 
 329   0.0000       3.215702        87.5037 
 330   0.0000       3.223554        87.7174 
 331   0.0000       3.238783        88.1318 
 332   0.0000       3.241700        88.2111 
 333   0.0000       3.261045        88.7375 
 334   0.0000       3.262058        88.7651 
 335   0.0000       3.279886        89.2502 
 336   0.0000       3.281337        89.2897 
 337   0.0000       3.296118        89.6919 
 338   0.0000       3.308584        90.0312 
 339   0.0000       3.313986        90.1781 
 340   0.0000       3.324821        90.4730 
 341   0.0000       3.335324        90.7588 
 342   0.0000       3.355853        91.3174 
 343   0.0000       3.372685        91.7754 
 344   0.0000       3.376744        91.8859 
 345   0.0000       3.380986        92.0013 
 346   0.0000       3.389063        92.2211 
 347   0.0000       3.415104        92.9297 
 348   0.0000       3.429880        93.3318 
 349   0.0000       3.431540        93.3769 
 350   0.0000       3.451052        93.9079 
 351   0.0000       3.452627        93.9508 
 352   0.0000       3.483397        94.7881 
 353   0.0000       3.518397        95.7404 
 354   0.0000       3.520856        95.8074 
 355   0.0000       3.528038        96.0028 
 356   0.0000       3.558770        96.8391 
 357   0.0000       3.560156        96.8768 
 358   0.0000       3.572719        97.2186 
 359   0.0000       3.586848        97.6031 
 360   0.0000       3.601245        97.9949 
 361   0.0000       3.607838        98.1743 
 362   0.0000       3.618952        98.4767 
 363   0.0000       3.627532        98.7102 
 364   0.0000       3.635715        98.9328 
 365   0.0000       3.652354        99.3856 
 366   0.0000       3.676978       100.0557 
 367   0.0000       3.699776       100.6760 
 368   0.0000       3.704409       100.8021 
 369   0.0000       3.720667       101.2445 
 370   0.0000       3.737289       101.6968 
 371   0.0000       3.745255       101.9136 
 372   0.0000       3.768316       102.5411 
 373   0.0000       3.778992       102.8316 
 374   0.0000       3.787237       103.0560 
 375   0.0000       3.803821       103.5072 
 376   0.0000       3.821386       103.9852 
 377   0.0000       3.844956       104.6266 
 378   0.0000       3.860428       105.0476 
 379   0.0000       3.883332       105.6708 
 380   0.0000       3.910148       106.4005 
 381   0.0000       3.924259       106.7845 
 382   0.0000       3.924598       106.7937 
 383   0.0000       3.945578       107.3646 
 384   0.0000       3.946082       107.3783 
 385   0.0000       3.956556       107.6634 
 386   0.0000       3.968886       107.9989 
 387   0.0000       3.980619       108.3181 
 388   0.0000       3.997817       108.7861 
 389   0.0000       4.003345       108.9366 
 390   0.0000       4.010936       109.1431 
 391   0.0000       4.011295       109.1529 
 392   0.0000       4.022890       109.4684 
 393   0.0000       4.045222       110.0761 
 394   0.0000       4.056368       110.3794 
 395   0.0000       4.070546       110.7652 
 396   0.0000       4.077904       110.9654 
 397   0.0000       4.094025       111.4041 
 398   0.0000       4.102505       111.6348 
 399   0.0000       4.122880       112.1893 
 400   0.0000       4.144097       112.7666 
 401   0.0000       4.144867       112.7876 
 402   0.0000       4.161242       113.2332 
 403   0.0000       4.169289       113.4521 
 404   0.0000       4.192112       114.0732 
 405   0.0000       4.199674       114.2789 
 406   0.0000       4.220589       114.8481 
 407   0.0000       4.225927       114.9933 
 408   0.0000       4.242279       115.4383 
 409   0.0000       4.265420       116.0680 
 410   0.0000       4.270849       116.2157 
 411   0.0000       4.283279       116.5540 
 412   0.0000       4.303039       117.0916 
 413   0.0000       4.341850       118.1477 
 414   0.0000       4.361883       118.6929 
 415   0.0000       4.374977       119.0492 
 416   0.0000       4.395765       119.6148 
 417   0.0000       4.415787       120.1597 
 418   0.0000       4.421641       120.3190 
 419   0.0000       4.489027       122.1526 
 420   0.0000       4.494614       122.3047 
 421   0.0000       4.516588       122.9026 
 422   0.0000       4.528458       123.2256 
 423   0.0000       4.576839       124.5421 
 424   0.0000       4.584314       124.7455 
 425   0.0000       4.593615       124.9986 
 426   0.0000       4.598420       125.1294 
 427   0.0000       4.630595       126.0049 
 428   0.0000       4.660955       126.8310 
 429   0.0000       4.678152       127.2990 
 430   0.0000       4.701388       127.9313 
 431   0.0000       4.713942       128.2729 
 432   0.0000       4.752396       129.3193 
 433   0.0000       4.761260       129.5605 
 434   0.0000       4.767050       129.7180 
 435   0.0000       4.781284       130.1054 
 436   0.0000       4.810162       130.8912 
 437   0.0000       4.883571       132.8887 
 438   0.0000       4.889376       133.0467 
 439   0.0000       4.913291       133.6974 
 440   0.0000       4.954253       134.8121 
 441   0.0000       4.969355       135.2230 
 442   0.0000       4.978407       135.4693 
 443   0.0000       5.021681       136.6469 
 444   0.0000       5.034474       136.9950 
 445   0.0000       5.049647       137.4079 
 446   0.0000       5.057772       137.6290 
 447   0.0000       5.106206       138.9469 
 448   0.0000       5.107544       138.9833 
 449   0.0000       5.119768       139.3160 
 450   0.0000       5.134655       139.7211 
 451   0.0000       5.158423       140.3678 
 452   0.0000       5.172574       140.7529 
 453   0.0000       5.194410       141.3471 
 454   0.0000       5.214191       141.8853 
 455   0.0000       5.234851       142.4475 
 456   0.0000       5.266881       143.3191 
 457   0.0000       5.268010       143.3498 
 458   0.0000       5.272193       143.4637 
 459   0.0000       5.322636       144.8363 
 460   0.0000       5.355342       145.7263 
 461   0.0000       5.367975       146.0700 
 462   0.0000       5.387197       146.5931 
 463   0.0000       5.441172       148.0618 
 464   0.0000       5.443439       148.1235 
 465   0.0000       5.449780       148.2960 
 466   0.0000       5.480727       149.1382 
 467   0.0000       5.492549       149.4598 
 468   0.0000       5.494946       149.5251 
 469   0.0000       5.533384       150.5710 
 470   0.0000       5.554976       151.1586 
 471   0.0000       5.606845       152.5700 
 472   0.0000       5.683572       154.6579 
 473   0.0000       5.708745       155.3428 
 474   0.0000       5.710287       155.3848 
 475   0.0000       5.787772       157.4933 
 476   0.0000       5.813476       158.1927 
 477   0.0000       5.860878       159.4826 
 478   0.0000       5.944924       161.7696 
 479   0.0000       6.108533       166.2216 
 480   0.0000       6.170159       167.8986 
 481   0.0000       6.179885       168.1632 
 482   0.0000       6.377805       173.5489 
 483   0.0000       6.442216       175.3016 
 484   0.0000       6.606375       179.7686 
 485   0.0000       6.809425       185.2939 
 486   0.0000       6.886376       187.3878 
 487   0.0000       7.102616       193.2720 
 488   0.0000       7.173540       195.2020 
 489   0.0000       7.718464       210.0301 
 490   0.0000      22.592070       614.7615 
 491   0.0000      23.018035       626.3526 
 492   0.0000      23.238321       632.3469 
 493   0.0000      23.282595       633.5516 
 494   0.0000      23.525590       640.1639 
 495   0.0000      23.545136       640.6957 
 496   0.0000      23.794574       647.4833 
 497   0.0000      23.921002       650.9236 
 498   0.0000      24.130726       656.6304 
 499   0.0000      33.286031       905.7589 
 500   0.0000      44.310404      1205.7474 

                 SPIN DOWN ORBITALS
  NO   OCC          E(Eh)            E(eV) 
   0   1.0000    -483.706509    -13162.3233 
   1   1.0000     -63.010791     -1714.6108 
   2   1.0000     -56.697329     -1542.8127 
   3   1.0000     -56.694879     -1542.7461 
   4   1.0000     -56.694873     -1542.7459 
   5   1.0000     -19.453116      -529.3462 
   6   1.0000     -14.728632      -400.7864 
   7   1.0000     -10.627597      -289.1916 
   8   1.0000     -10.613381      -288.8048 
   9   1.0000     -10.570054      -287.6258 
  10   1.0000     -10.569251      -287.6039 
  11   1.0000     -10.567518      -287.5568 
  12   1.0000     -10.561230      -287.3857 
  13   1.0000     -10.558749      -287.3182 
  14   1.0000     -10.553301      -287.1699 
  15   1.0000     -10.522020      -286.3187 
  16   1.0000      -9.092968      -247.4322 
  17   1.0000      -6.878744      -187.1802 
  18   1.0000      -6.869388      -186.9255 
  19   1.0000      -6.866112      -186.8364 
  20   1.0000      -2.959793       -80.5400 
  21   1.0000      -2.957685       -80.4827 
  22   1.0000      -2.955085       -80.4120 
  23   1.0000      -2.947602       -80.2083 
  24   1.0000      -2.947401       -80.2029 
  25   1.0000      -1.334695       -36.3189 
  26   1.0000      -1.259340       -34.2684 
  27   1.0000      -1.205912       -32.8145 
  28   1.0000      -1.132246       -30.8100 
  29   1.0000      -1.092142       -29.7187 
  30   1.0000      -1.060778       -28.8652 
  31   1.0000      -1.013987       -27.5920 
  32   1.0000      -0.991223       -26.9726 
  33   1.0000      -0.923997       -25.1432 
  34   1.0000      -0.897805       -24.4305 
  35   1.0000      -0.854764       -23.2593 
  36   1.0000      -0.797826       -21.7100 
  37   1.0000      -0.789112       -21.4728 
  38   1.0000      -0.774335       -21.0707 
  39   1.0000      -0.757511       -20.6129 
  40   1.0000      -0.740568       -20.1519 
  41   1.0000      -0.730051       -19.8657 
  42   1.0000      -0.696933       -18.9645 
  43   1.0000      -0.688815       -18.7436 
  44   1.0000      -0.681059       -18.5326 
  45   1.0000      -0.677399       -18.4330 
  46   1.0000      -0.655840       -17.8463 
  47   1.0000      -0.647439       -17.6177 
  48   1.0000      -0.643727       -17.5167 
  49   1.0000      -0.633276       -17.2323 
  50   1.0000      -0.572727       -15.5847 
  51   1.0000      -0.570641       -15.5279 
  52   1.0000      -0.544447       -14.8151 
  53   1.0000      -0.523020       -14.2321 
  54   1.0000      -0.486717       -13.2442 
  55   0.0000      -0.323971        -8.8157 
  56   0.0000      -0.135943        -3.6992 
  57   0.0000      -0.121508        -3.3064 
  58   0.0000      -0.094460        -2.5704 
  59   0.0000      -0.044505        -1.2111 
  60   0.0000      -0.030849        -0.8394 
  61   0.0000      -0.022080        -0.6008 
  62   0.0000      -0.004302        -0.1171 
  63   0.0000       0.013517         0.3678 
  64   0.0000       0.017681         0.4811 
  65   0.0000       0.023926         0.6511 
  66   0.0000       0.037062         1.0085 
  67   0.0000       0.037997         1.0340 
  68   0.0000       0.046576         1.2674 
  69   0.0000       0.062808         1.7091 
  70   0.0000       0.064428         1.7532 
  71   0.0000       0.074650         2.0313 
  72   0.0000       0.083307         2.2669 
  73   0.0000       0.086362         2.3500 
  74   0.0000       0.095801         2.6069 
  75   0.0000       0.100214         2.7270 
  76   0.0000       0.116123         3.1599 
  77   0.0000       0.123106         3.3499 
  78   0.0000       0.126067         3.4305 
  79   0.0000       0.135530         3.6880 
  80   0.0000       0.139500         3.7960 
  81   0.0000       0.144646         3.9360 
  82   0.0000       0.153978         4.1899 
  83   0.0000       0.163163         4.4399 
  84   0.0000       0.166950         4.5429 
  85   0.0000       0.173571         4.7231 
  86   0.0000       0.187053         5.0900 
  87   0.0000       0.195578         5.3220 
  88   0.0000       0.196459         5.3459 
  89   0.0000       0.205159         5.5827 
  90   0.0000       0.212757         5.7894 
  91   0.0000       0.216358         5.8874 
  92   0.0000       0.226674         6.1681 
  93   0.0000       0.245949         6.6926 
  94   0.0000       0.253796         6.9061 
  95   0.0000       0.263712         7.1760 
  96   0.0000       0.269726         7.3396 
  97   0.0000       0.272951         7.4274 
  98   0.0000       0.273776         7.4498 
  99   0.0000       0.283951         7.7267 
 100   0.0000       0.289462         7.8767 
 101   0.0000       0.304154         8.2764 
 102   0.0000       0.319064         8.6822 
 103   0.0000       0.324979         8.8431 
 104   0.0000       0.338671         9.2157 
 105   0.0000       0.344067         9.3625 
 106   0.0000       0.344893         9.3850 
 107   0.0000       0.351539         9.5659 
 108   0.0000       0.356917         9.7122 
 109   0.0000       0.363690         9.8965 
 110   0.0000       0.365431         9.9439 
 111   0.0000       0.380446        10.3525 
 112   0.0000       0.389032        10.5861 
 113   0.0000       0.393404        10.7051 
 114   0.0000       0.402997        10.9661 
 115   0.0000       0.415175        11.2975 
 116   0.0000       0.421916        11.4809 
 117   0.0000       0.439577        11.9615 
 118   0.0000       0.451422        12.2838 
 119   0.0000       0.454427        12.3656 
 120   0.0000       0.458480        12.4759 
 121   0.0000       0.466520        12.6947 
 122   0.0000       0.489361        13.3162 
 123   0.0000       0.494452        13.4547 
 124   0.0000       0.506449        13.7812 
 125   0.0000       0.521414        14.1884 
 126   0.0000       0.526661        14.3312 
 127   0.0000       0.527990        14.3673 
 128   0.0000       0.535819        14.5804 
 129   0.0000       0.547532        14.8991 
 130   0.0000       0.562196        15.2981 
 131   0.0000       0.571477        15.5507 
 132   0.0000       0.581851        15.8330 
 133   0.0000       0.588174        16.0050 
 134   0.0000       0.592123        16.1125 
 135   0.0000       0.603199        16.4139 
 136   0.0000       0.617303        16.7977 
 137   0.0000       0.622386        16.9360 
 138   0.0000       0.650857        17.7107 
 139   0.0000       0.668831        18.1998 
 140   0.0000       0.682287        18.5660 
 141   0.0000       0.683247        18.5921 
 142   0.0000       0.691003        18.8031 
 143   0.0000       0.696883        18.9631 
 144   0.0000       0.715351        19.4657 
 145   0.0000       0.724549        19.7160 
 146   0.0000       0.733738        19.9660 
 147   0.0000       0.759085        20.6558 
 148   0.0000       0.774067        21.0634 
 149   0.0000       0.789357        21.4795 
 150   0.0000       0.797866        21.7111 
 151   0.0000       0.804812        21.9001 
 152   0.0000       0.808505        22.0005 
 153   0.0000       0.834295        22.7023 
 154   0.0000       0.835091        22.7240 
 155   0.0000       0.851058        23.1585 
 156   0.0000       0.867440        23.6042 
 157   0.0000       0.876015        23.8376 
 158   0.0000       0.888872        24.1874 
 159   0.0000       0.894081        24.3292 
 160   0.0000       0.910481        24.7755 
 161   0.0000       0.912447        24.8289 
 162   0.0000       0.934569        25.4309 
 163   0.0000       0.938259        25.5313 
 164   0.0000       0.947984        25.7960 
 165   0.0000       0.973464        26.4893 
 166   0.0000       0.974764        26.5247 
 167   0.0000       0.998266        27.1642 
 168   0.0000       1.003288        27.3008 
 169   0.0000       1.009416        27.4676 
 170   0.0000       1.019248        27.7351 
 171   0.0000       1.021613        27.7995 
 172   0.0000       1.037341        28.2275 
 173   0.0000       1.056721        28.7548 
 174   0.0000       1.068641        29.0792 
 175   0.0000       1.080576        29.4040 
 176   0.0000       1.082889        29.4669 
 177   0.0000       1.091508        29.7014 
 178   0.0000       1.111428        30.2435 
 179   0.0000       1.118552        30.4374 
 180   0.0000       1.137369        30.9494 
 181   0.0000       1.144582        31.1457 
 182   0.0000       1.147094        31.2140 
 183   0.0000       1.168138        31.7866 
 184   0.0000       1.169518        31.8242 
 185   0.0000       1.191775        32.4298 
 186   0.0000       1.206059        32.8185 
 187   0.0000       1.217426        33.1278 
 188   0.0000       1.224295        33.3147 
 189   0.0000       1.237534        33.6750 
 190   0.0000       1.243146        33.8277 
 191   0.0000       1.256359        34.1873 
 192   0.0000       1.265344        34.4318 
 193   0.0000       1.279753        34.8239 
 194   0.0000       1.284529        34.9538 
 195   0.0000       1.303785        35.4778 
 196   0.0000       1.304072        35.4856 
 197   0.0000       1.328107        36.1396 
 198   0.0000       1.335469        36.3400 
 199   0.0000       1.345743        36.6195 
 200   0.0000       1.360301        37.0157 
 201   0.0000       1.368557        37.2403 
 202   0.0000       1.381127        37.5824 
 203   0.0000       1.390846        37.8468 
 204   0.0000       1.394317        37.9413 
 205   0.0000       1.403362        38.1874 
 206   0.0000       1.414125        38.4803 
 207   0.0000       1.421916        38.6923 
 208   0.0000       1.440911        39.2092 
 209   0.0000       1.451542        39.4985 
 210   0.0000       1.452275        39.5184 
 211   0.0000       1.459636        39.7187 
 212   0.0000       1.469901        39.9980 
 213   0.0000       1.479638        40.2630 
 214   0.0000       1.481562        40.3153 
 215   0.0000       1.493723        40.6463 
 216   0.0000       1.511372        41.1265 
 217   0.0000       1.525206        41.5030 
 218   0.0000       1.533798        41.7368 
 219   0.0000       1.539590        41.8944 
 220   0.0000       1.547268        42.1033 
 221   0.0000       1.550057        42.1792 
 222   0.0000       1.572981        42.8030 
 223   0.0000       1.580812        43.0161 
 224   0.0000       1.592672        43.3388 
 225   0.0000       1.595048        43.4035 
 226   0.0000       1.618471        44.0408 
 227   0.0000       1.636171        44.5225 
 228   0.0000       1.660389        45.1815 
 229   0.0000       1.661242        45.2047 
 230   0.0000       1.668320        45.3973 
 231   0.0000       1.689903        45.9846 
 232   0.0000       1.695555        46.1384 
 233   0.0000       1.710170        46.5361 
 234   0.0000       1.712814        46.6080 
 235   0.0000       1.741912        47.3998 
 236   0.0000       1.753775        47.7226 
 237   0.0000       1.778492        48.3952 
 238   0.0000       1.781041        48.4646 
 239   0.0000       1.839228        50.0479 
 240   0.0000       1.849774        50.3349 
 241   0.0000       1.855337        50.4863 
 242   0.0000       1.859940        50.6116 
 243   0.0000       1.900366        51.7116 
 244   0.0000       1.920130        52.2494 
 245   0.0000       1.921039        52.2741 
 246   0.0000       1.957765        53.2735 
 247   0.0000       1.980587        53.8945 
 248   0.0000       2.000239        54.4293 
 249   0.0000       2.019842        54.9627 
 250   0.0000       2.039372        55.4941 
 251   0.0000       2.052887        55.8619 
 252   0.0000       2.074836        56.4592 
 253   0.0000       2.090342        56.8811 
 254   0.0000       2.110726        57.4358 
 255   0.0000       2.119077        57.6630 
 256   0.0000       2.130951        57.9861 
 257   0.0000       2.171465        59.0886 
 258   0.0000       2.184058        59.4312 
 259   0.0000       2.246118        61.1200 
 260   0.0000       2.262528        61.5665 
 261   0.0000       2.268793        61.7370 
 262   0.0000       2.297685        62.5232 
 263   0.0000       2.343849        63.7794 
 264   0.0000       2.357207        64.1429 
 265   0.0000       2.390746        65.0555 
 266   0.0000       2.402734        65.3817 
 267   0.0000       2.415346        65.7249 
 268   0.0000       2.427023        66.0426 
 269   0.0000       2.438325        66.3502 
 270   0.0000       2.457107        66.8613 
 271   0.0000       2.474719        67.3405 
 272   0.0000       2.501098        68.0583 
 273   0.0000       2.536957        69.0341 
 274   0.0000       2.537768        69.0562 
 275   0.0000       2.550487        69.4023 
 276   0.0000       2.554468        69.5106 
 277   0.0000       2.568120        69.8821 
 278   0.0000       2.590292        70.4854 
 279   0.0000       2.606143        70.9168 
 280   0.0000       2.620523        71.3080 
 281   0.0000       2.632025        71.6210 
 282   0.0000       2.653441        72.2038 
 283   0.0000       2.664021        72.4917 
 284   0.0000       2.664659        72.5090 
 285   0.0000       2.698616        73.4331 
 286   0.0000       2.703442        73.5644 
 287   0.0000       2.708321        73.6972 
 288   0.0000       2.712722        73.8169 
 289   0.0000       2.739999        74.5592 
 290   0.0000       2.743179        74.6457 
 291   0.0000       2.758208        75.0547 
 292   0.0000       2.773499        75.4708 
 293   0.0000       2.774626        75.5014 
 294   0.0000       2.791334        75.9561 
 295   0.0000       2.803351        76.2831 
 296   0.0000       2.813574        76.5612 
 297   0.0000       2.824080        76.8471 
 298   0.0000       2.843590        77.3780 
 299   0.0000       2.848207        77.5036 
 300   0.0000       2.851477        77.5926 
 301   0.0000       2.876711        78.2793 
 302   0.0000       2.882251        78.4300 
 303   0.0000       2.895131        78.7805 
 304   0.0000       2.906794        79.0979 
 305   0.0000       2.925117        79.5965 
 306   0.0000       2.927294        79.6557 
 307   0.0000       2.939542        79.9890 
 308   0.0000       2.955109        80.4126 
 309   0.0000       2.964611        80.6712 
 310   0.0000       2.980712        81.1093 
 311   0.0000       2.986871        81.2769 
 312   0.0000       2.996471        81.5381 
 313   0.0000       3.021560        82.2208 
 314   0.0000       3.031949        82.5035 
 315   0.0000       3.048923        82.9654 
 316   0.0000       3.062667        83.3394 
 317   0.0000       3.070224        83.5450 
 318   0.0000       3.074725        83.6675 
 319   0.0000       3.089396        84.0667 
 320   0.0000       3.097345        84.2830 
 321   0.0000       3.107241        84.5523 
 322   0.0000       3.110131        84.6310 
 323   0.0000       3.139698        85.4355 
 324   0.0000       3.153389        85.8081 
 325   0.0000       3.166566        86.1666 
 326   0.0000       3.175990        86.4231 
 327   0.0000       3.189909        86.8018 
 328   0.0000       3.205427        87.2241 
 329   0.0000       3.220260        87.6277 
 330   0.0000       3.228676        87.8567 
 331   0.0000       3.242636        88.2366 
 332   0.0000       3.245695        88.3199 
 333   0.0000       3.264169        88.8226 
 334   0.0000       3.266160        88.8767 
 335   0.0000       3.283639        89.3524 
 336   0.0000       3.287598        89.4601 
 337   0.0000       3.300831        89.8202 
 338   0.0000       3.312910        90.1489 
 339   0.0000       3.318089        90.2898 
 340   0.0000       3.328861        90.5829 
 341   0.0000       3.338118        90.8348 
 342   0.0000       3.365872        91.5900 
 343   0.0000       3.377269        91.9001 
 344   0.0000       3.379686        91.9659 
[...]
      dxz     :     0.056125
      dyz     :     0.077154
      dx2y2   :     0.190852
      dxy     :     0.143807
      f0      :     0.003951  f :     0.059184
      f+1     :     0.004149
      f-1     :     0.004285
      f+2     :     0.005072
      f-2     :     0.006971
      f+3     :     0.013408
      f-3     :     0.021348
 10 C s       :     2.710057  s :     2.710057
      pz      :     0.771167  p :     2.642835
      px      :     0.951502
      py      :     0.920166
      dz2     :     0.056939  d :     0.888511
      dxz     :     0.070276
      dyz     :     0.188755
      dx2y2   :     0.353496
      dxy     :     0.219046
      f0      :     0.008011  f :     0.125658
      f+1     :     0.006474
      f-1     :     0.010132
      f+2     :     0.007856
      f-2     :     0.020439
      f+3     :     0.026425
      f-3     :     0.046320
 11 O s       :     3.399045  s :     3.399045
      pz      :     1.325397  p :     4.398276
      px      :     1.555868
      py      :     1.517011
      dz2     :     0.008410  d :     0.068206
      dxz     :     0.005743
      dyz     :     0.010495
      dx2y2   :     0.018001
      dxy     :     0.025558
      f0      :     0.000505  f :     0.006087
      f+1     :     0.000419
      f-1     :     0.000697
      f+2     :     0.000109
      f-2     :     0.000813
      f+3     :     0.001867
      f-3     :     0.001677
 12 H s       :     0.797105  s :     0.797105
      pz      :     0.061478  p :     0.143204
      px      :     0.031741
      py      :     0.049986
      dz2     :     0.009294  d :     0.029510
      dxz     :     0.005670
      dyz     :     0.008135
      dx2y2   :     0.003399
      dxy     :     0.003012
 13 H s       :     0.797103  s :     0.797103
      pz      :     0.061472  p :     0.143202
      px      :     0.031742
      py      :     0.049988
      dz2     :     0.009293  d :     0.029509
      dxz     :     0.005670
      dyz     :     0.008134
      dx2y2   :     0.003400
      dxy     :     0.003013
 14 H s       :     0.785360  s :     0.785360
      pz      :     0.039782  p :     0.148151
      px      :     0.041247
      py      :     0.067123
      dz2     :     0.002796  d :     0.030220
      dxz     :     0.002976
      dyz     :     0.007408
      dx2y2   :     0.008305
      dxy     :     0.008735
 15 H s       :     0.785258  s :     0.785258
      pz      :     0.062937  p :     0.142033
      px      :     0.031101
      py      :     0.047995
      dz2     :     0.009305  d :     0.029561
      dxz     :     0.004903
      dyz     :     0.008773
      dx2y2   :     0.002971
      dxy     :     0.003609
 16 H s       :     0.785260  s :     0.785260
      pz      :     0.062936  p :     0.142034
      px      :     0.031102
      py      :     0.047996
      dz2     :     0.009305  d :     0.029561
      dxz     :     0.004902
      dyz     :     0.008773
      dx2y2   :     0.002972
      dxy     :     0.003609
 17 H s       :     0.782531  s :     0.782531
      pz      :     0.036783  p :     0.144392
      px      :     0.035867
      py      :     0.071742
      dz2     :     0.002864  d :     0.029521
      dxz     :     0.001032
      dyz     :     0.007392
      dx2y2   :     0.009290
      dxy     :     0.008943
 18 H s       :     0.781506  s :     0.781506
      pz      :     0.035318  p :     0.144280
      px      :     0.052701
      py      :     0.056261
      dz2     :     0.002880  d :     0.029546
      dxz     :     0.003855
      dyz     :     0.004245
      dx2y2   :     0.009387
      dxy     :     0.009179
 19 H s       :     0.773684  s :     0.773684
      pz      :     0.033089  p :     0.143036
      px      :     0.037226
      py      :     0.072721
      dz2     :     0.002884  d :     0.029062
      dxz     :     0.000964
      dyz     :     0.006820
      dx2y2   :     0.009280
      dxy     :     0.009115

SPIN
  0 C s       :    -0.000707  s :    -0.000707
      pz      :     0.004502  p :    -0.001210
      px      :    -0.004499
      py      :    -0.001213
      dz2     :     0.000344  d :     0.021988
      dxz     :     0.014054
      dyz     :     0.006731
      dx2y2   :     0.000542
      dxy     :     0.000317
      f0      :     0.000956  f :     0.003000
      f+1     :     0.000036
      f-1     :     0.000047
      f+2     :     0.001539
      f-2     :     0.000225
      f+3     :     0.000087
      f-3     :     0.000110
  1 N s       :     0.004844  s :     0.004844
      pz      :     0.190169  p :     0.200716
      px      :     0.005323
      py      :     0.005225
      dz2     :    -0.000197  d :    -0.003177
      dxz     :    -0.000970
      dyz     :    -0.000953
      dx2y2   :    -0.000392
      dxy     :    -0.000665
      f0      :     0.000203  f :    -0.000014
      f+1     :    -0.000075
      f-1     :    -0.000081
      f+2     :     0.000022
      f-2     :    -0.000030
      f+3     :    -0.000025
      f-3     :    -0.000026
  2 C s       :    -0.000655  s :    -0.000655
      pz      :    -0.000136  p :    -0.005750
      px      :    -0.003529
      py      :    -0.002085
      dz2     :     0.000191  d :     0.012530
      dxz     :     0.010558
      dyz     :     0.001111
      dx2y2   :    -0.000028
      dxy     :     0.000698
      f0      :     0.000383  f :     0.003084
      f+1     :     0.000022
      f-1     :     0.000015
      f+2     :     0.000106
      f-2     :     0.002377
      f+3     :     0.000056
      f-3     :     0.000125
  3 C s       :    -0.000043  s :    -0.000043
      pz      :     0.027097  p :     0.025341
      px      :     0.000191
      py      :    -0.001948
      dz2     :    -0.000066  d :     0.014852
      dxz     :     0.003567
      dyz     :     0.011111
      dx2y2   :     0.000075
      dxy     :     0.000165
      f0      :     0.000151  f :     0.002851
      f+1     :    -0.000022
      f-1     :     0.000003
      f+2     :     0.002391
      f-2     :     0.000254
      f+3     :     0.000024
      f-3     :     0.000050
  4 C s       :    -0.000205  s :    -0.000205
      pz      :     0.025762  p :     0.023595
      px      :    -0.001024
      py      :    -0.001144
      dz2     :    -0.000074  d :     0.018434
      dxz     :     0.012555
      dyz     :     0.005520
      dx2y2   :    -0.000030
      dxy     :     0.000462
      f0      :     0.000189  f :     0.002819
      f+1     :    -0.000015
      f-1     :    -0.000001
      f+2     :     0.000446
      f-2     :     0.002091
      f+3     :     0.000061
      f-3     :     0.000049
  5 C s       :     0.003674  s :     0.003674
      pz      :     0.182246  p :     0.189369
      px      :     0.004645
      py      :     0.002478
      dz2     :    -0.000408  d :     0.004824
      dxz     :     0.002053
      dyz     :     0.003295
      dx2y2   :    -0.000010
      dxy     :    -0.000106
      f0      :    -0.000284  f :     0.000475
      f+1     :    -0.000117
      f-1     :    -0.000112
      f+2     :     0.000810
      f-2     :     0.000177
      f+3     :    -0.000029
      f-3     :     0.000030
  6 Brs       :     0.001100  s :     0.001100
      pz      :     0.196296  p :     0.189616
      px      :    -0.006903
      py      :     0.000223
      dz2     :     0.000749  d :     0.008701
      dxz     :     0.007233
      dyz     :     0.000302
      dx2y2   :     0.000398
      dxy     :     0.000019
      f0      :     0.000442  f :     0.001086
      f+1     :    -0.000091
      f-1     :     0.000009
      f+2     :     0.000561
      f-2     :     0.000098
      f+3     :     0.000046
      f-3     :     0.000021
  7 C s       :     0.000385  s :     0.000385
      pz      :     0.055137  p :     0.054276
      px      :     0.000812
      py      :    -0.001674
      dz2     :    -0.000175  d :     0.015358
      dxz     :     0.003131
      dyz     :     0.012174
      dx2y2   :     0.000242
      dxy     :    -0.000014
      f0      :     0.000105  f :     0.002315
      f+1     :    -0.000042
      f-1     :    -0.000014
      f+2     :     0.001864
      f-2     :     0.000322
      f+3     :     0.000023
      f-3     :     0.000056
  8 C s       :    -0.000657  s :    -0.000657
      pz      :     0.002331  p :    -0.001044
      px      :    -0.001771
      py      :    -0.001603
      dz2     :     0.000023  d :     0.023405
      dxz     :     0.017376
      dyz     :     0.005192
      dx2y2   :     0.000233
      dxy     :     0.000581
      f0      :     0.000281  f :     0.003185
      f+1     :     0.000002
      f-1     :     0.000014
      f+2     :     0.000571
      f-2     :     0.002161
      f+3     :     0.000078
      f-3     :     0.000078
  9 C s       :     0.003509  s :     0.003509
      pz      :     0.188307  p :     0.195647
      px      :     0.004188
      py      :     0.003153
      dz2     :    -0.000474  d :    -0.004413
      dxz     :    -0.002699
      dyz     :    -0.000529
      dx2y2   :    -0.000390
      dxy     :    -0.000321
      f0      :    -0.000425  f :    -0.000469
      f+1     :    -0.000120
      f-1     :    -0.000112
      f+2     :     0.000399
      f-2     :    -0.000110
      f+3     :    -0.000112
      f-3     :     0.000011
 10 C s       :    -0.001396  s :    -0.001396
      pz      :    -0.011968  p :    -0.017104
      px      :    -0.002977
      py      :    -0.002159
      dz2     :     0.000149  d :     0.020695
      dxz     :     0.012638
      dyz     :     0.006207
      dx2y2   :     0.001403
      dxy     :     0.000297
      f0      :     0.000272  f :     0.004419
      f+1     :     0.000019
      f-1     :     0.000042
      f+2     :     0.003936
      f-2     :    -0.000009
      f+3     :     0.000125
      f-3     :     0.000035
 11 O s       :    -0.000552  s :    -0.000552
      pz      :    -0.040450  p :    -0.043444
      px      :    -0.001815
      py      :    -0.001179
      dz2     :    -0.000018  d :    -0.000563
      dxz     :    -0.000115
      dyz     :    -0.000237
      dx2y2   :    -0.000199
      dxy     :     0.000006
      f0      :    -0.000015  f :    -0.000044
      f+1     :     0.000002
      f-1     :     0.000005
      f+2     :     0.000008
      f-2     :    -0.000025
      f+3     :     0.000001
      f-3     :    -0.000020
 12 H s       :     0.011512  s :     0.011512
      pz      :    -0.000056  p :    -0.000440
      px      :    -0.000226
      py      :    -0.000158
      dz2     :    -0.000032  d :    -0.000045
      dxz     :    -0.000036
      dyz     :     0.000035
      dx2y2   :     0.000019
      dxy     :    -0.000031
 13 H s       :     0.011513  s :     0.011513
      pz      :    -0.000056  p :    -0.000440
      px      :    -0.000226
      py      :    -0.000158
      dz2     :    -0.000032  d :    -0.000045
      dxz     :    -0.000036
      dyz     :     0.000035
      dx2y2   :     0.000019
      dxy     :    -0.000031
 14 H s       :     0.000020  s :     0.000020
      pz      :     0.000182  p :    -0.000130
      px      :    -0.000266
      py      :    -0.000047
      dz2     :    -0.000003  d :     0.000016
      dxz     :    -0.000019
      dyz     :     0.000114
      dx2y2   :    -0.000066
      dxy     :    -0.000011
 15 H s       :     0.001020  s :     0.001020
      pz      :    -0.000051  p :    -0.000376
      px      :    -0.000104
      py      :    -0.000221
      dz2     :    -0.000016  d :    -0.000068
      dxz     :    -0.000033
      dyz     :    -0.000012
      dx2y2   :    -0.000015
      dxy     :     0.000007
 16 H s       :     0.001020  s :     0.001020
      pz      :    -0.000051  p :    -0.000376
      px      :    -0.000104
      py      :    -0.000221
      dz2     :    -0.000016  d :    -0.000068
      dxz     :    -0.000033
      dyz     :    -0.000012
      dx2y2   :    -0.000015
      dxy     :     0.000007
 17 H s       :    -0.000934  s :    -0.000934
      pz      :     0.001213  p :     0.001151
      px      :    -0.000119
      py      :     0.000057
      dz2     :     0.000001  d :     0.000338
      dxz     :    -0.000024
      dyz     :     0.000380
      dx2y2   :     0.000001
      dxy     :    -0.000020
 18 H s       :    -0.001580  s :    -0.001580
      pz      :     0.002947  p :     0.003117
      px      :     0.000091
      py      :     0.000078
      dz2     :     0.000003  d :     0.000779
      dxz     :     0.000248
      dyz     :     0.000500
      dx2y2   :    -0.000014
      dxy     :     0.000041
 19 H s       :    -0.000264  s :    -0.000264
      pz      :    -0.000074  p :    -0.000323
      px      :    -0.000178
      py      :    -0.000071
      dz2     :    -0.000001  d :    -0.000043
      dxz     :    -0.000051
      dyz     :     0.000066
      dx2y2   :    -0.000017
      dxy     :    -0.000040


                      *****************************
                      * MAYER POPULATION ANALYSIS *
                      *****************************

  NA   - Mulliken gross atomic population
  ZA   - Total nuclear charge
  QA   - Mulliken gross atomic charge
  VA   - Mayer's total valence
  BVA  - Mayer's bonded valence
  FA   - Mayer's free valence

  ATOM       NA         ZA         QA         VA         BVA        FA
  0 C      6.2310     6.0000    -0.2310     3.8040     3.8037     0.0003
  1 N      7.0371     7.0000    -0.0371     3.2751     3.2212     0.0539
  2 C      6.0961     6.0000    -0.0961     3.8607     3.8605     0.0002
  3 C      6.0275     6.0000    -0.0275     3.8606     3.8584     0.0023
  4 C      6.0547     6.0000    -0.0547     3.9144     3.9121     0.0023
  5 C      5.9925     6.0000     0.0075     4.1111     4.0569     0.0543
  6 Br    34.7794    35.0000     0.2206     1.5760     1.5293     0.0467
  7 C      6.0197     6.0000    -0.0197     3.8323     3.8266     0.0058
  8 C      6.1050     6.0000    -0.1050     4.0088     4.0074     0.0013
  9 C      5.8973     6.0000     0.1027     3.5609     3.5022     0.0586
 10 C      5.8072     6.0000     0.1928     4.3406     4.3394     0.0012
 11 O      8.3064     8.0000    -0.3064     2.2333     2.2311     0.0022
 12 H      0.8451     1.0000     0.1549     0.9759     0.9756     0.0004
 13 H      0.8450     1.0000     0.1550     0.9759     0.9756     0.0004
 14 H      0.8323     1.0000     0.1677     0.9987     0.9987     0.0000
 15 H      0.8372     1.0000     0.1628     0.9747     0.9747     0.0000
 16 H      0.8372     1.0000     0.1628     0.9747     0.9747     0.0000
 17 H      0.8201     1.0000     0.1799     0.9891     0.9891     0.0000
 18 H      0.8221     1.0000     0.1779     0.9856     0.9856     0.0000
 19 H      0.8071     1.0000     0.1929     0.9912     0.9912     0.0000

  Mayer bond orders larger than 0.100000
B(  0-C ,  1-N ) :   0.9121 B(  0-C , 12-H ) :   0.9538 B(  0-C , 13-H ) :   0.9538 
B(  0-C , 14-H ) :   0.9568 B(  1-N ,  2-C ) :   0.9418 B(  1-N , 10-C ) :   1.1936 
B(  2-C ,  3-C ) :   0.9414 B(  2-C , 15-H ) :   0.9633 B(  2-C , 16-H ) :   0.9634 
B(  3-C ,  4-C ) :   1.5447 B(  3-C ,  9-C ) :   1.1932 B(  4-C ,  5-C ) :   1.2978 
B(  4-C , 17-H ) :   0.9031 B(  5-C ,  6-Br) :   1.3825 B(  5-C ,  7-C ) :   1.2189 
B(  7-C ,  8-C ) :   1.5485 B(  7-C , 18-H ) :   0.9437 B(  8-C ,  9-C ) :   1.2937 
B(  8-C , 19-H ) :   0.9218 B(  9-C , 10-C ) :   0.9170 B(  9-C , 11-O ) :  -0.1053 
B( 10-C , 11-O ) :   2.1592 


------------------
HIRSHFELD ANALYSIS
------------------

Total integrated alpha density =     55.999981724
Total integrated beta density  =     54.999978541

  ATOM     CHARGE      SPIN    
   0 C    0.016630    0.016856
   1 N   -0.000410    0.202572
   2 C    0.038724    0.007075
   3 C    0.046926    0.042149
   4 C    0.008205    0.042485
   5 C    0.105017    0.199729
   6 Br   0.176934    0.202793
   7 C    0.024240    0.070705
   8 C    0.037546    0.022501
   9 C    0.071549    0.197365
  10 C    0.186380    0.006609
  11 O   -0.271773   -0.044685
  12 H    0.062980    0.013718
  13 H    0.062979    0.013720
  14 H    0.065333    0.000804
  15 H    0.064694    0.001673
  16 H    0.064693    0.001674
  17 H    0.074929    0.000320
  18 H    0.078370    0.001894
  19 H    0.086094    0.000047

  TOTAL   1.000040    1.000003

-------
TIMINGS
-------

Total SCF time: 0 days 0 hours 2 min 25 sec 

Total time                  ....     145.479 sec
Sum of individual times     ....     143.745 sec  ( 98.8%)

Fock matrix formation       ....     135.107 sec  ( 92.9%)
  Split-RI-J                ....       6.307 sec  (  4.7% of F)
  Chain of spheres X        ....     102.519 sec  ( 75.9% of F)
  XC integration            ....      25.162 sec  ( 18.6% of F)
    Basis function eval.    ....       1.714 sec  (  6.8% of XC)
    Density eval.           ....       8.851 sec  ( 35.2% of XC)
    XC-Functional eval.     ....       0.746 sec  (  3.0% of XC)
    XC-Potential eval.      ....      11.227 sec  ( 44.6% of XC)
Diagonalization             ....       3.862 sec  (  2.7%)
Density matrix formation    ....       0.149 sec  (  0.1%)
Population analysis         ....       1.356 sec  (  0.9%)
Initial guess               ....       0.226 sec  (  0.2%)
Orbital Transformation      ....       0.000 sec  (  0.0%)
Orbital Orthonormalization  ....       0.000 sec  (  0.0%)
DIIS solution               ....       1.905 sec  (  1.3%)
Grid generation             ....       1.139 sec  (  0.8%)

Maximum memory used throughout the entire SCF-calculation: 111.9 MB

-------------------------   --------------------
FINAL SINGLE POINT ENERGY     -3051.467083395999
-------------------------   --------------------


                            ***************************************
                            *     ORCA property calculations      *
                            ***************************************

                                    ---------------------
                                    Active property flags
                                    ---------------------
   (+) Dipole Moment


------------------------------------------------------------------------------
                       ORCA ELECTRIC PROPERTIES CALCULATION
------------------------------------------------------------------------------

Dipole Moment Calculation                       ... on
Quadrupole Moment Calculation                   ... off
Polarizability Calculation                      ... off
GBWName                                         ... arbr_04_r2scan3c_wB97MV_ox.gbw
Electron density                                ... arbr_04_r2scan3c_wB97MV_ox.scfp
The origin for moment calculation is the CENTER OF MASS  = (-0.409923,  0.019077  0.000004)

-------------
DIPOLE MOMENT
-------------
                                X             Y             Z
Electronic contribution:    -45.33851       0.81648       0.00020
Nuclear contribution   :     45.91144      -2.13639      -0.00019
                        -----------------------------------------
Total Dipole Moment    :      0.57293      -1.31990       0.00001
                        -----------------------------------------
Magnitude (a.u.)       :      1.43889
Magnitude (Debye)      :      3.65736



--------------------
Rotational spectrum 
--------------------
 
Rotational constants in cm-1:     0.077069     0.009808     0.008730 
Rotational constants in MHz :  2310.480207   294.048128   261.706648 

 Dipole components along the rotational axes: 
x,y,z [a.u.] :    -0.543912    -1.332123     0.000004 
x,y,z [Debye]:    -1.382514    -3.385988     0.000011 

 

Timings for individual modules:

Sum of individual times         ...      146.449 sec (=   2.441 min)
GTO integral calculation        ...        0.711 sec (=   0.012 min)   0.5 %
SCF iterations                  ...      145.738 sec (=   2.429 min)  99.5 %
                             ****ORCA TERMINATED NORMALLY****
TOTAL RUN TIME: 0 days 0 hours 2 minutes 27 seconds 30 msec
