
                                 *****************
                                 * O   R   C   A *
                                 *****************

                                            #,                                       
                                            ###                                      
                                            ####                                     
                                            #####                                    
                                            ######                                   
                                           ########,                                 
                                     ,,################,,,,,                         
                               ,,#################################,,                 
                          ,,##########################################,,             
                       ,#########################################, ''#####,          
                    ,#############################################,,   '####,        
                  ,##################################################,,,,####,       
                ,###########''''           ''''###############################       
              ,#####''   ,,,,##########,,,,          '''####'''          '####       
            ,##' ,,,,###########################,,,                        '##       
           ' ,,###''''                  '''############,,,                           
         ,,##''                                '''############,,,,        ,,,,,,###''
      ,#''                                            '''#######################'''  
     '                                                          ''''####''''         
             ,#######,   #######,   ,#######,      ##                                
            ,#'     '#,  ##    ##  ,#'     '#,    #''#        ######   ,####,        
            ##       ##  ##   ,#'  ##            #'  '#       #        #'  '#        
            ##       ##  #######   ##           ,######,      #####,   #    #        
            '#,     ,#'  ##    ##  '#,     ,#' ,#      #,         ##   #,  ,#        
             '#######'   ##     ##  '#######'  #'      '#     #####' # '####'        



                  #######################################################
                  #                        -***-                        #
                  #          Department of theory and spectroscopy      #
                  #    Directorship and core code : Frank Neese         #
                  #        Max Planck Institute fuer Kohlenforschung    #
                  #                Kaiser Wilhelm Platz 1               #
                  #                 D-45470 Muelheim/Ruhr               #
                  #                      Germany                        #
                  #                                                     #
                  #                  All rights reserved                #
                  #                        -***-                        #
                  #######################################################


                         Program Version 5.0.4 -  RELEASE  -


 With contributions from (in alphabetic order):
   Daniel Aravena         : Magnetic Suceptibility
   Michael Atanasov       : Ab Initio Ligand Field Theory (pilot matlab implementation)
   Alexander A. Auer      : GIAO ZORA, VPT2 properties, NMR spectrum
   Ute Becker             : Parallelization
   Giovanni Bistoni       : ED, misc. LED, open-shell LED, HFLD
   Martin Brehm           : Molecular dynamics
   Dmytro Bykov           : SCF Hessian
   Vijay G. Chilkuri      : MRCI spin determinant printing, contributions to CSF-ICE
   Dipayan Datta          : RHF DLPNO-CCSD density
   Achintya Kumar Dutta   : EOM-CC, STEOM-CC
   Dmitry Ganyushin       : Spin-Orbit,Spin-Spin,Magnetic field MRCI
   Miquel Garcia          : C-PCM and meta-GGA Hessian, CC/C-PCM, Gaussian charge scheme
   Yang Guo               : DLPNO-NEVPT2, F12-NEVPT2, CIM, IAO-localization
   Andreas Hansen         : Spin unrestricted coupled pair/coupled cluster methods
   Benjamin Helmich-Paris : MC-RPA, TRAH-SCF, COSX integrals
   Lee Huntington         : MR-EOM, pCC
   Robert Izsak           : Overlap fitted RIJCOSX, COSX-SCS-MP3, EOM
   Marcus Kettner         : VPT2
   Christian Kollmar      : KDIIS, OOCD, Brueckner-CCSD(T), CCSD density, CASPT2, CASPT2-K
   Simone Kossmann        : Meta GGA functionals, TD-DFT gradient, OOMP2, MP2 Hessian
   Martin Krupicka        : Initial AUTO-CI
   Lucas Lang             : DCDCAS
   Marvin Lechner         : AUTO-CI (C++ implementation), FIC-MRCC
   Dagmar Lenk            : GEPOL surface, SMD
   Dimitrios Liakos       : Extrapolation schemes; Compound Job, initial MDCI parallelization
   Dimitrios Manganas     : Further ROCIS development; embedding schemes
   Dimitrios Pantazis     : SARC Basis sets
   Anastasios Papadopoulos: AUTO-CI, single reference methods and gradients
   Taras Petrenko         : DFT Hessian,TD-DFT gradient, ASA, ECA, R-Raman, ABS, FL, XAS/XES, NRVS
   Peter Pinski           : DLPNO-MP2, DLPNO-MP2 Gradient
   Christoph Reimann      : Effective Core Potentials
   Marius Retegan         : Local ZFS, SOC
   Christoph Riplinger    : Optimizer, TS searches, QM/MM, DLPNO-CCSD(T), (RO)-DLPNO pert. Triples
   Tobias Risthaus        : Range-separated hybrids, TD-DFT gradient, RPA, STAB
   Michael Roemelt        : Original ROCIS implementation
   Masaaki Saitow         : Open-shell DLPNO-CCSD energy and density
   Barbara Sandhoefer     : DKH picture change effects
   Avijit Sen             : IP-ROCIS
   Kantharuban Sivalingam : CASSCF convergence, NEVPT2, FIC-MRCI
   Bernardo de Souza      : ESD, SOC TD-DFT
   Georgi Stoychev        : AutoAux, RI-MP2 NMR, DLPNO-MP2 response
   Willem Van den Heuvel  : Paramagnetic NMR
   Boris Wezisla          : Elementary symmetry handling
   Frank Wennmohs         : Technical directorship


 We gratefully acknowledge several colleagues who have allowed us to
 interface, adapt or use parts of their codes:
   Stefan Grimme, W. Hujo, H. Kruse, P. Pracht,  : VdW corrections, initial TS optimization,
                  C. Bannwarth, S. Ehlert          DFT functionals, gCP, sTDA/sTD-DF
   Ed Valeev, F. Pavosevic, A. Kumar             : LibInt (2-el integral package), F12 methods
   Garnet Chan, S. Sharma, J. Yang, R. Olivares  : DMRG
   Ulf Ekstrom                                   : XCFun DFT Library
   Mihaly Kallay                                 : mrcc  (arbitrary order and MRCC methods)
   Jiri Pittner, Ondrej Demel                    : Mk-CCSD
   Frank Weinhold                                : gennbo (NPA and NBO analysis)
   Christopher J. Cramer and Donald G. Truhlar   : smd solvation model
   Lars Goerigk                                  : TD-DFT with DH, B97 family of functionals
   V. Asgeirsson, H. Jonsson                     : NEB implementation
   FAccTs GmbH                                   : IRC, NEB, NEB-TS, DLPNO-Multilevel, CI-OPT
                                                   MM, QMMM, 2- and 3-layer-ONIOM, Crystal-QMMM,
                                                   LR-CPCM, SF, NACMEs, symmetry and pop. for TD-DFT,
                                                   nearIR, NL-DFT gradient (VV10), updates on ESD,
                                                   ML-optimized integration grids
   S Lehtola, MJT Oliveira, MAL Marques          : LibXC Library
   Liviu Ungur et al                             : ANISO software


 Your calculation uses the libint2 library for the computation of 2-el integrals
 For citations please refer to: http://libint.valeyev.net

 Your ORCA version has been built with support for libXC version: 5.1.0
 For citations please refer to: https://tddft.org/programs/libxc/

 This ORCA versions uses:
   CBLAS   interface :  Fast vector & matrix operations
   LAPACKE interface :  Fast linear algebra routines
   SCALAPACK package :  Parallel linear algebra routines
   Shared memory     :  Shared parallel matrices
   BLAS/LAPACK       :  OpenBLAS 0.3.15  USE64BITINT DYNAMIC_ARCH NO_AFFINITY SkylakeX SINGLE_THREADED
        Core in use  :  SkylakeX
   Copyright (c) 2011-2014, The OpenBLAS Project


Your calculation utilizes the DFT-NL dispersion correction.
Cite in your paper:
Vydrov, O. A.; Van Voorhis, T. J. Chem. Phys. 2010, 133, 244103
Hujo, W.; Grimme, S. J. Chem. Theory Comput. 2011, 7, 3866 
   

================================================================================

----- Orbital basis set information -----
Your calculation utilizes the basis: def2-TZVPP
   F. Weigend and R. Ahlrichs, Phys. Chem. Chem. Phys. 7, 3297 (2005).

----- AuxJ basis set information -----
Your calculation utilizes the auxiliary basis: def2/J
   F. Weigend, Phys. Chem. Chem. Phys. 8, 1057 (2006).

================================================================================
                                        WARNINGS
                       Please study these warnings very carefully!
================================================================================

Using LibXC functional ID 531 : wB97M-V exchange-correlation functional
[ 1]  N. Mardirossian and M. Head-Gordon, J. Chem. Phys. 144, 214110 (2016)
Using LibXC functional ID 531 : wB97M-V exchange-correlation functional
[ 1]  N. Mardirossian and M. Head-Gordon, J. Chem. Phys. 144, 214110 (2016)

WARNING: B97M-V or wB97M-V functional requested.
  ===> : libXC variant has now been activated.
         Any manually given DFX/HFX/RangeSep scaling parameters are IGNORED!

Your calculation utilizes LibXC
 by S Lehtola, C Steigemann, MJT Oliveira & MAL Marques
Please cite in your paper:
 S Lehtola, C Steigemann, MJT Oliveira & MAL Marques, SoftwareX, 7, (2018), 1.
   


WARNING: your system is open-shell and RHF/RKS was chosen
  ===> : WILL SWITCH to UHF/UKS


INFO   : the flag for use of the SHARK integral package has been found!

================================================================================
                                       INPUT FILE
================================================================================
NAME = arbr_21_r2scan3c_wB97MV_ox.inp
|  1> %PAL NPROCS 16 END
|  2> %maxcore 4000
|  3> # arbr_21_r2scan3c.out
|  4> ! wB97m-v def2-TZVPP def2/J RIJCOSX Hirshfeld
|  5> * xyz 1 2
|  6>    C       -5.09987         0.34252         0.04261
|  7>    C       -3.72389        -0.28268        -0.01157
|  8>    O       -3.56499        -1.48134        -0.01454
|  9>    N       -2.69416         0.62444        -0.02566
| 10>    C       -1.31105         0.38252        -0.01701
| 11>    C       -0.75251        -0.89491        -0.01210
| 12>    C        0.62755        -1.04011        -0.00435
| 13>    C        1.44928         0.07304        -0.00147
| 14>   Br        3.33120        -0.14308         0.00831
| 15>    C        0.90584         1.34783        -0.00641
| 16>    C       -0.46872         1.49532        -0.01422
| 17>    H       -5.41131         0.40502         1.08641
| 18>    H       -5.13302         1.34074        -0.39178
| 19>    H       -5.79340        -0.31043        -0.48017
| 20>    H       -2.95854         1.59570        -0.02345
| 21>    H       -1.39101        -1.76238        -0.01553
| 22>    H        1.06039        -2.03086        -0.00086
| 23>    H        1.54920         2.21648        -0.00419
| 24>    H       -0.89505         2.49198        -0.01804
| 25> *
| 26> 
| 27>                          ****END OF INPUT****
================================================================================

                       ****************************
                       * Single Point Calculation *
                       ****************************

---------------------------------
CARTESIAN COORDINATES (ANGSTROEM)
---------------------------------
  C     -5.099870    0.342520    0.042610
  C     -3.723890   -0.282680   -0.011570
  O     -3.564990   -1.481340   -0.014540
  N     -2.694160    0.624440   -0.025660
  C     -1.311050    0.382520   -0.017010
  C     -0.752510   -0.894910   -0.012100
  C      0.627550   -1.040110   -0.004350
  C      1.449280    0.073040   -0.001470
  Br     3.331200   -0.143080    0.008310
  C      0.905840    1.347830   -0.006410
  C     -0.468720    1.495320   -0.014220
  H     -5.411310    0.405020    1.086410
  H     -5.133020    1.340740   -0.391780
  H     -5.793400   -0.310430   -0.480170
  H     -2.958540    1.595700   -0.023450
  H     -1.391010   -1.762380   -0.015530
  H      1.060390   -2.030860   -0.000860
  H      1.549200    2.216480   -0.004190
  H     -0.895050    2.491980   -0.018040

----------------------------
CARTESIAN COORDINATES (A.U.)
----------------------------
  NO LB      ZA    FRAG     MASS         X           Y           Z
   0 C     6.0000    0    12.011   -9.637358    0.647269    0.080521
   1 C     6.0000    0    12.011   -7.037132   -0.534188   -0.021864
   2 O     8.0000    0    15.999   -6.736855   -2.799327   -0.027477
   3 N     7.0000    0    14.007   -5.091225    1.180021   -0.048490
   4 C     6.0000    0    12.011   -2.477525    0.722858   -0.032144
   5 C     6.0000    0    12.011   -1.422038   -1.691135   -0.022866
   6 C     6.0000    0    12.011    1.185898   -1.965523   -0.008220
   7 C     6.0000    0    12.011    2.738742    0.138026   -0.002778
   8 Br   35.0000    0    79.900    6.295056   -0.270382    0.015704
   9 C     6.0000    0    12.011    1.711790    2.547030   -0.012113
  10 C     6.0000    0    12.011   -0.885752    2.825745   -0.026872
  11 H     1.0000    0     1.008  -10.225894    0.765377    2.053017
  12 H     1.0000    0     1.008   -9.700002    2.533631   -0.740357
  13 H     1.0000    0     1.008  -10.947939   -0.586628   -0.907390
  14 H     1.0000    0     1.008   -5.590830    3.015436   -0.044314
  15 H     1.0000    0     1.008   -2.628628   -3.330416   -0.029347
  16 H     1.0000    0     1.008    2.003847   -3.837769   -0.001625
  17 H     1.0000    0     1.008    2.927564    4.188540   -0.007918
  18 H     1.0000    0     1.008   -1.691399    4.709160   -0.034091

--------------------------------
INTERNAL COORDINATES (ANGSTROEM)
--------------------------------
 C      0   0   0     0.000000000000     0.00000000     0.00000000
 C      1   0   0     1.512326509984     0.00000000     0.00000000
 O      2   1   0     1.209150043005   121.96971908     0.00000000
 N      2   1   3     1.372373526195   114.19195209   181.39347312
 C      4   2   1     1.404134388511   128.69302355   177.09001596
 C      5   4   2     1.394208895611   123.53852782     1.02833958
 C      6   5   4     1.387699068999   119.62348083   179.96364670
 C      7   6   5     1.383600885299   120.42885397     0.00000000
 Br     8   7   6     1.894314226627   119.88387471   180.02841272
 C      8   7   6     1.385799762339   120.47594865     0.00000000
 C     10   8   7     1.382472238347   119.21343846     0.00000000
 H      1   2   3     1.091063501177   108.52184535    84.89704206
 H      1   2   3     1.089144968771   113.09736683   205.57378476
 H      1   2   3     1.086566377080   108.36497479   327.60695190
 H      4   2   1     1.006602034619   116.14764027   358.44243532
 H      6   5   4     1.077124976871   120.02727215     0.03764797
 H      7   6   5     1.081179082391   119.60627385   180.01927098
 H     10   8   7     1.080957834747   120.38553245   180.00240763
 H     11  10   8     1.084021686545   119.28422795   179.99695550

---------------------------
INTERNAL COORDINATES (A.U.)
---------------------------
 C      0   0   0     0.000000000000     0.00000000     0.00000000
 C      1   0   0     2.857882928938     0.00000000     0.00000000
 O      2   1   0     2.284962436099   121.96971908     0.00000000
 N      2   1   3     2.593410117952   114.19195209   181.39347312
 C      4   2   1     2.653429449507   128.69302355   177.09001596
 C      5   4   2     2.634672986181   123.53852782     1.02833958
 C      6   5   4     2.622371196705   119.62348083   179.96364670
 C      7   6   5     2.614626751866   120.42885397     0.00000000
 Br     8   7   6     3.579735099915   119.88387471   180.02841272
 C      8   7   6     2.618782027275   120.47594865     0.00000000
 C     10   8   7     2.612493918225   119.21343846     0.00000000
 H      1   2   3     2.061811211941   108.52184535    84.89704206
 H      1   2   3     2.058185711116   113.09736683   205.57378476
 H      1   2   3     2.053312879008   108.36497479   327.60695190
 H      4   2   1     1.902202171279   116.14764027   358.44243532
 H      6   5   4     2.035471218293   120.02727215     0.03764797
 H      7   6   5     2.043132367443   119.60627385   180.01927098
 H     10   8   7     2.042714269988   120.38553245   180.00240763
 H     11  10   8     2.048504110802   119.28422795   179.99695550

---------------------
BASIS SET INFORMATION
---------------------
There are 5 groups of distinct atoms

 Group   1 Type C   : 11s6p2d1f contracted to 5s3p2d1f pattern {62111/411/11/1}
 Group   2 Type O   : 11s6p2d1f contracted to 5s3p2d1f pattern {62111/411/11/1}
 Group   3 Type N   : 11s6p2d1f contracted to 5s3p2d1f pattern {62111/411/11/1}
 Group   4 Type Br  : 17s13p8d1f contracted to 6s5p4d1f pattern {842111/64111/5111/1}
 Group   5 Type H   : 5s2p1d contracted to 3s2p1d pattern {311/11/1}

Atom   0C    basis set group =>   1
Atom   1C    basis set group =>   1
Atom   2O    basis set group =>   2
Atom   3N    basis set group =>   3
Atom   4C    basis set group =>   1
Atom   5C    basis set group =>   1
Atom   6C    basis set group =>   1
Atom   7C    basis set group =>   1
Atom   8Br   basis set group =>   4
Atom   9C    basis set group =>   1
Atom  10C    basis set group =>   1
Atom  11H    basis set group =>   5
Atom  12H    basis set group =>   5
Atom  13H    basis set group =>   5
Atom  14H    basis set group =>   5
Atom  15H    basis set group =>   5
Atom  16H    basis set group =>   5
Atom  17H    basis set group =>   5
Atom  18H    basis set group =>   5
---------------------------------
AUXILIARY/J BASIS SET INFORMATION
---------------------------------
There are 5 groups of distinct atoms

 Group   1 Type C   : 12s5p4d2f1g contracted to 6s4p3d1f1g pattern {711111/2111/211/2/1}
 Group   2 Type O   : 12s5p4d2f1g contracted to 6s4p3d1f1g pattern {711111/2111/211/2/1}
 Group   3 Type N   : 12s5p4d2f1g contracted to 6s4p3d1f1g pattern {711111/2111/211/2/1}
 Group   4 Type Br  : 19s5p5d3f1g contracted to 8s4p3d2f1g pattern {121111111/2111/311/21/1}
 Group   5 Type H   : 5s2p1d contracted to 3s1p1d pattern {311/2/1}

Atom   0C    basis set group =>   1
Atom   1C    basis set group =>   1
Atom   2O    basis set group =>   2
Atom   3N    basis set group =>   3
Atom   4C    basis set group =>   1
Atom   5C    basis set group =>   1
Atom   6C    basis set group =>   1
Atom   7C    basis set group =>   1
Atom   8Br   basis set group =>   4
Atom   9C    basis set group =>   1
Atom  10C    basis set group =>   1
Atom  11H    basis set group =>   5
Atom  12H    basis set group =>   5
Atom  13H    basis set group =>   5
Atom  14H    basis set group =>   5
Atom  15H    basis set group =>   5
Atom  16H    basis set group =>   5
Atom  17H    basis set group =>   5
Atom  18H    basis set group =>   5


           ************************************************************
           *        Program running with 16 parallel MPI-processes    *
           *              working on a common directory               *
           ************************************************************
------------------------------------------------------------------------------
                           ORCA GTO INTEGRAL CALCULATION
                           -- RI-GTO INTEGRALS CHOSEN --
------------------------------------------------------------------------------
------------------------------------------------------------------------------
                   ___                                                        
                  /   \      - P O W E R E D   B Y -                         
                 /     \                                                     
                 |  |  |   _    _      __       _____    __    __             
                 |  |  |  | |  | |    /  \     |  _  \  |  |  /  |          
                  \  \/   | |  | |   /    \    | | | |  |  | /  /          
                 / \  \   | |__| |  /  /\  \   | |_| |  |  |/  /          
                |  |  |   |  __  | /  /__\  \  |    /   |      \           
                |  |  |   | |  | | |   __   |  |    \   |  |\   \          
                \     /   | |  | | |  |  |  |  | |\  \  |  | \   \       
                 \___/    |_|  |_| |__|  |__|  |_| \__\ |__|  \__/        
                                                                              
                      - O R C A' S   B I G   F R I E N D -                    
                                      &                                       
                       - I N T E G R A L  F E E D E R -                       
                                                                              
 v1 FN, 2020, v2 2021                                                         
------------------------------------------------------------------------------


Reading SHARK input file arbr_21_r2scan3c_wB97MV_ox.SHARKINP.tmp ... ok
----------------------
SHARK INTEGRAL PACKAGE
----------------------

Number of atoms                             ...     19
Number of basis functions                   ...    470
Number of shells                            ...    174
Maximum angular momentum                    ...      3
Integral batch strategy                     ... SHARK/LIBINT Hybrid
RI-J (if used) integral strategy            ... SPLIT-RIJ (Revised 2003 algorithm where possible)
Printlevel                                  ...      1
Contraction scheme used                     ... SEGMENTED contraction
Coulomb Range Separation                    ... NOT USED
Exchange Range Separation                   ... Long Range
   Mu parameter                             ...  0.300000
   Scaling (regular/separated)              ...  0.150000  0.850000
Finite Nucleus Model                        ... NOT USED
Auxiliary Coulomb fitting basis             ... AVAILABLE
   # of basis functions in Aux-J            ...    636
   # of shells in Aux-J                     ...    208
   Maximum angular momentum in Aux-J        ...      4
Auxiliary J/K fitting basis                 ... NOT available
Auxiliary Correlation fitting basis         ... NOT available
Auxiliary 'external' fitting basis          ... NOT available
Integral threshold                          ...     1.000000e-10
Primitive cut-off                           ...     1.000000e-11
Primitive pair pre-selection threshold      ...     1.000000e-11

Calculating pre-screening integrals         ... done (  0.1 sec) Dimension = 174
Organizing shell pair data                  ... done (  0.1 sec)
Shell pair information
Total number of shell pairs                 ...     15225
Shell pairs after pre-screening             ...     12058
Total number of primitive shell pairs       ...     46366
Primitive shell pairs kept                  ...     26014
          la=0 lb=0:   2506 shell pairs
          la=1 lb=0:   3312 shell pairs
          la=1 lb=1:   1123 shell pairs
          la=2 lb=0:   1940 shell pairs
          la=2 lb=1:   1301 shell pairs
          la=2 lb=2:    392 shell pairs
          la=3 lb=0:    697 shell pairs
          la=3 lb=1:    460 shell pairs
          la=3 lb=2:    271 shell pairs
          la=3 lb=3:     56 shell pairs

Calculating one electron integrals          ... done (  0.0 sec)
Calculating RI/J V-Matrix + Cholesky decomp.... done (  0.0 sec)
Calculating Nuclear repulsion               ... done (  0.0 sec) ENN=    790.031150784277 Eh

SHARK setup successfully completed in   0.4 seconds

Maximum memory used throughout the entire GTOINT-calculation: 28.6 MB


           ************************************************************
           *        Program running with 16 parallel MPI-processes    *
           *              working on a common directory               *
           ************************************************************
-------------------------------------------------------------------------------
                                 ORCA SCF
-------------------------------------------------------------------------------

------------
SCF SETTINGS
------------
Hamiltonian:
 Density Functional     Method          .... DFT(GTOs)
  Functional kind                       .... Exchange-Correlation
  Functional name                       .... wB97M-V exchange-correlation functional
  Functional family                     .... Hybrid MGGA
  Functional refs                              
    [ 0] N. Mardirossian and M. Head-Gordon, J. Chem. Phys. 144, 214110 (2016)
  Fraction of HF Exchange (short range) .... 0.1500
  Fraction of HF Exchange (long range)  .... 1.0000
  Range separation parameter mu         .... 0.3000
  Functional external parameters         .... 0
   Density functional embedding theory  .... OFF
 Long-range corrected/Screened/Range-Separated Hybrid DFT is turned on
   Amount of maximum screened exact exchange              ....  0.850000
   Range separation parameter mu (erf(mu*r12)/r12)        ....  0.300000
   NL short-range parameter             ....  6.000000
   NL long-range parameter              ....  0.010000
 RI-approximation to the Coulomb term is turned on
   Number of AuxJ basis functions       .... 636
   RIJ-COSX (HFX calculated with COS-X)).... on


General Settings:
 Integral files         IntName         .... arbr_21_r2scan3c_wB97MV_ox
 Hartree-Fock type      HFTyp           .... UHF
 Total Charge           Charge          ....    1
 Multiplicity           Mult            ....    2
 Number of Electrons    NEL             ....  105
 Basis Dimension        Dim             ....  470
 Nuclear Repulsion      ENuc            ....    790.0311507843 Eh

Convergence Acceleration:
 DIIS                   CNVDIIS         .... on
   Start iteration      DIISMaxIt       ....    12
   Startup error        DIISStart       ....  0.200000
   # of expansion vecs  DIISMaxEq       ....     5
   Bias factor          DIISBfac        ....   1.050
   Max. coefficient     DIISMaxC        ....  10.000
 Trust-Rad. Augm. Hess. CNVTRAH         .... auto
   Auto Start mean grad. ratio tolernc. ....  1.125000
   Auto Start start iteration           ....    20
   Auto Start num. interpolation iter.  ....    10
   Max. Number of Micro iterations      ....    16
   Max. Number of Macro iterations      .... Maxiter - #DIIS iter
   Number of Davidson start vectors     ....     2
   Converg. threshold I  (grad. norm)   ....   5.000e-05
   Converg. threshold II (energy diff.) ....   1.000e-06
   Grad. Scal. Fac. for Micro threshold ....   0.100
   Minimum threshold for Micro iter.    ....   0.010
   NR start threshold (gradient norm)   ....   0.001
   Initial trust radius                 ....   0.400
   Minimum AH scaling param. (alpha)    ....   1.000
   Maximum AH scaling param. (alpha)    .... 1000.000
   Orbital update algorithm             .... Taylor
   White noise on init. David. guess    .... on
   Maximum white noise                  ....   0.010
   Quad. conv. algorithm                .... NR
 SOSCF                  CNVSOSCF        .... off
 Level Shifting         CNVShift        .... on
   Level shift para.    LevelShift      ....    0.2500
   Turn off err/grad.   ShiftErr        ....    0.0010
 Zerner damping         CNVZerner       .... off
 Static damping         CNVDamp         .... on
   Fraction old density DampFac         ....    0.7000
   Max. Damping (<1)    DampMax         ....    0.9800
   Min. Damping (>=0)   DampMin         ....    0.0000
   Turn off err/grad.   DampErr         ....    0.1000
 Fernandez-Rico         CNVRico         .... off

SCF Procedure:
 Maximum # iterations   MaxIter         ....   125
 SCF integral mode      SCFMode         .... Direct
   Integral package                     .... SHARK and LIBINT hybrid scheme
 Reset frequency        DirectResetFreq ....    20
 Integral Threshold     Thresh          ....  1.000e-10 Eh
 Primitive CutOff       TCut            ....  1.000e-11 Eh

Convergence Tolerance:
 Convergence Check Mode ConvCheckMode   .... Total+1el-Energy
 Convergence forced     ConvForced      .... 0
 Energy Change          TolE            ....  1.000e-06 Eh
 1-El. energy change                    ....  1.000e-03 Eh
 DIIS Error             TolErr          ....  1.000e-06


Diagonalization of the overlap matrix:
Smallest eigenvalue                        ... 7.537e-06
Time for diagonalization                   ...    0.032 sec
Threshold for overlap eigenvalues          ... 1.000e-08
Number of eigenvalues below threshold      ... 0
Time for construction of square roots      ...    0.020 sec
Total time needed                          ...    0.054 sec

Time for model grid setup =    0.093 sec

------------------------------
INITIAL GUESS: MODEL POTENTIAL
------------------------------
Loading Hartree-Fock densities                     ... done
Calculating cut-offs                               ... done
Initializing the effective Hamiltonian             ... done
Setting up the integral package (SHARK)            ... done
Starting the Coulomb interaction                   ... done (   0.1 sec)
Reading the grid                                   ... done
Mapping shells                                     ... done
Starting the XC term evaluation                    ... done (   0.1 sec)
  promolecular density results
     # of electrons  =    105.989500138
     EX              =   -147.290196033
     EC              =     -4.092754784
     EX+EC           =   -151.382950817
Transforming the Hamiltonian                       ... done (   0.0 sec)
Diagonalizing the Hamiltonian                      ... done (   0.0 sec)
Back transforming the eigenvectors                 ... done (   0.0 sec)
Now organizing SCF variables                       ... done
                      ------------------
                      INITIAL GUESS DONE (   0.3 sec)
                      ------------------
-------------------
DFT GRID GENERATION
-------------------

General Integration Accuracy     IntAcc      ... 4.388
Radial Grid Type                 RadialGrid  ... OptM3 with GC (2021)
Angular Grid (max. ang.)         AngularGrid ... 4 (Lebedev-302)
Angular grid pruning method      GridPruning ... 4 (adaptive)
Weight generation scheme         WeightScheme... Becke
Basis function cutoff            BFCut       ... 1.0000e-10
Integration weight cutoff        WCut        ... 1.0000e-14
Angular grids for H and He will be reduced by one unit
Partially contracted basis set               ... off
Rotationally invariant grid construction     ... off

Total number of grid points                  ...    97108
Total number of batches                      ...     1527
Average number of points per batch           ...       63
Average number of grid points per atom       ...     5111
Time for grid setup =    0.452 sec

--------------------
COSX GRID GENERATION
--------------------

GRIDX 1
-------
General Integration Accuracy     IntAcc      ... 3.816
Radial Grid Type                 RadialGrid  ... OptM3 with GC (2021)
Angular Grid (max. ang.)         AngularGrid ... 1 (Lebedev-50)
Angular grid pruning method      GridPruning ... 4 (adaptive)
Weight generation scheme         WeightScheme... Becke
Basis function cutoff            BFCut       ... 1.0000e-10
Integration weight cutoff        WCut        ... 1.0000e-14
Angular grids for H and He will be reduced by one unit
Partially contracted basis set               ... on
Rotationally invariant grid construction     ... off

Total number of grid points                  ...    12215
Total number of batches                      ...      201
Average number of points per batch           ...       60
Average number of grid points per atom       ...      643
UseSFitting                                  ... on

GRIDX 2
-------
General Integration Accuracy     IntAcc      ... 4.020
Radial Grid Type                 RadialGrid  ... OptM3 with GC (2021)
Angular Grid (max. ang.)         AngularGrid ... 2 (Lebedev-110)
Angular grid pruning method      GridPruning ... 4 (adaptive)
Weight generation scheme         WeightScheme... Becke
Basis function cutoff            BFCut       ... 1.0000e-10
Integration weight cutoff        WCut        ... 1.0000e-14
Angular grids for H and He will be reduced by one unit
Partially contracted basis set               ... on
Rotationally invariant grid construction     ... off

Total number of grid points                  ...    26686
Total number of batches                      ...      428
Average number of points per batch           ...       62
Average number of grid points per atom       ...     1405
UseSFitting                                  ... on

GRIDX 3
-------
General Integration Accuracy     IntAcc      ... 4.338
Radial Grid Type                 RadialGrid  ... OptM3 with GC (2021)
Angular Grid (max. ang.)         AngularGrid ... 3 (Lebedev-194)
Angular grid pruning method      GridPruning ... 4 (adaptive)
Weight generation scheme         WeightScheme... Becke
Basis function cutoff            BFCut       ... 1.0000e-10
Integration weight cutoff        WCut        ... 1.0000e-14
Angular grids for H and He will be reduced by one unit
Partially contracted basis set               ... on
Rotationally invariant grid construction     ... off

Total number of grid points                  ...    58825
Total number of batches                      ...      930
Average number of points per batch           ...       63
Average number of grid points per atom       ...     3096
UseSFitting                                  ... on

Time for X-Grid setup             =    0.406 sec

--------------
SCF ITERATIONS
--------------
ITER       Energy         Delta-E        Max-DP      RMS-DP      [F,P]     Damp
               ***  Starting incremental Fock matrix formation  ***
  0  -3013.4705392267   0.000000000000 0.02514708  0.00041283  0.1436576 0.7000
  1  -3013.6033914011  -0.132852174325 0.02247867  0.00032583  0.0692570 0.7000
                               ***Turning on DIIS***
  2  -3013.6670065500  -0.063615148913 0.05441870  0.00068386  0.0279600 0.0000
  3  -3013.7693269895  -0.102320439517 0.02350568  0.00022606  0.0355946 0.0000
  4  -3013.7899065227  -0.020579533152 0.01163441  0.00012414  0.0069754 0.0000
  5  -3013.7919684699  -0.002061947207 0.00685998  0.00008009  0.0069002 0.0000
  6  -3013.7932510789  -0.001282609013 0.00743913  0.00006717  0.0062112 0.0000
  7  -3013.7942218261  -0.000970747234 0.00771687  0.00005576  0.0053825 0.0000
  8  -3013.7949319173  -0.000710091234 0.00613322  0.00004194  0.0038253 0.0000
  9  -3013.7953409460  -0.000409028632 0.00470435  0.00003091  0.0028617 0.0000
 10  -3013.7955849544  -0.000244008464 0.00353452  0.00002637  0.0017114 0.0000
 11  -3013.7957311603  -0.000146205866 0.00264023  0.00002108  0.0011324 0.0000
 12  -3013.7958181342  -0.000086973924 0.00377734  0.00002621  0.0007746 0.0000
               *** Restarting incremental Fock matrix formation ***
                                   *** Resetting DIIS ***
 13  -3013.7958700026  -0.000051868408 0.00091012  0.00001530  0.0005202 0.0000
 14  -3013.7958764056  -0.000006402989 0.00029811  0.00000265  0.0006501 0.0000
 15  -3013.7958806095  -0.000004203908 0.00041992  0.00000435  0.0001885 0.0000
 16  -3013.7958851588  -0.000004549235 0.00026276  0.00000376  0.0001778 0.0000
 17  -3013.7958873261  -0.000002167381 0.00022027  0.00000274  0.0000935 0.0000
 18  -3013.7958879376  -0.000000611486 0.00008754  0.00000101  0.0000469 0.0000
                 **** Energy Check signals convergence ****

               *****************************************************
               *                     SUCCESS                       *
               *           SCF CONVERGED AFTER  19 CYCLES          *
               *****************************************************

Old exchange energy                            =    -36.478781133 Eh
New exchange energy                            =    -36.478786554 Eh
Exchange energy change after final integration =     -0.000005421 Eh
Total energy after final integration           =  -3013.795893475 Eh
Final COS-X integration done in                =     7.216 sec

------------------
NL GRID GENERATION
------------------

General Integration Accuracy     IntAcc      ... 4.004
Radial Grid Type                 RadialGrid  ... OptM3 with GC (2021)
Angular Grid (max. ang.)         AngularGrid ... 2 (Lebedev-110)
Angular grid pruning method      GridPruning ... 4 (adaptive)
Weight generation scheme         WeightScheme... Becke
Basis function cutoff            BFCut       ... 1.0000e-10
Integration weight cutoff        WCut        ... 1.0000e-14
Angular grids for H and He will be reduced by one unit
Partially contracted basis set               ... off
Rotationally invariant grid construction     ... off

Total number of grid points                  ...    32865
Total number of batches                      ...      524
Average number of points per batch           ...       62
Average number of grid points per atom       ...     1730
Final grid set up in    0.1 sec

-------------------------------------------------------------------------------
                    post-SCF DFT-NL dispersion correction                      
-------------------------------------------------------------------------------

SCF Energy:   -3013.795893475 
NL    Energy:  0.412186897 
SC+NL Energy: -3013.383706578 
NL done in:    0.4 sec
-------------------------------------------------------------------------------

----------------
TOTAL SCF ENERGY
----------------

Total Energy       :        -3013.38370658 Eh          -81998.33937 eV

Components:
Nuclear Repulsion  :          790.03115078 Eh           21497.84054 eV
Electronic Energy  :        -3803.41485736 Eh         -103496.17991 eV
One Electron Energy:        -5728.97253195 Eh         -155893.26806 eV
Two Electron Energy:         1925.55767459 Eh           52397.08814 eV
Max COSX asymmetry :            0.00000100 Eh               0.00003 eV

Virial components:
Potential Energy   :        -6022.57867896 Eh         -163882.69749 eV
Kinetic Energy     :         3009.19497239 Eh           81884.35812 eV
Virial Ratio       :            2.00139198


DFT components:
N(Alpha)           :       53.000013303318 electrons
N(Beta)            :       52.000003245521 electrons
N(Total)           :      105.000016548838 electrons
NL Energy, E(C,NL) :        0.412186896831 Eh       
E(XC)              :     -116.289052402201 Eh       
DFET-embed. en.    :        0.000000000000 Eh       

---------------
SCF CONVERGENCE
---------------

  Last Energy change         ...   -1.1563e-07  Tolerance :   1.0000e-06
  Last MAX-Density change    ...    0.0000e+00  Tolerance :   1.0000e-05
  Last RMS-Density change    ...    0.0000e+00  Tolerance :   1.0000e-06
  Last DIIS Error            ...    3.6417e-05  Tolerance :   1.0000e-06

             **** THE GBW FILE WAS UPDATED (arbr_21_r2scan3c_wB97MV_ox.gbw) ****
             **** DENSITY arbr_21_r2scan3c_wB97MV_ox.scfp WAS UPDATED ****
             **** ENERGY FILE WAS UPDATED (arbr_21_r2scan3c_wB97MV_ox.en.tmp) ****
----------------------
UHF SPIN CONTAMINATION
----------------------

Warning: in a DFT calculation there is little theoretical justification to 
         calculate <S**2> as in Hartree-Fock theory. We will do it anyways
         but you should keep in mind that the values have only limited relevance

Expectation value of <S**2>     :     0.769675
Ideal value S*(S+1) for S=0.5   :     0.750000
Deviation                       :     0.019675

             **** THE GBW FILE WAS UPDATED (arbr_21_r2scan3c_wB97MV_ox.gbw) ****
             **** DENSITY arbr_21_r2scan3c_wB97MV_ox.scfp WAS UPDATED ****
----------------
ORBITAL ENERGIES
----------------
                 SPIN UP ORBITALS
  NO   OCC          E(Eh)            E(eV) 
   0   1.0000    -483.686306    -13161.7735 
   1   1.0000     -62.990396     -1714.0558 
   2   1.0000     -56.676992     -1542.2594 
   3   1.0000     -56.675412     -1542.2164 
   4   1.0000     -56.674540     -1542.1926 
   5   1.0000     -19.481414      -530.1162 
   6   1.0000     -14.761786      -401.6886 
   7   1.0000     -10.628138      -289.2063 
   8   1.0000     -10.623989      -289.0934 
   9   1.0000     -10.615086      -288.8512 
  10   1.0000     -10.560454      -287.3646 
  11   1.0000     -10.552990      -287.1615 
  12   1.0000     -10.549810      -287.0749 
  13   1.0000     -10.549276      -287.0604 
  14   1.0000     -10.491260      -285.4817 
  15   1.0000      -9.073221      -246.8949 
  16   1.0000      -6.859074      -186.6449 
  17   1.0000      -6.850113      -186.4010 
  18   1.0000      -6.846384      -186.2996 
  19   1.0000      -2.940295       -80.0095 
  20   1.0000      -2.938213       -79.9528 
  21   1.0000      -2.935503       -79.8791 
  22   1.0000      -2.928083       -79.6772 
  23   1.0000      -2.927872       -79.6715 
  24   1.0000      -1.358606       -36.9695 
  25   1.0000      -1.277408       -34.7600 
  26   1.0000      -1.200898       -32.6781 
  27   1.0000      -1.122234       -30.5375 
  28   1.0000      -1.078754       -29.3544 
  29   1.0000      -1.054274       -28.6883 
  30   1.0000      -1.006562       -27.3899 
  31   1.0000      -0.953162       -25.9369 
  32   1.0000      -0.922971       -25.1153 
  33   1.0000      -0.882196       -24.0058 
  34   1.0000      -0.851753       -23.1774 
  35   1.0000      -0.777044       -21.1444 
  36   1.0000      -0.771893       -21.0043 
  37   1.0000      -0.756696       -20.5908 
  38   1.0000      -0.753486       -20.5034 
  39   1.0000      -0.737863       -20.0783 
  40   1.0000      -0.719948       -19.5908 
  41   1.0000      -0.704748       -19.1772 
  42   1.0000      -0.687593       -18.7104 
  43   1.0000      -0.656606       -17.8672 
  44   1.0000      -0.655262       -17.8306 
  45   1.0000      -0.649426       -17.6718 
  46   1.0000      -0.644211       -17.5299 
  47   1.0000      -0.615627       -16.7521 
  48   1.0000      -0.573566       -15.6075 
  49   1.0000      -0.556922       -15.1546 
  50   1.0000      -0.548355       -14.9215 
  51   1.0000      -0.534560       -14.5461 
  52   1.0000      -0.509297       -13.8587 
  53   0.0000      -0.140653        -3.8274 
  54   0.0000      -0.131688        -3.5834 
  55   0.0000      -0.088812        -2.4167 
  56   0.0000      -0.064253        -1.7484 
  57   0.0000      -0.051386        -1.3983 
  58   0.0000      -0.017022        -0.4632 
  59   0.0000      -0.006086        -0.1656 
  60   0.0000       0.011760         0.3200 
  61   0.0000       0.015756         0.4287 
  62   0.0000       0.022711         0.6180 
  63   0.0000       0.038277         1.0416 
  64   0.0000       0.048800         1.3279 
  65   0.0000       0.056042         1.5250 
  66   0.0000       0.060044         1.6339 
  67   0.0000       0.071688         1.9507 
  68   0.0000       0.079123         2.1530 
  69   0.0000       0.088176         2.3994 
  70   0.0000       0.101140         2.7522 
  71   0.0000       0.112953         3.0736 
  72   0.0000       0.119617         3.2549 
  73   0.0000       0.124975         3.4007 
  74   0.0000       0.132441         3.6039 
  75   0.0000       0.137409         3.7391 
  76   0.0000       0.140596         3.8258 
  77   0.0000       0.150214         4.0875 
  78   0.0000       0.152059         4.1377 
  79   0.0000       0.165643         4.5074 
  80   0.0000       0.173575         4.7232 
  81   0.0000       0.187257         5.0955 
  82   0.0000       0.191072         5.1993 
  83   0.0000       0.195466         5.3189 
  84   0.0000       0.202396         5.5075 
  85   0.0000       0.212810         5.7909 
  86   0.0000       0.217208         5.9105 
  87   0.0000       0.222758         6.0616 
  88   0.0000       0.235919         6.4197 
  89   0.0000       0.240452         6.5430 
  90   0.0000       0.254065         6.9134 
  91   0.0000       0.257685         7.0120 
  92   0.0000       0.272556         7.4166 
  93   0.0000       0.278129         7.5683 
  94   0.0000       0.290677         7.9097 
  95   0.0000       0.299335         8.1453 
  96   0.0000       0.308292         8.3890 
  97   0.0000       0.320103         8.7104 
  98   0.0000       0.321856         8.7581 
  99   0.0000       0.326231         8.8772 
 100   0.0000       0.331094         9.0095 
 101   0.0000       0.332538         9.0488 
 102   0.0000       0.356285         9.6950 
 103   0.0000       0.363685         9.8964 
 104   0.0000       0.377373        10.2688 
 105   0.0000       0.385869        10.5000 
 106   0.0000       0.391000        10.6397 
 107   0.0000       0.401090        10.9142 
 108   0.0000       0.403859        10.9896 
 109   0.0000       0.415228        11.2989 
 110   0.0000       0.432098        11.7580 
 111   0.0000       0.442512        12.0414 
 112   0.0000       0.444757        12.1025 
 113   0.0000       0.450572        12.2607 
 114   0.0000       0.462131        12.5752 
 115   0.0000       0.480578        13.0772 
 116   0.0000       0.485273        13.2050 
 117   0.0000       0.500182        13.6107 
 118   0.0000       0.503707        13.7066 
 119   0.0000       0.521856        14.2004 
 120   0.0000       0.532652        14.4942 
 121   0.0000       0.536360        14.5951 
 122   0.0000       0.546677        14.8758 
 123   0.0000       0.549435        14.9509 
 124   0.0000       0.567652        15.4466 
 125   0.0000       0.575514        15.6605 
 126   0.0000       0.578281        15.7358 
 127   0.0000       0.593681        16.1549 
 128   0.0000       0.602905        16.4059 
 129   0.0000       0.629892        17.1402 
 130   0.0000       0.637340        17.3429 
 131   0.0000       0.661397        17.9975 
 132   0.0000       0.667269        18.1573 
 133   0.0000       0.675200        18.3731 
 134   0.0000       0.699656        19.0386 
 135   0.0000       0.704049        19.1581 
 136   0.0000       0.712216        19.3804 
 137   0.0000       0.720521        19.6064 
 138   0.0000       0.738151        20.0861 
 139   0.0000       0.743983        20.2448 
 140   0.0000       0.766719        20.8635 
 141   0.0000       0.779107        21.2006 
 142   0.0000       0.786378        21.3984 
 143   0.0000       0.813817        22.1451 
 144   0.0000       0.824654        22.4400 
 145   0.0000       0.840382        22.8679 
 146   0.0000       0.848517        23.0893 
 147   0.0000       0.864218        23.5166 
 148   0.0000       0.873087        23.7579 
 149   0.0000       0.876176        23.8420 
 150   0.0000       0.884946        24.0806 
 151   0.0000       0.899713        24.4824 
 152   0.0000       0.904655        24.6169 
 153   0.0000       0.911646        24.8071 
 154   0.0000       0.924222        25.1494 
 155   0.0000       0.934936        25.4409 
 156   0.0000       0.946212        25.7477 
 157   0.0000       0.959832        26.1184 
 158   0.0000       0.974807        26.5258 
 159   0.0000       0.981427        26.7060 
 160   0.0000       1.022845        27.8330 
 161   0.0000       1.038321        28.2541 
 162   0.0000       1.054088        28.6832 
 163   0.0000       1.057440        28.7744 
 164   0.0000       1.067333        29.0436 
 165   0.0000       1.080461        29.4008 
 166   0.0000       1.096449        29.8359 
 167   0.0000       1.098326        29.8870 
 168   0.0000       1.122684        30.5498 
 169   0.0000       1.139020        30.9943 
 170   0.0000       1.149439        31.2778 
 171   0.0000       1.161466        31.6051 
 172   0.0000       1.173159        31.9233 
 173   0.0000       1.176190        32.0058 
 174   0.0000       1.198014        32.5996 
 175   0.0000       1.201923        32.7060 
 176   0.0000       1.214364        33.0445 
 177   0.0000       1.232520        33.5386 
 178   0.0000       1.244880        33.8749 
 179   0.0000       1.255296        34.1583 
 180   0.0000       1.264343        34.4045 
 181   0.0000       1.267521        34.4910 
 182   0.0000       1.272544        34.6277 
 183   0.0000       1.276240        34.7283 
 184   0.0000       1.310984        35.6737 
 185   0.0000       1.314061        35.7574 
 186   0.0000       1.316858        35.8335 
 187   0.0000       1.335381        36.3376 
 188   0.0000       1.340067        36.4651 
 189   0.0000       1.351651        36.7803 
 190   0.0000       1.355769        36.8924 
 191   0.0000       1.364072        37.1183 
 192   0.0000       1.372354        37.3437 
 193   0.0000       1.381803        37.6008 
 194   0.0000       1.391659        37.8690 
 195   0.0000       1.398946        38.0673 
 196   0.0000       1.412292        38.4304 
 197   0.0000       1.422730        38.7145 
 198   0.0000       1.443229        39.2723 
 199   0.0000       1.451168        39.4883 
 200   0.0000       1.460353        39.7382 
 201   0.0000       1.463055        39.8118 
 202   0.0000       1.467027        39.9198 
 203   0.0000       1.486626        40.4531 
 204   0.0000       1.494834        40.6765 
 205   0.0000       1.526761        41.5453 
 206   0.0000       1.535090        41.7719 
 207   0.0000       1.538621        41.8680 
 208   0.0000       1.552100        42.2348 
 209   0.0000       1.554941        42.3121 
 210   0.0000       1.564571        42.5742 
 211   0.0000       1.569212        42.7004 
 212   0.0000       1.592163        43.3250 
 213   0.0000       1.605867        43.6979 
 214   0.0000       1.610904        43.8349 
 215   0.0000       1.627421        44.2844 
 216   0.0000       1.634153        44.4676 
 217   0.0000       1.658281        45.1241 
 218   0.0000       1.671273        45.4776 
 219   0.0000       1.686726        45.8981 
 220   0.0000       1.699571        46.2477 
 221   0.0000       1.728097        47.0239 
 222   0.0000       1.747399        47.5491 
 223   0.0000       1.763230        47.9799 
 224   0.0000       1.771614        48.2081 
 225   0.0000       1.784783        48.5664 
 226   0.0000       1.813441        49.3462 
 227   0.0000       1.844782        50.1991 
 228   0.0000       1.859771        50.6069 
 229   0.0000       1.870277        50.8928 
 230   0.0000       1.911215        52.0068 
 231   0.0000       1.917855        52.1875 
 232   0.0000       1.944986        52.9258 
 233   0.0000       1.973093        53.6906 
 234   0.0000       1.996551        54.3289 
 235   0.0000       2.022268        55.0287 
 236   0.0000       2.049483        55.7693 
 237   0.0000       2.066276        56.2262 
 238   0.0000       2.078737        56.5653 
 239   0.0000       2.088727        56.8371 
 240   0.0000       2.120796        57.7098 
 241   0.0000       2.129625        57.9500 
 242   0.0000       2.183019        59.4030 
 243   0.0000       2.197555        59.7985 
 244   0.0000       2.203401        59.9576 
 245   0.0000       2.217760        60.3483 
 246   0.0000       2.249275        61.2059 
 247   0.0000       2.282970        62.1228 
 248   0.0000       2.310306        62.8666 
 249   0.0000       2.341327        63.7108 
 250   0.0000       2.388017        64.9813 
 251   0.0000       2.407403        65.5088 
 252   0.0000       2.417573        65.7855 
 253   0.0000       2.441900        66.4475 
 254   0.0000       2.452643        66.7398 
 255   0.0000       2.479742        67.4772 
 256   0.0000       2.516380        68.4742 
 257   0.0000       2.525583        68.7246 
 258   0.0000       2.529294        68.8256 
 259   0.0000       2.544123        69.2291 
 260   0.0000       2.570572        69.9488 
 261   0.0000       2.583277        70.2945 
 262   0.0000       2.591757        70.5253 
 263   0.0000       2.607759        70.9607 
 264   0.0000       2.615067        71.1596 
 265   0.0000       2.622878        71.3721 
 266   0.0000       2.642032        71.8934 
 267   0.0000       2.655757        72.2668 
 268   0.0000       2.691300        73.2340 
 269   0.0000       2.696290        73.3698 
 270   0.0000       2.700595        73.4869 
 271   0.0000       2.706627        73.6511 
 272   0.0000       2.725998        74.1782 
 273   0.0000       2.743390        74.6514 
 274   0.0000       2.753046        74.9142 
 275   0.0000       2.772989        75.4569 
 276   0.0000       2.794056        76.0301 
 277   0.0000       2.804858        76.3241 
 278   0.0000       2.814646        76.5904 
 279   0.0000       2.835873        77.1680 
 280   0.0000       2.840030        77.2811 
 281   0.0000       2.845532        77.4309 
 282   0.0000       2.862239        77.8855 
 283   0.0000       2.885827        78.5273 
 284   0.0000       2.893133        78.7262 
 285   0.0000       2.898648        78.8762 
 286   0.0000       2.903460        79.0072 
 287   0.0000       2.909760        79.1786 
 288   0.0000       2.922655        79.5295 
 289   0.0000       2.954755        80.4030 
 290   0.0000       2.967777        80.7573 
 291   0.0000       2.976092        80.9836 
 292   0.0000       2.985494        81.2394 
 293   0.0000       2.993826        81.4661 
 294   0.0000       3.008578        81.8676 
 295   0.0000       3.013048        81.9892 
 296   0.0000       3.036003        82.6139 
 297   0.0000       3.044470        82.8442 
 298   0.0000       3.057919        83.2102 
 299   0.0000       3.061126        83.2975 
 300   0.0000       3.070518        83.5530 
 301   0.0000       3.080490        83.8244 
 302   0.0000       3.089954        84.0819 
 303   0.0000       3.115817        84.7857 
 304   0.0000       3.127667        85.1081 
 305   0.0000       3.136490        85.3482 
 306   0.0000       3.152736        85.7903 
 307   0.0000       3.176649        86.4410 
 308   0.0000       3.186649        86.7131 
 309   0.0000       3.190234        86.8107 
 310   0.0000       3.208941        87.3197 
 311   0.0000       3.219761        87.6142 
 312   0.0000       3.237139        88.0870 
 313   0.0000       3.240565        88.1803 
 314   0.0000       3.256559        88.6155 
 315   0.0000       3.274569        89.1056 
 316   0.0000       3.277991        89.1987 
 317   0.0000       3.283886        89.3591 
 318   0.0000       3.308363        90.0251 
 319   0.0000       3.320193        90.3470 
 320   0.0000       3.329213        90.5925 
 321   0.0000       3.347805        91.0984 
 322   0.0000       3.357767        91.3695 
 323   0.0000       3.364713        91.5585 
 324   0.0000       3.391988        92.3007 
 325   0.0000       3.404291        92.6355 
 326   0.0000       3.410406        92.8019 
 327   0.0000       3.420161        93.0673 
 328   0.0000       3.428431        93.2923 
 329   0.0000       3.441915        93.6593 
 330   0.0000       3.454621        94.0050 
 331   0.0000       3.480870        94.7193 
 332   0.0000       3.490054        94.9692 
 333   0.0000       3.508926        95.4827 
 334   0.0000       3.526044        95.9485 
 335   0.0000       3.567125        97.0664 
 336   0.0000       3.588404        97.6454 
 337   0.0000       3.603344        98.0520 
 338   0.0000       3.622020        98.5602 
 339   0.0000       3.644256        99.1653 
 340   0.0000       3.647963        99.2661 
 341   0.0000       3.658457        99.5517 
 342   0.0000       3.668641        99.8288 
 343   0.0000       3.684395       100.2575 
 344   0.0000       3.696425       100.5848 
 345   0.0000       3.706317       100.8540 
 346   0.0000       3.716490       101.1308 
 347   0.0000       3.729456       101.4837 
 348   0.0000       3.759105       102.2904 
 349   0.0000       3.764281       102.4313 
 350   0.0000       3.771990       102.6411 
 351   0.0000       3.780120       102.8623 
 352   0.0000       3.796878       103.3183 
 353   0.0000       3.802412       103.4689 
 354   0.0000       3.831882       104.2708 
 355   0.0000       3.836042       104.3840 
 356   0.0000       3.856083       104.9294 
 357   0.0000       3.867560       105.2416 
 358   0.0000       3.901324       106.1604 
 359   0.0000       3.904073       106.2352 
 360   0.0000       3.911572       106.4393 
 361   0.0000       3.939373       107.1958 
 362   0.0000       3.967846       107.9706 
 363   0.0000       3.977408       108.2308 
 364   0.0000       3.996388       108.7472 
 365   0.0000       4.004506       108.9681 
 366   0.0000       4.021459       109.4295 
 367   0.0000       4.028591       109.6235 
 368   0.0000       4.036351       109.8347 
 369   0.0000       4.052452       110.2728 
 370   0.0000       4.066376       110.6517 
 371   0.0000       4.095748       111.4510 
 372   0.0000       4.101406       111.6049 
 373   0.0000       4.106352       111.7395 
 374   0.0000       4.115561       111.9901 
 375   0.0000       4.124622       112.2367 
 376   0.0000       4.140753       112.6756 
 377   0.0000       4.154949       113.0619 
 378   0.0000       4.176888       113.6589 
 379   0.0000       4.183602       113.8416 
 380   0.0000       4.202862       114.3657 
 381   0.0000       4.218023       114.7783 
 382   0.0000       4.238428       115.3335 
 383   0.0000       4.248325       115.6028 
 384   0.0000       4.266134       116.0874 
 385   0.0000       4.292269       116.7986 
 386   0.0000       4.311226       117.3144 
 387   0.0000       4.353126       118.4546 
 388   0.0000       4.384785       119.3161 
 389   0.0000       4.397370       119.6585 
 390   0.0000       4.426989       120.4645 
 391   0.0000       4.443175       120.9049 
 392   0.0000       4.456746       121.2742 
 393   0.0000       4.473586       121.7325 
 394   0.0000       4.489926       122.1771 
 395   0.0000       4.526175       123.1635 
 396   0.0000       4.535263       123.4108 
 397   0.0000       4.546659       123.7209 
 398   0.0000       4.556784       123.9964 
 399   0.0000       4.574405       124.4759 
 400   0.0000       4.581873       124.6791 
 401   0.0000       4.602005       125.2269 
 402   0.0000       4.605864       125.3319 
 403   0.0000       4.632704       126.0623 
 404   0.0000       4.642869       126.3389 
 405   0.0000       4.677016       127.2681 
 406   0.0000       4.717008       128.3563 
 407   0.0000       4.731530       128.7515 
 408   0.0000       4.762670       129.5988 
 409   0.0000       4.765958       129.6883 
 410   0.0000       4.832427       131.4970 
 411   0.0000       4.841230       131.7366 
 412   0.0000       4.876180       132.6876 
 413   0.0000       4.888959       133.0353 
 414   0.0000       4.927809       134.0925 
 415   0.0000       4.972379       135.3053 
 416   0.0000       5.001333       136.0932 
 417   0.0000       5.018402       136.5577 
 418   0.0000       5.043006       137.2272 
 419   0.0000       5.060884       137.7137 
 420   0.0000       5.065374       137.8358 
 421   0.0000       5.147648       140.0746 
 422   0.0000       5.154271       140.2548 
 423   0.0000       5.189650       141.2176 
 424   0.0000       5.194424       141.3475 
 425   0.0000       5.204525       141.6223 
 426   0.0000       5.205277       141.6428 
 427   0.0000       5.213094       141.8555 
 428   0.0000       5.229868       142.3119 
 429   0.0000       5.235228       142.4578 
 430   0.0000       5.250402       142.8707 
 431   0.0000       5.296807       144.1334 
 432   0.0000       5.337676       145.2456 
 433   0.0000       5.370828       146.1477 
 434   0.0000       5.399089       146.9167 
 435   0.0000       5.457041       148.4936 
 436   0.0000       5.494250       149.5061 
 437   0.0000       5.502800       149.7388 
 438   0.0000       5.505640       149.8161 
 439   0.0000       5.547016       150.9420 
 440   0.0000       5.552264       151.0848 
 441   0.0000       5.598644       152.3468 
 442   0.0000       5.637360       153.4004 
 443   0.0000       5.699709       155.0970 
 444   0.0000       5.782291       157.3442 
 445   0.0000       5.854775       159.3165 
 446   0.0000       5.991668       163.0416 
 447   0.0000       6.063253       164.9895 
 448   0.0000       6.136308       166.9774 
 449   0.0000       6.143500       167.1731 
 450   0.0000       6.325593       172.1281 
 451   0.0000       6.356660       172.9735 
 452   0.0000       6.394277       173.9971 
 453   0.0000       6.559896       178.5039 
 454   0.0000       6.644925       180.8176 
 455   0.0000       6.773542       184.3174 
 456   0.0000       6.853775       186.5007 
 457   0.0000       7.089468       192.9142 
 458   0.0000       7.115765       193.6298 
 459   0.0000       7.737166       210.5390 
 460   0.0000      22.652161       616.3967 
 461   0.0000      23.082301       628.1013 
 462   0.0000      23.239311       632.3738 
 463   0.0000      23.317509       634.5017 
 464   0.0000      23.392653       636.5465 
 465   0.0000      23.563186       641.1869 
 466   0.0000      23.760640       646.5599 
 467   0.0000      24.042157       654.2203 
 468   0.0000      33.250537       904.7931 
 469   0.0000      44.193097      1202.5553 

                 SPIN DOWN ORBITALS
  NO   OCC          E(Eh)            E(eV) 
   0   1.0000    -483.685867    -13161.7616 
   1   1.0000     -62.990254     -1714.0520 
   2   1.0000     -56.676913     -1542.2572 
   3   1.0000     -56.674390     -1542.1885 
   4   1.0000     -56.674376     -1542.1882 
   5   1.0000     -19.479336      -530.0597 
   6   1.0000     -14.756861      -401.5546 
   7   1.0000     -10.628775      -289.2237 
   8   1.0000     -10.621356      -289.0218 
   9   1.0000     -10.610518      -288.7269 
  10   1.0000     -10.558954      -287.3238 
  11   1.0000     -10.553355      -287.1714 
  12   1.0000     -10.549921      -287.0779 
  13   1.0000     -10.548183      -287.0307 
  14   1.0000     -10.491260      -285.4817 
  15   1.0000      -9.072660      -246.8796 
  16   1.0000      -6.858936      -186.6411 
  17   1.0000      -6.848411      -186.3547 
  18   1.0000      -6.846114      -186.2922 
  19   1.0000      -2.939802       -79.9961 
  20   1.0000      -2.937232       -79.9261 
  21   1.0000      -2.935421       -79.8769 
  22   1.0000      -2.926989       -79.6474 
  23   1.0000      -2.926900       -79.6450 
  24   1.0000      -1.354357       -36.8539 
  25   1.0000      -1.269448       -34.5434 
  26   1.0000      -1.194198       -32.4958 
  27   1.0000      -1.113828       -30.3088 
  28   1.0000      -1.076698       -29.2984 
  29   1.0000      -1.049093       -28.5473 
  30   1.0000      -1.002115       -27.2689 
  31   1.0000      -0.949043       -25.8248 
  32   1.0000      -0.918242       -24.9866 
  33   1.0000      -0.878577       -23.9073 
  34   1.0000      -0.848093       -23.0778 
  35   1.0000      -0.774156       -21.0659 
  36   1.0000      -0.767743       -20.8914 
  37   1.0000      -0.751165       -20.4402 
  38   1.0000      -0.739877       -20.1331 
  39   1.0000      -0.735084       -20.0027 
  40   1.0000      -0.718986       -19.5646 
  41   1.0000      -0.687774       -18.7153 
  42   1.0000      -0.685702       -18.6589 
  43   1.0000      -0.654449       -17.8085 
  44   1.0000      -0.647244       -17.6124 
  45   1.0000      -0.642073       -17.4717 
  46   1.0000      -0.636569       -17.3219 
  47   1.0000      -0.596258       -16.2250 
  48   1.0000      -0.554729       -15.0949 
  49   1.0000      -0.545692       -14.8490 
  50   1.0000      -0.534732       -14.5508 
  51   1.0000      -0.531725       -14.4690 
  52   0.0000      -0.295513        -8.0413 
  53   0.0000      -0.116615        -3.1733 
  54   0.0000      -0.114722        -3.1218 
  55   0.0000      -0.083812        -2.2806 
  56   0.0000      -0.062344        -1.6965 
  57   0.0000      -0.038973        -1.0605 
  58   0.0000      -0.015475        -0.4211 
  59   0.0000      -0.005225        -0.1422 
  60   0.0000       0.012441         0.3385 
  61   0.0000       0.016056         0.4369 
  62   0.0000       0.023999         0.6530 
  63   0.0000       0.044420         1.2087 
  64   0.0000       0.050956         1.3866 
  65   0.0000       0.059509         1.6193 
  66   0.0000       0.061604         1.6763 
  67   0.0000       0.073676         2.0048 
  68   0.0000       0.081132         2.2077 
  69   0.0000       0.088885         2.4187 
  70   0.0000       0.102921         2.8006 
  71   0.0000       0.115101         3.1321 
  72   0.0000       0.120716         3.2848 
  73   0.0000       0.126430         3.4403 
  74   0.0000       0.133645         3.6367 
  75   0.0000       0.138792         3.7767 
  76   0.0000       0.141732         3.8567 
  77   0.0000       0.152360         4.1459 
  78   0.0000       0.155040         4.2188 
  79   0.0000       0.167303         4.5525 
  80   0.0000       0.175351         4.7715 
  81   0.0000       0.189510         5.1568 
  82   0.0000       0.193691         5.2706 
  83   0.0000       0.197081         5.3628 
  84   0.0000       0.206056         5.6071 
  85   0.0000       0.214275         5.8307 
  86   0.0000       0.219899         5.9838 
  87   0.0000       0.226114         6.1529 
  88   0.0000       0.238191         6.4815 
  89   0.0000       0.245398         6.6776 
  90   0.0000       0.255935         6.9643 
  91   0.0000       0.259847         7.0708 
  92   0.0000       0.276543         7.5251 
  93   0.0000       0.281313         7.6549 
  94   0.0000       0.294883         8.0242 
  95   0.0000       0.302829         8.2404 
  96   0.0000       0.311076         8.4648 
  97   0.0000       0.322549         8.7770 
  98   0.0000       0.323022         8.7899 
  99   0.0000       0.327490         8.9115 
 100   0.0000       0.332074         9.0362 
 101   0.0000       0.334165         9.0931 
 102   0.0000       0.357236         9.7209 
 103   0.0000       0.365795         9.9538 
 104   0.0000       0.378687        10.3046 
 105   0.0000       0.389217        10.5911 
 106   0.0000       0.392281        10.6745 
 107   0.0000       0.402713        10.9584 
 108   0.0000       0.406312        11.0563 
 109   0.0000       0.417414        11.3584 
 110   0.0000       0.433127        11.7860 
 111   0.0000       0.445759        12.1297 
 112   0.0000       0.447159        12.1678 
 113   0.0000       0.452223        12.3056 
 114   0.0000       0.465066        12.6551 
 115   0.0000       0.482168        13.1205 
 116   0.0000       0.486912        13.2495 
 117   0.0000       0.502176        13.6649 
 118   0.0000       0.505518        13.7558 
 119   0.0000       0.525066        14.2878 
 120   0.0000       0.534840        14.5537 
 121   0.0000       0.538070        14.6416 
 122   0.0000       0.548152        14.9160 
 123   0.0000       0.551084        14.9958 
 124   0.0000       0.569441        15.4953 
 125   0.0000       0.578796        15.7498 
 126   0.0000       0.580739        15.8027 
 127   0.0000       0.600197        16.3322 
 128   0.0000       0.604296        16.4437 
 129   0.0000       0.631688        17.1891 
 130   0.0000       0.639514        17.4021 
 131   0.0000       0.666942        18.1484 
 132   0.0000       0.670790        18.2531 
 133   0.0000       0.675643        18.3852 
 134   0.0000       0.700567        19.0634 
 135   0.0000       0.705971        19.2104 
 136   0.0000       0.713873        19.4255 
 137   0.0000       0.721917        19.6444 
 138   0.0000       0.740006        20.1366 
 139   0.0000       0.748224        20.3602 
 140   0.0000       0.768972        20.9248 
 141   0.0000       0.782708        21.2986 
 142   0.0000       0.788444        21.4547 
 143   0.0000       0.814925        22.1752 
 144   0.0000       0.826252        22.4835 
 145   0.0000       0.842751        22.9324 
 146   0.0000       0.850612        23.1463 
 147   0.0000       0.865302        23.5461 
 148   0.0000       0.875522        23.8242 
 149   0.0000       0.878300        23.8998 
 150   0.0000       0.888336        24.1728 
 151   0.0000       0.901112        24.5205 
 152   0.0000       0.906269        24.6608 
 153   0.0000       0.913838        24.8668 
 154   0.0000       0.926930        25.2230 
 155   0.0000       0.936654        25.4876 
 156   0.0000       0.949174        25.8283 
 157   0.0000       0.960872        26.1467 
 158   0.0000       0.976391        26.5689 
 159   0.0000       0.982505        26.7353 
 160   0.0000       1.024279        27.8720 
 161   0.0000       1.041068        28.3289 
 162   0.0000       1.056736        28.7552 
 163   0.0000       1.060536        28.8587 
 164   0.0000       1.070232        29.1225 
 165   0.0000       1.083200        29.4754 
 166   0.0000       1.098188        29.8832 
 167   0.0000       1.101334        29.9688 
 168   0.0000       1.125760        30.6335 
 169   0.0000       1.141040        31.0493 
 170   0.0000       1.152953        31.3734 
 171   0.0000       1.165608        31.7178 
 172   0.0000       1.175621        31.9903 
 173   0.0000       1.179695        32.1011 
 174   0.0000       1.200523        32.6679 
 175   0.0000       1.204381        32.7729 
 176   0.0000       1.216835        33.1118 
 177   0.0000       1.235820        33.6284 
 178   0.0000       1.248329        33.9688 
 179   0.0000       1.261162        34.3180 
 180   0.0000       1.268596        34.5203 
 181   0.0000       1.270587        34.5744 
 182   0.0000       1.274628        34.6844 
 183   0.0000       1.280166        34.8351 
 184   0.0000       1.314610        35.7724 
 185   0.0000       1.320257        35.9260 
 186   0.0000       1.323083        36.0029 
 187   0.0000       1.338003        36.4089 
 188   0.0000       1.344025        36.5728 
 189   0.0000       1.353007        36.8172 
 190   0.0000       1.358177        36.9579 
 191   0.0000       1.366156        37.1750 
 192   0.0000       1.374482        37.4015 
 193   0.0000       1.385100        37.6905 
 194   0.0000       1.394458        37.9451 
 195   0.0000       1.400780        38.1171 
 196   0.0000       1.413653        38.4674 
 197   0.0000       1.426081        38.8056 
 198   0.0000       1.448062        39.4038 
 199   0.0000       1.455416        39.6039 
 200   0.0000       1.463890        39.8345 
 201   0.0000       1.468150        39.9504 
 202   0.0000       1.471418        40.0393 
 203   0.0000       1.490001        40.5450 
 204   0.0000       1.498693        40.7815 
 205   0.0000       1.533522        41.7293 
 206   0.0000       1.538573        41.8667 
 207   0.0000       1.547783        42.1173 
 208   0.0000       1.558328        42.4043 
 209   0.0000       1.567326        42.6491 
 210   0.0000       1.569036        42.6956 
 211   0.0000       1.572595        42.7925 
 212   0.0000       1.596501        43.4430 
 213   0.0000       1.609738        43.8032 
 214   0.0000       1.613576        43.9076 
 215   0.0000       1.632399        44.4198 
 216   0.0000       1.636620        44.5347 
 217   0.0000       1.660579        45.1867 
 218   0.0000       1.675218        45.5850 
 219   0.0000       1.691691        46.0333 
 220   0.0000       1.701756        46.3071 
 221   0.0000       1.731983        47.1297 
 222   0.0000       1.749878        47.6166 
 223   0.0000       1.769307        48.1453 
 224   0.0000       1.783208        48.5236 
 225   0.0000       1.788956        48.6800 
 226   0.0000       1.816357        49.4256 
 227   0.0000       1.846501        50.2458 
 228   0.0000       1.862516        50.6816 
 229   0.0000       1.875708        51.0406 
 230   0.0000       1.915600        52.1261 
 231   0.0000       1.920939        52.2714 
 232   0.0000       1.950038        53.0632 
 233   0.0000       1.979498        53.8649 
 234   0.0000       2.002087        54.4796 
 235   0.0000       2.026128        55.1337 
 236   0.0000       2.054048        55.8935 
 237   0.0000       2.071302        56.3630 
 238   0.0000       2.083912        56.7061 
 239   0.0000       2.093569        56.9689 
 240   0.0000       2.127966        57.9049 
 241   0.0000       2.135252        58.1031 
 242   0.0000       2.190522        59.6071 
 243   0.0000       2.206216        60.0342 
 244   0.0000       2.210434        60.1490 
 245   0.0000       2.228852        60.6502 
 246   0.0000       2.252528        61.2944 
 247   0.0000       2.287441        62.2444 
 248   0.0000       2.313777        62.9611 
 249   0.0000       2.344697        63.8024 
 250   0.0000       2.390853        65.0584 
 251   0.0000       2.413669        65.6793 
 252   0.0000       2.424269        65.9677 
 253   0.0000       2.444447        66.5168 
 254   0.0000       2.456921        66.8562 
 255   0.0000       2.487719        67.6943 
 256   0.0000       2.519797        68.5672 
 257   0.0000       2.530528        68.8592 
 258   0.0000       2.543218        69.2045 
 259   0.0000       2.547914        69.3323 
 260   0.0000       2.573619        70.0317 
 261   0.0000       2.589486        70.4635 
 262   0.0000       2.600043        70.7508 
 263   0.0000       2.612880        71.1001 
 264   0.0000       2.622728        71.3681 
 265   0.0000       2.629371        71.5488 
 266   0.0000       2.645951        72.0000 
 267   0.0000       2.661522        72.4237 
 268   0.0000       2.697242        73.3957 
 269   0.0000       2.699658        73.4614 
 270   0.0000       2.702736        73.5452 
 271   0.0000       2.709869        73.7393 
 272   0.0000       2.728699        74.2517 
 273   0.0000       2.751431        74.8702 
 274   0.0000       2.756201        75.0001 
 275   0.0000       2.777994        75.5931 
 276   0.0000       2.801409        76.2302 
 277   0.0000       2.809920        76.4618 
 278   0.0000       2.818169        76.6863 
 279   0.0000       2.839711        77.2725 
 280   0.0000       2.845473        77.4293 
 281   0.0000       2.850074        77.5544 
 282   0.0000       2.867584        78.0309 
 283   0.0000       2.892887        78.7195 
 284   0.0000       2.899921        78.9109 
 285   0.0000       2.905233        79.0554 
 286   0.0000       2.909563        79.1732 
 287   0.0000       2.914876        79.3178 
 288   0.0000       2.928728        79.6947 
 289   0.0000       2.958737        80.5113 
 290   0.0000       2.971453        80.8573 
 291   0.0000       2.980766        81.1108 
 292   0.0000       2.989331        81.3438 
 293   0.0000       2.997468        81.5652 
 294   0.0000       3.015801        82.0641 
 295   0.0000       3.019667        82.1693 
 296   0.0000       3.041956        82.7758 
 297   0.0000       3.050126        82.9981 
 298   0.0000       3.062760        83.3419 
 299   0.0000       3.067872        83.4810 
 300   0.0000       3.077645        83.7470 
 301   0.0000       3.086928        83.9996 
 302   0.0000       3.095274        84.2267 
 303   0.0000       3.120500        84.9131 
 304   0.0000       3.132121        85.2293 
 305   0.0000       3.143902        85.5499 
 306   0.0000       3.157576        85.9220 
 307   0.0000       3.179643        86.5225 
 308   0.0000       3.193032        86.8868 
 309   0.0000       3.197015        86.9952 
 310   0.0000       3.212990        87.4299 
 311   0.0000       3.226260        87.7910 
 312   0.0000       3.241471        88.2049 
 313   0.0000       3.244759        88.2944 
 314   0.0000       3.259187        88.6870 
 315   0.0000       3.280404        89.2643 
 316   0.0000       3.281819        89.3028 
 317   0.0000       3.288566        89.4864 
 318   0.0000       3.316147        90.2370 
 319   0.0000       3.328553        90.5745 
 320   0.0000       3.334426        90.7343 
 321   0.0000       3.352054        91.2140 
 322   0.0000       3.363215        91.5177 
 323   0.0000       3.369357        91.6849 
 324   0.0000       3.394332        92.3645 
 325   0.0000       3.407763        92.7299 
 326   0.0000       3.413636        92.8897 
 327   0.0000       3.423349        93.1541 
 328   0.0000       3.431950        93.3881 
 329   0.0000       3.447007        93.7978 
 330   0.0000       3.458137        94.1007 
 331   0.0000       3.484702        94.8236 
 332   0.0000       3.494817        95.0988 
 333   0.0000       3.515480        95.6611 
 334   0.0000       3.530419        96.0676 
 335   0.0000       3.570566        97.1600 
 336   0.0000       3.593254        97.7774 
 337   0.0000       3.606606        98.1407 
 338   0.0000       3.626106        98.6713 
 339   0.0000       3.649555        99.3095 
 340   0.0000       3.654635        99.4477 
 341   0.0000       3.664594        99.7187 
 342   0.0000       3.672452        99.9325 
 343   0.0000       3.688165       100.3601 
 344   0.0000       3.701599       100.7256 
 345   0.0000       3.712336       101.0178 
 346   0.0000       3.720819       101.2486 
 347   0.0000       3.733357       101.5898 
 348   0.0000       3.759916       102.3125 
 349   0.0000       3.767473       102.5182 
 350   0.0000       3.775364       102.7329 
 351   0.0000       3.782084       102.9157 
 352   0.0000       3.799006       103.3762 
 353   0.0000       3.805420       103.5507 
 354   0.0000       3.835274       104.3631 
 355   0.0000       3.838385       104.4478 
 356   0.0000       3.862123       105.0937 
 357   0.0000       3.869506       105.2946 
 358   0.0000       3.904246       106.2399 
 359   0.0000       3.907504       106.3286 
 360   0.0000       3.914478       106.5184 
 361   0.0000       3.946109       107.3791 
 362   0.0000       3.971601       108.0728 
 363   0.0000       3.981079       108.3307 
 364   0.0000       4.001865       108.8963 
 365   0.0000       4.012827       109.1946 
 366   0.0000       4.025852       109.5490 
 367   0.0000       4.031419       109.7005 
 368   0.0000       4.042215       109.9943 
 369   0.0000       4.056313       110.3779 
 370   0.0000       4.072114       110.8079 
 371   0.0000       4.099952       111.5654 
 372   0.0000       4.107921       111.7822 
 373   0.0000       4.116948       112.0278 
 374   0.0000       4.121622       112.1550 
 375   0.0000       4.131285       112.4180 
 376   0.0000       4.143419       112.7482 
 377   0.0000       4.161666       113.2447 
 378   0.0000       4.183515       113.8392 
 379   0.0000       4.188045       113.9625 
 380   0.0000       4.205908       114.4486 
 381   0.0000       4.220928       114.8573 
 382   0.0000       4.241762       115.4242 
 383   0.0000       4.251311       115.6841 
 384   0.0000       4.270306       116.2009 
 385   0.0000       4.296611       116.9167 
 386   0.0000       4.312644       117.3530 
 387   0.0000       4.357210       118.5657 
 388   0.0000       4.386707       119.3684 
 389   0.0000       4.407928       119.9458 
 390   0.0000       4.430641       120.5639 
 391   0.0000       4.445290       120.9625 
 392   0.0000       4.460575       121.3784 
 393   0.0000       4.478301       121.8608 
 394   0.0000       4.494681       122.3065 
 395   0.0000       4.533991       123.3762 
 396   0.0000       4.541947       123.5927 
 397   0.0000       4.553943       123.9191 
 398   0.0000       4.566472       124.2600 
 399   0.0000       4.576763       124.5400 
 400   0.0000       4.589536       124.8876 
 401   0.0000       4.609094       125.4198 
 402   0.0000       4.611934       125.4971 
 403   0.0000       4.640077       126.2629 
 404   0.0000       4.659812       126.7999 
 405   0.0000       4.683234       127.4373 
 406   0.0000       4.722706       128.5114 
 407   0.0000       4.738015       128.9279 
[...]
  7 C s       :     2.783799  s :     2.783799
      pz      :     0.779300  p :     2.872795
      px      :     0.995864
      py      :     1.097631
      dz2     :     0.037298  d :     0.561056
      dxz     :     0.075469
      dyz     :     0.079497
      dx2y2   :     0.206692
      dxy     :     0.162100
      f0      :     0.003851  f :     0.055430
      f+1     :     0.004058
      f-1     :     0.004262
      f+2     :     0.004095
      f-2     :     0.007663
      f+3     :     0.010640
      f-3     :     0.020861
  8 Brs       :     7.583783  s :     7.583783
      pz      :     5.741796  p :    16.749972
      px      :     5.144566
      py      :     5.863609
      dz2     :     2.015788  d :    10.109071
      dxz     :     2.024338
      dyz     :     2.000646
      dx2y2   :     2.046186
      dxy     :     2.022114
      f0      :     0.001182  f :     0.014746
      f+1     :     0.002900
      f-1     :     0.000238
      f+2     :     0.001756
      f-2     :     0.000116
      f+3     :     0.005241
      f-3     :     0.003312
  9 C s       :     2.721085  s :     2.721085
      pz      :     0.802167  p :     2.825311
      px      :     1.022121
      py      :     1.001023
      dz2     :     0.026602  d :     0.384582
      dxz     :     0.049201
      dyz     :     0.034572
      dx2y2   :     0.115520
      dxy     :     0.158686
      f0      :     0.002800  f :     0.043962
      f+1     :     0.003869
      f-1     :     0.003671
      f+2     :     0.006303
      f-2     :     0.002431
      f+3     :     0.009596
      f-3     :     0.015292
 10 C s       :     2.714691  s :     2.714691
      pz      :     0.810773  p :     2.804604
      px      :     1.012600
      py      :     0.981231
      dz2     :     0.026366  d :     0.376537
      dxz     :     0.060146
      dyz     :     0.023510
      dx2y2   :     0.121575
      dxy     :     0.144939
      f0      :     0.002681  f :     0.042975
      f+1     :     0.004002
      f-1     :     0.003394
      f+2     :     0.004498
      f-2     :     0.004069
      f+3     :     0.009415
      f-3     :     0.014917
 11 H s       :     0.779726  s :     0.779726
      pz      :     0.067269  p :     0.149284
      px      :     0.042045
      py      :     0.039970
      dz2     :     0.009864  d :     0.030162
      dxz     :     0.009050
      dyz     :     0.009384
      dx2y2   :     0.000990
      dxy     :     0.000874
 12 H s       :     0.803391  s :     0.803391
      pz      :     0.046510  p :     0.148121
      px      :     0.036904
      py      :     0.064707
      dz2     :     0.005188  d :     0.030055
      dxz     :     0.001319
      dyz     :     0.008647
      dx2y2   :     0.006692
      dxy     :     0.008209
 13 H s       :     0.781275  s :     0.781275
      pz      :     0.046461  p :     0.144806
      px      :     0.049447
      py      :     0.048899
      dz2     :     0.006002  d :     0.030662
      dxz     :     0.005377
      dyz     :     0.004950
      dx2y2   :     0.007760
      dxy     :     0.006573
 14 H s       :     0.696104  s :     0.696104
      pz      :     0.076073  p :     0.231043
      px      :     0.046176
      py      :     0.108794
      dz2     :     0.005044  d :     0.060830
      dxz     :     0.001587
      dyz     :     0.020359
      dx2y2   :     0.017144
      dxy     :     0.016695
 15 H s       :     0.767957  s :     0.767957
      pz      :     0.035705  p :     0.166793
      px      :     0.067303
      py      :     0.063784
      dz2     :     0.002941  d :     0.030652
      dxz     :     0.002987
      dyz     :     0.005160
      dx2y2   :     0.010115
      dxy     :     0.009450
 16 H s       :     0.780776  s :     0.780776
      pz      :     0.035113  p :     0.143318
      px      :     0.038155
      py      :     0.070051
      dz2     :     0.002860  d :     0.029529
      dxz     :     0.001418
      dyz     :     0.006705
      dx2y2   :     0.009451
      dxy     :     0.009096
 17 H s       :     0.781655  s :     0.781655
      pz      :     0.035634  p :     0.143648
      px      :     0.047266
      py      :     0.060748
      dz2     :     0.002864  d :     0.029505
      dxz     :     0.003067
      dyz     :     0.005142
      dx2y2   :     0.009404
      dxy     :     0.009029
 18 H s       :     0.784930  s :     0.784930
      pz      :     0.037650  p :     0.144918
      px      :     0.037752
      py      :     0.069515
      dz2     :     0.002838  d :     0.029375
      dxz     :     0.001405
      dyz     :     0.006965
      dx2y2   :     0.009218
      dxy     :     0.008948

SPIN
  0 C s       :    -0.000090  s :    -0.000090
      pz      :     0.000508  p :     0.000439
      px      :    -0.000125
      py      :     0.000055
      dz2     :    -0.000060  d :    -0.001080
      dxz     :    -0.000483
      dyz     :    -0.000292
      dx2y2   :    -0.000112
      dxy     :    -0.000133
      f0      :    -0.000052  f :    -0.000174
      f+1     :    -0.000002
      f-1     :    -0.000002
      f+2     :     0.000002
      f-2     :    -0.000088
      f+3     :    -0.000019
      f-3     :    -0.000014
  1 C s       :    -0.001309  s :    -0.001309
      pz      :    -0.018460  p :    -0.022918
      px      :    -0.002498
      py      :    -0.001961
      dz2     :     0.000120  d :     0.027836
      dxz     :     0.005443
      dyz     :     0.021879
      dx2y2   :     0.000130
      dxy     :     0.000264
      f0      :     0.000485  f :     0.004272
      f+1     :     0.000033
      f-1     :     0.000019
      f+2     :     0.001061
      f-2     :     0.002408
      f+3     :     0.000082
      f-3     :     0.000184
  2 O s       :     0.000666  s :     0.000666
      pz      :     0.067062  p :     0.068378
      px      :     0.000543
      py      :     0.000772
      dz2     :     0.000008  d :    -0.000962
      dxz     :    -0.000004
      dyz     :    -0.000749
      dx2y2   :    -0.000100
      dxy     :    -0.000116
      f0      :    -0.000034  f :    -0.000111
      f+1     :     0.000000
      f-1     :    -0.000017
      f+2     :    -0.000034
      f-2     :    -0.000003
      f+3     :    -0.000014
      f-3     :    -0.000009
  3 N s       :     0.003325  s :     0.003325
      pz      :     0.154483  p :     0.160390
      px      :     0.002400
      py      :     0.003507
      dz2     :    -0.000187  d :     0.004381
      dxz     :     0.005685
      dyz     :    -0.000461
      dx2y2   :    -0.000300
      dxy     :    -0.000357
      f0      :     0.000383  f :     0.000371
      f+1     :    -0.000068
      f-1     :    -0.000063
      f+2     :     0.000139
      f-2     :     0.000019
      f+3     :    -0.000014
      f-3     :    -0.000025
  4 C s       :     0.001674  s :     0.001674
      pz      :     0.136142  p :     0.136354
      px      :    -0.000339
      py      :     0.000551
      dz2     :    -0.000272  d :     0.025280
      dxz     :     0.018981
      dyz     :     0.005290
      dx2y2   :     0.000707
      dxy     :     0.000574
      f0      :     0.000050  f :     0.003860
      f+1     :    -0.000093
      f-1     :    -0.000068
      f+2     :     0.003014
      f-2     :     0.000748
      f+3     :     0.000036
      f-3     :     0.000173
  5 C s       :     0.000880  s :     0.000880
      pz      :     0.073978  p :     0.074519
      px      :     0.001185
      py      :    -0.000645
      dz2     :    -0.000260  d :     0.010820
      dxz     :     0.003467
      dyz     :     0.008176
      dx2y2   :    -0.000215
      dxy     :    -0.000348
      f0      :    -0.000026  f :     0.001538
      f+1     :    -0.000057
      f-1     :    -0.000033
      f+2     :     0.001259
      f-2     :     0.000432
      f+3     :    -0.000024
      f-3     :    -0.000013
  6 C s       :    -0.000950  s :    -0.000950
      pz      :    -0.005519  p :    -0.009807
      px      :    -0.002160
      py      :    -0.002128
      dz2     :     0.000064  d :     0.027337
      dxz     :     0.018428
      dyz     :     0.007644
      dx2y2   :     0.000433
      dxy     :     0.000768
      f0      :     0.000339  f :     0.003757
      f+1     :     0.000009
      f-1     :     0.000024
      f+2     :     0.001127
      f-2     :     0.002050
      f+3     :     0.000099
      f-3     :     0.000111
  7 C s       :     0.004751  s :     0.004751
      pz      :     0.202439  p :     0.212704
      px      :     0.006352
      py      :     0.003914
      dz2     :    -0.000503  d :    -0.005641
      dxz     :    -0.001453
      dyz     :    -0.002840
      dx2y2   :    -0.000371
      dxy     :    -0.000475
      f0      :    -0.000501  f :    -0.000718
      f+1     :    -0.000127
      f-1     :    -0.000133
      f+2     :     0.000420
      f-2     :    -0.000277
      f+3     :    -0.000099
      f-3     :    -0.000000
  8 Brs       :     0.000911  s :     0.000911
      pz      :     0.135531  p :     0.126253
      px      :    -0.009530
      py      :     0.000253
      dz2     :     0.000647  d :     0.010683
      dxz     :     0.009260
      dyz     :     0.000088
      dx2y2   :     0.000664
      dxy     :     0.000024
      f0      :     0.000485  f :     0.001305
      f+1     :    -0.000053
      f-1     :     0.000007
      f+2     :     0.000720
      f-2     :     0.000038
      f+3     :     0.000087
      f-3     :     0.000021
  9 C s       :    -0.000944  s :    -0.000944
      pz      :    -0.004919  p :    -0.009218
      px      :    -0.001582
      py      :    -0.002716
      dz2     :     0.000062  d :     0.027917
      dxz     :     0.013562
      dyz     :     0.013042
      dx2y2   :     0.000626
      dxy     :     0.000625
      f0      :     0.000334  f :     0.003887
      f+1     :     0.000005
      f-1     :     0.000027
      f+2     :     0.002542
      f-2     :     0.000763
      f+3     :     0.000092
      f-3     :     0.000123
 10 C s       :     0.000978  s :     0.000978
      pz      :     0.077273  p :     0.078237
      px      :     0.000919
      py      :     0.000046
      dz2     :    -0.000274  d :     0.009821
      dxz     :     0.005688
      dyz     :     0.005003
      dx2y2   :    -0.000542
      dxy     :    -0.000053
      f0      :    -0.000049  f :     0.001521
      f+1     :    -0.000056
      f-1     :    -0.000041
      f+2     :     0.000474
      f-2     :     0.001234
      f+3     :    -0.000002
      f-3     :    -0.000038
 11 H s       :     0.000137  s :     0.000137
      pz      :    -0.000002  p :    -0.000029
      px      :    -0.000035
      py      :     0.000009
      dz2     :     0.000001  d :     0.000001
      dxz     :    -0.000000
      dyz     :     0.000000
      dx2y2   :    -0.000001
      dxy     :     0.000000
 12 H s       :    -0.000113  s :    -0.000113
      pz      :    -0.000057  p :    -0.000019
      px      :     0.000035
      py      :     0.000003
      dz2     :    -0.000000  d :     0.000006
      dxz     :     0.000002
      dyz     :     0.000001
      dx2y2   :     0.000006
      dxy     :    -0.000002
 13 H s       :     0.000019  s :     0.000019
      pz      :     0.000073  p :     0.000055
      px      :    -0.000021
      py      :     0.000003
      dz2     :     0.000006  d :     0.000004
      dxz     :     0.000001
      dyz     :    -0.000001
      dx2y2   :    -0.000002
      dxy     :     0.000000
 14 H s       :    -0.004178  s :    -0.004178
      pz      :     0.012474  p :     0.013554
      px      :     0.000046
      py      :     0.001033
      dz2     :     0.000021  d :     0.004200
      dxz     :     0.000113
      dyz     :     0.003732
      dx2y2   :     0.000218
      dxy     :     0.000116
 15 H s       :    -0.001971  s :    -0.001971
      pz      :     0.004746  p :     0.005012
      px      :     0.000007
      py      :     0.000259
      dz2     :     0.000003  d :     0.001044
      dxz     :     0.000198
      dyz     :     0.000778
      dx2y2   :     0.000015
      dxy     :     0.000049
 16 H s       :    -0.000188  s :    -0.000188
      pz      :    -0.000649  p :    -0.000993
      px      :    -0.000213
      py      :    -0.000132
      dz2     :    -0.000001  d :    -0.000168
      dxz     :    -0.000089
      dyz     :    -0.000001
      dx2y2   :    -0.000036
      dxy     :    -0.000042
 17 H s       :    -0.000186  s :    -0.000186
      pz      :    -0.000615  p :    -0.000965
      px      :    -0.000187
      py      :    -0.000162
      dz2     :    -0.000001  d :    -0.000156
      dxz     :    -0.000124
      dyz     :     0.000046
      dx2y2   :    -0.000064
      dxy     :    -0.000013
 18 H s       :    -0.002196  s :    -0.002196
      pz      :     0.004460  p :     0.004845
      px      :     0.000021
      py      :     0.000364
      dz2     :     0.000004  d :     0.001160
      dxz     :     0.000085
      dyz     :     0.000999
      dx2y2   :     0.000041
      dxy     :     0.000031


                      *****************************
                      * MAYER POPULATION ANALYSIS *
                      *****************************

  NA   - Mulliken gross atomic population
  ZA   - Total nuclear charge
  QA   - Mulliken gross atomic charge
  VA   - Mayer's total valence
  BVA  - Mayer's bonded valence
  FA   - Mayer's free valence

  ATOM       NA         ZA         QA         VA         BVA        FA
  0 C      6.2921     6.0000    -0.2921     3.8575     3.8575     0.0000
  1 C      5.6763     6.0000     0.3237     4.0187     4.0175     0.0011
  2 O      8.2929     8.0000    -0.2929     2.1772     2.1710     0.0061
  3 N      7.0783     7.0000    -0.0783     3.3848     3.3444     0.0405
  4 C      5.7888     6.0000     0.2112     3.9153     3.8784     0.0369
  5 C      6.1011     6.0000    -0.1011     3.9787     3.9685     0.0102
  6 C      6.0268     6.0000    -0.0268     3.8411     3.8393     0.0018
  7 C      6.0348     6.0000    -0.0348     4.1303     4.0630     0.0673
  8 Br    34.8227    35.0000     0.1773     1.4883     1.4644     0.0239
  9 C      6.0469     6.0000    -0.0469     3.9204     3.9187     0.0017
 10 C      6.0940     6.0000    -0.0940     3.9758     3.9645     0.0112
 11 H      0.8491     1.0000     0.1509     0.9864     0.9864     0.0000
 12 H      0.8982     1.0000     0.1018     0.9967     0.9967    -0.0000
 13 H      0.8481     1.0000     0.1519     0.9959     0.9959     0.0000
 14 H      0.8497     1.0000     0.1503     1.0228     1.0226     0.0001
 15 H      0.8039     1.0000     0.1961     1.0219     1.0219     0.0000
 16 H      0.8245     1.0000     0.1755     0.9864     0.9864     0.0000
 17 H      0.8256     1.0000     0.1744     0.9871     0.9871     0.0000
 18 H      0.8460     1.0000     0.1540     0.9957     0.9956     0.0000

  Mayer bond orders larger than 0.100000
B(  0-C ,  1-C ) :   0.9446 B(  0-C , 11-H ) :   0.9438 B(  0-C , 12-H ) :   0.9897 
B(  0-C , 13-H ) :   0.9678 B(  1-C ,  2-O ) :   2.0243 B(  1-C ,  3-N ) :   1.0088 
B(  3-N ,  4-C ) :   1.2294 B(  3-N , 14-H ) :   0.9712 B(  4-C ,  5-C ) :   1.2870 
B(  4-C , 10-C ) :   1.2126 B(  5-C ,  6-C ) :   1.5593 B(  5-C , 15-H ) :   0.9017 
B(  6-C ,  7-C ) :   1.2513 B(  6-C , 16-H ) :   0.9413 B(  7-C ,  8-Br) :   1.3727 
B(  7-C ,  9-C ) :   1.2494 B(  9-C , 10-C ) :   1.6163 B(  9-C , 17-H ) :   0.9415 
B( 10-C , 18-H ) :   0.9218 


------------------
HIRSHFELD ANALYSIS
------------------

Total integrated alpha density =     53.000013302
Total integrated beta density  =     52.000003243

  ATOM     CHARGE      SPIN    
   0 C   -0.053846    0.000622
   1 C    0.228607    0.002737
   2 O   -0.218501    0.069911
   3 N   -0.024088    0.179806
   4 C    0.136287    0.161724
   5 C    0.021460    0.088874
   6 C    0.017825    0.015981
   7 C    0.094748    0.214071
   8 Br   0.131899    0.143016
   9 C    0.013910    0.017275
  10 C    0.014559    0.093073
  11 H    0.066034    0.000130
  12 H    0.048162    0.000199
  13 H    0.070356   -0.000030
  14 H    0.157179    0.007886
  15 H    0.068012    0.003837
  16 H    0.077870   -0.001117
  17 H    0.077199   -0.001053
  18 H    0.072313    0.003071

  TOTAL   0.999983    1.000010

-------
TIMINGS
-------

Total SCF time: 0 days 0 hours 1 min 8 sec 

Total time                  ....      68.863 sec
Sum of individual times     ....      67.652 sec  ( 98.2%)

Fock matrix formation       ....      62.321 sec  ( 90.5%)
  Split-RI-J                ....       3.215 sec  (  5.2% of F)
  Chain of spheres X        ....      45.676 sec  ( 73.3% of F)
  XC integration            ....      12.962 sec  ( 20.8% of F)
    Basis function eval.    ....       0.871 sec  (  6.7% of XC)
    Density eval.           ....       4.308 sec  ( 33.2% of XC)
    XC-Functional eval.     ....       0.414 sec  (  3.2% of XC)
    XC-Potential eval.      ....       6.050 sec  ( 46.7% of XC)
Diagonalization             ....       1.979 sec  (  2.9%)
Density matrix formation    ....       0.084 sec  (  0.1%)
Population analysis         ....       1.093 sec  (  1.6%)
Initial guess               ....       0.198 sec  (  0.3%)
Orbital Transformation      ....       0.000 sec  (  0.0%)
Orbital Orthonormalization  ....       0.000 sec  (  0.0%)
DIIS solution               ....       0.930 sec  (  1.4%)
Grid generation             ....       1.047 sec  (  1.5%)

Maximum memory used throughout the entire SCF-calculation: 105.3 MB

-------------------------   --------------------
FINAL SINGLE POINT ENERGY     -3013.383706577719
-------------------------   --------------------


                            ***************************************
                            *     ORCA property calculations      *
                            ***************************************

                                    ---------------------
                                    Active property flags
                                    ---------------------
   (+) Dipole Moment


------------------------------------------------------------------------------
                       ORCA ELECTRIC PROPERTIES CALCULATION
------------------------------------------------------------------------------

Dipole Moment Calculation                       ... on
Quadrupole Moment Calculation                   ... off
Polarizability Calculation                      ... off
GBWName                                         ... arbr_21_r2scan3c_wB97MV_ox.gbw
Electron density                                ... arbr_21_r2scan3c_wB97MV_ox.scfp
The origin for moment calculation is the CENTER OF MASS  = ( 0.456346, -0.046874 -0.000609)

-------------
DIPOLE MOMENT
-------------
                                X             Y             Z
Electronic contribution:     46.39598      -3.31479      -0.03951
Nuclear contribution   :    -48.37269       4.96867       0.06489
                        -----------------------------------------
Total Dipole Moment    :     -1.97671       1.65387       0.02538
                        -----------------------------------------
Magnitude (a.u.)       :      2.57746
Magnitude (Debye)      :      6.55139



--------------------
Rotational spectrum 
--------------------
 
Rotational constants in cm-1:     0.118472     0.009188     0.008541 
Rotational constants in MHz :  3551.694815   275.454746   256.050655 

 Dipole components along the rotational axes: 
x,y,z [a.u.] :     1.969882     1.661976     0.026985 
x,y,z [Debye]:     5.007041     4.224406     0.068591 

 

Timings for individual modules:

Sum of individual times         ...       69.795 sec (=   1.163 min)
GTO integral calculation        ...        0.668 sec (=   0.011 min)   1.0 %
SCF iterations                  ...       69.126 sec (=   1.152 min)  99.0 %
                             ****ORCA TERMINATED NORMALLY****
TOTAL RUN TIME: 0 days 0 hours 1 minutes 10 seconds 301 msec
