
                                 *****************
                                 * O   R   C   A *
                                 *****************

                                            #,                                       
                                            ###                                      
                                            ####                                     
                                            #####                                    
                                            ######                                   
                                           ########,                                 
                                     ,,################,,,,,                         
                               ,,#################################,,                 
                          ,,##########################################,,             
                       ,#########################################, ''#####,          
                    ,#############################################,,   '####,        
                  ,##################################################,,,,####,       
                ,###########''''           ''''###############################       
              ,#####''   ,,,,##########,,,,          '''####'''          '####       
            ,##' ,,,,###########################,,,                        '##       
           ' ,,###''''                  '''############,,,                           
         ,,##''                                '''############,,,,        ,,,,,,###''
      ,#''                                            '''#######################'''  
     '                                                          ''''####''''         
             ,#######,   #######,   ,#######,      ##                                
            ,#'     '#,  ##    ##  ,#'     '#,    #''#        ######   ,####,        
            ##       ##  ##   ,#'  ##            #'  '#       #        #'  '#        
            ##       ##  #######   ##           ,######,      #####,   #    #        
            '#,     ,#'  ##    ##  '#,     ,#' ,#      #,         ##   #,  ,#        
             '#######'   ##     ##  '#######'  #'      '#     #####' # '####'        



                  #######################################################
                  #                        -***-                        #
                  #          Department of theory and spectroscopy      #
                  #    Directorship and core code : Frank Neese         #
                  #        Max Planck Institute fuer Kohlenforschung    #
                  #                Kaiser Wilhelm Platz 1               #
                  #                 D-45470 Muelheim/Ruhr               #
                  #                      Germany                        #
                  #                                                     #
                  #                  All rights reserved                #
                  #                        -***-                        #
                  #######################################################


                         Program Version 5.0.4 -  RELEASE  -


 With contributions from (in alphabetic order):
   Daniel Aravena         : Magnetic Suceptibility
   Michael Atanasov       : Ab Initio Ligand Field Theory (pilot matlab implementation)
   Alexander A. Auer      : GIAO ZORA, VPT2 properties, NMR spectrum
   Ute Becker             : Parallelization
   Giovanni Bistoni       : ED, misc. LED, open-shell LED, HFLD
   Martin Brehm           : Molecular dynamics
   Dmytro Bykov           : SCF Hessian
   Vijay G. Chilkuri      : MRCI spin determinant printing, contributions to CSF-ICE
   Dipayan Datta          : RHF DLPNO-CCSD density
   Achintya Kumar Dutta   : EOM-CC, STEOM-CC
   Dmitry Ganyushin       : Spin-Orbit,Spin-Spin,Magnetic field MRCI
   Miquel Garcia          : C-PCM and meta-GGA Hessian, CC/C-PCM, Gaussian charge scheme
   Yang Guo               : DLPNO-NEVPT2, F12-NEVPT2, CIM, IAO-localization
   Andreas Hansen         : Spin unrestricted coupled pair/coupled cluster methods
   Benjamin Helmich-Paris : MC-RPA, TRAH-SCF, COSX integrals
   Lee Huntington         : MR-EOM, pCC
   Robert Izsak           : Overlap fitted RIJCOSX, COSX-SCS-MP3, EOM
   Marcus Kettner         : VPT2
   Christian Kollmar      : KDIIS, OOCD, Brueckner-CCSD(T), CCSD density, CASPT2, CASPT2-K
   Simone Kossmann        : Meta GGA functionals, TD-DFT gradient, OOMP2, MP2 Hessian
   Martin Krupicka        : Initial AUTO-CI
   Lucas Lang             : DCDCAS
   Marvin Lechner         : AUTO-CI (C++ implementation), FIC-MRCC
   Dagmar Lenk            : GEPOL surface, SMD
   Dimitrios Liakos       : Extrapolation schemes; Compound Job, initial MDCI parallelization
   Dimitrios Manganas     : Further ROCIS development; embedding schemes
   Dimitrios Pantazis     : SARC Basis sets
   Anastasios Papadopoulos: AUTO-CI, single reference methods and gradients
   Taras Petrenko         : DFT Hessian,TD-DFT gradient, ASA, ECA, R-Raman, ABS, FL, XAS/XES, NRVS
   Peter Pinski           : DLPNO-MP2, DLPNO-MP2 Gradient
   Christoph Reimann      : Effective Core Potentials
   Marius Retegan         : Local ZFS, SOC
   Christoph Riplinger    : Optimizer, TS searches, QM/MM, DLPNO-CCSD(T), (RO)-DLPNO pert. Triples
   Tobias Risthaus        : Range-separated hybrids, TD-DFT gradient, RPA, STAB
   Michael Roemelt        : Original ROCIS implementation
   Masaaki Saitow         : Open-shell DLPNO-CCSD energy and density
   Barbara Sandhoefer     : DKH picture change effects
   Avijit Sen             : IP-ROCIS
   Kantharuban Sivalingam : CASSCF convergence, NEVPT2, FIC-MRCI
   Bernardo de Souza      : ESD, SOC TD-DFT
   Georgi Stoychev        : AutoAux, RI-MP2 NMR, DLPNO-MP2 response
   Willem Van den Heuvel  : Paramagnetic NMR
   Boris Wezisla          : Elementary symmetry handling
   Frank Wennmohs         : Technical directorship


 We gratefully acknowledge several colleagues who have allowed us to
 interface, adapt or use parts of their codes:
   Stefan Grimme, W. Hujo, H. Kruse, P. Pracht,  : VdW corrections, initial TS optimization,
                  C. Bannwarth, S. Ehlert          DFT functionals, gCP, sTDA/sTD-DF
   Ed Valeev, F. Pavosevic, A. Kumar             : LibInt (2-el integral package), F12 methods
   Garnet Chan, S. Sharma, J. Yang, R. Olivares  : DMRG
   Ulf Ekstrom                                   : XCFun DFT Library
   Mihaly Kallay                                 : mrcc  (arbitrary order and MRCC methods)
   Jiri Pittner, Ondrej Demel                    : Mk-CCSD
   Frank Weinhold                                : gennbo (NPA and NBO analysis)
   Christopher J. Cramer and Donald G. Truhlar   : smd solvation model
   Lars Goerigk                                  : TD-DFT with DH, B97 family of functionals
   V. Asgeirsson, H. Jonsson                     : NEB implementation
   FAccTs GmbH                                   : IRC, NEB, NEB-TS, DLPNO-Multilevel, CI-OPT
                                                   MM, QMMM, 2- and 3-layer-ONIOM, Crystal-QMMM,
                                                   LR-CPCM, SF, NACMEs, symmetry and pop. for TD-DFT,
                                                   nearIR, NL-DFT gradient (VV10), updates on ESD,
                                                   ML-optimized integration grids
   S Lehtola, MJT Oliveira, MAL Marques          : LibXC Library
   Liviu Ungur et al                             : ANISO software


 Your calculation uses the libint2 library for the computation of 2-el integrals
 For citations please refer to: http://libint.valeyev.net

 Your ORCA version has been built with support for libXC version: 5.1.0
 For citations please refer to: https://tddft.org/programs/libxc/

 This ORCA versions uses:
   CBLAS   interface :  Fast vector & matrix operations
   LAPACKE interface :  Fast linear algebra routines
   SCALAPACK package :  Parallel linear algebra routines
   Shared memory     :  Shared parallel matrices
   BLAS/LAPACK       :  OpenBLAS 0.3.15  USE64BITINT DYNAMIC_ARCH NO_AFFINITY SkylakeX SINGLE_THREADED
        Core in use  :  SkylakeX
   Copyright (c) 2011-2014, The OpenBLAS Project


Your calculation utilizes the DFT-NL dispersion correction.
Cite in your paper:
Vydrov, O. A.; Van Voorhis, T. J. Chem. Phys. 2010, 133, 244103
Hujo, W.; Grimme, S. J. Chem. Theory Comput. 2011, 7, 3866 
   

================================================================================

----- Orbital basis set information -----
Your calculation utilizes the basis: def2-TZVPP
   F. Weigend and R. Ahlrichs, Phys. Chem. Chem. Phys. 7, 3297 (2005).

----- AuxJ basis set information -----
Your calculation utilizes the auxiliary basis: def2/J
   F. Weigend, Phys. Chem. Chem. Phys. 8, 1057 (2006).

================================================================================
                                        WARNINGS
                       Please study these warnings very carefully!
================================================================================

Using LibXC functional ID 531 : wB97M-V exchange-correlation functional
[ 1]  N. Mardirossian and M. Head-Gordon, J. Chem. Phys. 144, 214110 (2016)
Using LibXC functional ID 531 : wB97M-V exchange-correlation functional
[ 1]  N. Mardirossian and M. Head-Gordon, J. Chem. Phys. 144, 214110 (2016)

WARNING: B97M-V or wB97M-V functional requested.
  ===> : libXC variant has now been activated.
         Any manually given DFX/HFX/RangeSep scaling parameters are IGNORED!

Your calculation utilizes LibXC
 by S Lehtola, C Steigemann, MJT Oliveira & MAL Marques
Please cite in your paper:
 S Lehtola, C Steigemann, MJT Oliveira & MAL Marques, SoftwareX, 7, (2018), 1.
   


WARNING: your system is open-shell and RHF/RKS was chosen
  ===> : WILL SWITCH to UHF/UKS


INFO   : the flag for use of the SHARK integral package has been found!

================================================================================
                                       INPUT FILE
================================================================================
NAME = arbr_20_r2scan3c_wB97MV_ox.inp
|  1> %PAL NPROCS 16 END
|  2> %maxcore 4000
|  3> # arbr_20_r2scan3c.out
|  4> ! wB97m-v def2-TZVPP def2/J RIJCOSX Hirshfeld
|  5> * xyz 1 2
|  6>   Br        1.76825        -0.00000        -0.00000
|  7>    C       -0.11355         0.00000         0.00001
|  8>    C       -0.83134         1.18506         0.00002
|  9>    N       -2.15797         1.18628         0.00001
| 10>    C       -2.75470        -0.00000        -0.00005
| 11>    N       -2.15797        -1.18628         0.00001
| 12>    C       -0.83134        -1.18506         0.00001
| 13>    H       -0.32651         2.14471         0.00001
| 14>    H       -3.83867        -0.00000         0.00006
| 15>    H       -0.32651        -2.14471         0.00001
| 16> *
| 17> 
| 18>                          ****END OF INPUT****
================================================================================

                       ****************************
                       * Single Point Calculation *
                       ****************************

---------------------------------
CARTESIAN COORDINATES (ANGSTROEM)
---------------------------------
  Br     1.768250   -0.000000   -0.000000
  C     -0.113550    0.000000    0.000010
  C     -0.831340    1.185060    0.000020
  N     -2.157970    1.186280    0.000010
  C     -2.754700   -0.000000   -0.000050
  N     -2.157970   -1.186280    0.000010
  C     -0.831340   -1.185060    0.000010
  H     -0.326510    2.144710    0.000010
  H     -3.838670   -0.000000    0.000060
  H     -0.326510   -2.144710    0.000010

----------------------------
CARTESIAN COORDINATES (A.U.)
----------------------------
  NO LB      ZA    FRAG     MASS         X           Y           Z
   0 Br   35.0000    0    79.900    3.341508   -0.000000   -0.000000
   1 C     6.0000    0    12.011   -0.214578    0.000000    0.000019
   2 C     6.0000    0    12.011   -1.571005    2.239439    0.000038
   3 N     7.0000    0    14.007   -4.077972    2.241744    0.000019
   4 C     6.0000    0    12.011   -5.205629   -0.000000   -0.000094
   5 N     7.0000    0    14.007   -4.077972   -2.241744    0.000019
   6 C     6.0000    0    12.011   -1.571005   -2.239439    0.000019
   7 H     1.0000    0     1.008   -0.617014    4.052915    0.000019
   8 H     1.0000    0     1.008   -7.254035   -0.000000    0.000113
   9 H     1.0000    0     1.008   -0.617014   -4.052915    0.000019

--------------------------------
INTERNAL COORDINATES (ANGSTROEM)
--------------------------------
 Br     0   0   0     0.000000000000     0.00000000     0.00000000
 C      1   0   0     1.881800000027     0.00000000     0.00000000
 C      2   1   0     1.385492579482   121.20325972     0.00000000
 N      3   2   1     1.326630561008   121.25595024   179.99913829
 C      4   3   2     1.327910740562   116.65090652     0.00000000
 N      5   4   3     1.327910740562   126.59280565     0.00000000
 C      6   5   4     1.326630560970   116.65090650     0.00000000
 H      3   2   1     1.084334566220   121.04984013     0.00000000
 H      5   4   3     1.083970005581   116.70359658   179.99300531
 H      7   6   5     1.084334566174   117.69420962   180.00289658

---------------------------
INTERNAL COORDINATES (A.U.)
---------------------------
 Br     0   0   0     0.000000000000     0.00000000     0.00000000
 C      1   0   0     3.556086638863     0.00000000     0.00000000
 C      2   1   0     2.618201535801   121.20325972     0.00000000
 N      3   2   1     2.506968441195   121.25595024   179.99913829
 C      4   3   2     2.509387629955   116.65090652     0.00000000
 N      5   4   3     2.509387629955   126.59280565     0.00000000
 C      6   5   4     2.506968441124   116.65090650     0.00000000
 H      3   2   1     2.049095367701   121.04984013     0.00000000
 H      5   4   3     2.048406447934   116.70359658   179.99300531
 H      7   6   5     2.049095367613   117.69420962   180.00289658

---------------------
BASIS SET INFORMATION
---------------------
There are 4 groups of distinct atoms

 Group   1 Type Br  : 17s13p8d1f contracted to 6s5p4d1f pattern {842111/64111/5111/1}
 Group   2 Type C   : 11s6p2d1f contracted to 5s3p2d1f pattern {62111/411/11/1}
 Group   3 Type N   : 11s6p2d1f contracted to 5s3p2d1f pattern {62111/411/11/1}
 Group   4 Type H   : 5s2p1d contracted to 3s2p1d pattern {311/11/1}

Atom   0Br   basis set group =>   1
Atom   1C    basis set group =>   2
Atom   2C    basis set group =>   2
Atom   3N    basis set group =>   3
Atom   4C    basis set group =>   2
Atom   5N    basis set group =>   3
Atom   6C    basis set group =>   2
Atom   7H    basis set group =>   4
Atom   8H    basis set group =>   4
Atom   9H    basis set group =>   4
---------------------------------
AUXILIARY/J BASIS SET INFORMATION
---------------------------------
There are 4 groups of distinct atoms

 Group   1 Type Br  : 19s5p5d3f1g contracted to 8s4p3d2f1g pattern {121111111/2111/311/21/1}
 Group   2 Type C   : 12s5p4d2f1g contracted to 6s4p3d1f1g pattern {711111/2111/211/2/1}
 Group   3 Type N   : 12s5p4d2f1g contracted to 6s4p3d1f1g pattern {711111/2111/211/2/1}
 Group   4 Type H   : 5s2p1d contracted to 3s1p1d pattern {311/2/1}

Atom   0Br   basis set group =>   1
Atom   1C    basis set group =>   2
Atom   2C    basis set group =>   2
Atom   3N    basis set group =>   3
Atom   4C    basis set group =>   2
Atom   5N    basis set group =>   3
Atom   6C    basis set group =>   2
Atom   7H    basis set group =>   4
Atom   8H    basis set group =>   4
Atom   9H    basis set group =>   4


           ************************************************************
           *        Program running with 16 parallel MPI-processes    *
           *              working on a common directory               *
           ************************************************************
------------------------------------------------------------------------------
                           ORCA GTO INTEGRAL CALCULATION
                           -- RI-GTO INTEGRALS CHOSEN --
------------------------------------------------------------------------------
------------------------------------------------------------------------------
                   ___                                                        
                  /   \      - P O W E R E D   B Y -                         
                 /     \                                                     
                 |  |  |   _    _      __       _____    __    __             
                 |  |  |  | |  | |    /  \     |  _  \  |  |  /  |          
                  \  \/   | |  | |   /    \    | | | |  |  | /  /          
                 / \  \   | |__| |  /  /\  \   | |_| |  |  |/  /          
                |  |  |   |  __  | /  /__\  \  |    /   |      \           
                |  |  |   | |  | | |   __   |  |    \   |  |\   \          
                \     /   | |  | | |  |  |  |  | |\  \  |  | \   \       
                 \___/    |_|  |_| |__|  |__|  |_| \__\ |__|  \__/        
                                                                              
                      - O R C A' S   B I G   F R I E N D -                    
                                      &                                       
                       - I N T E G R A L  F E E D E R -                       
                                                                              
 v1 FN, 2020, v2 2021                                                         
------------------------------------------------------------------------------


Reading SHARK input file arbr_20_r2scan3c_wB97MV_ox.SHARKINP.tmp ... ok
----------------------
SHARK INTEGRAL PACKAGE
----------------------

Number of atoms                             ...     10
Number of basis functions                   ...    276
Number of shells                            ...    100
Maximum angular momentum                    ...      3
Integral batch strategy                     ... SHARK/LIBINT Hybrid
RI-J (if used) integral strategy            ... SPLIT-RIJ (Revised 2003 algorithm where possible)
Printlevel                                  ...      1
Contraction scheme used                     ... SEGMENTED contraction
Coulomb Range Separation                    ... NOT USED
Exchange Range Separation                   ... Long Range
   Mu parameter                             ...  0.300000
   Scaling (regular/separated)              ...  0.150000  0.850000
Finite Nucleus Model                        ... NOT USED
Auxiliary Coulomb fitting basis             ... AVAILABLE
   # of basis functions in Aux-J            ...    385
   # of shells in Aux-J                     ...    123
   Maximum angular momentum in Aux-J        ...      4
Auxiliary J/K fitting basis                 ... NOT available
Auxiliary Correlation fitting basis         ... NOT available
Auxiliary 'external' fitting basis          ... NOT available
Integral threshold                          ...     1.000000e-10
Primitive cut-off                           ...     1.000000e-11
Primitive pair pre-selection threshold      ...     1.000000e-11

Calculating pre-screening integrals         ... done (  0.0 sec) Dimension = 100
Organizing shell pair data                  ... done (  0.1 sec)
Shell pair information
Total number of shell pairs                 ...      5050
Shell pairs after pre-screening             ...      4627
Total number of primitive shell pairs       ...     17043
Primitive shell pairs kept                  ...     11620
          la=0 lb=0:    894 shell pairs
          la=1 lb=0:   1207 shell pairs
          la=1 lb=1:    417 shell pairs
          la=2 lb=0:    765 shell pairs
          la=2 lb=1:    517 shell pairs
          la=2 lb=2:    178 shell pairs
          la=3 lb=0:    296 shell pairs
          la=3 lb=1:    196 shell pairs
          la=3 lb=2:    129 shell pairs
          la=3 lb=3:     28 shell pairs

Calculating one electron integrals          ... done (  0.0 sec)
Calculating RI/J V-Matrix + Cholesky decomp.... done (  0.0 sec)
Calculating Nuclear repulsion               ... done (  0.0 sec) ENN=    440.895539983534 Eh

SHARK setup successfully completed in   0.2 seconds

Maximum memory used throughout the entire GTOINT-calculation: 22.0 MB


           ************************************************************
           *        Program running with 16 parallel MPI-processes    *
           *              working on a common directory               *
           ************************************************************
-------------------------------------------------------------------------------
                                 ORCA SCF
-------------------------------------------------------------------------------

------------
SCF SETTINGS
------------
Hamiltonian:
 Density Functional     Method          .... DFT(GTOs)
  Functional kind                       .... Exchange-Correlation
  Functional name                       .... wB97M-V exchange-correlation functional
  Functional family                     .... Hybrid MGGA
  Functional refs                              
    [ 0] N. Mardirossian and M. Head-Gordon, J. Chem. Phys. 144, 214110 (2016)
  Fraction of HF Exchange (short range) .... 0.1500
  Fraction of HF Exchange (long range)  .... 1.0000
  Range separation parameter mu         .... 0.3000
  Functional external parameters         .... 0
   Density functional embedding theory  .... OFF
 Long-range corrected/Screened/Range-Separated Hybrid DFT is turned on
   Amount of maximum screened exact exchange              ....  0.850000
   Range separation parameter mu (erf(mu*r12)/r12)        ....  0.300000
   NL short-range parameter             ....  6.000000
   NL long-range parameter              ....  0.010000
 RI-approximation to the Coulomb term is turned on
   Number of AuxJ basis functions       .... 385
   RIJ-COSX (HFX calculated with COS-X)).... on


General Settings:
 Integral files         IntName         .... arbr_20_r2scan3c_wB97MV_ox
 Hartree-Fock type      HFTyp           .... UHF
 Total Charge           Charge          ....    1
 Multiplicity           Mult            ....    2
 Number of Electrons    NEL             ....   75
 Basis Dimension        Dim             ....  276
 Nuclear Repulsion      ENuc            ....    440.8955399835 Eh

Convergence Acceleration:
 DIIS                   CNVDIIS         .... on
   Start iteration      DIISMaxIt       ....    12
   Startup error        DIISStart       ....  0.200000
   # of expansion vecs  DIISMaxEq       ....     5
   Bias factor          DIISBfac        ....   1.050
   Max. coefficient     DIISMaxC        ....  10.000
 Trust-Rad. Augm. Hess. CNVTRAH         .... auto
   Auto Start mean grad. ratio tolernc. ....  1.125000
   Auto Start start iteration           ....    20
   Auto Start num. interpolation iter.  ....    10
   Max. Number of Micro iterations      ....    16
   Max. Number of Macro iterations      .... Maxiter - #DIIS iter
   Number of Davidson start vectors     ....     2
   Converg. threshold I  (grad. norm)   ....   5.000e-05
   Converg. threshold II (energy diff.) ....   1.000e-06
   Grad. Scal. Fac. for Micro threshold ....   0.100
   Minimum threshold for Micro iter.    ....   0.010
   NR start threshold (gradient norm)   ....   0.001
   Initial trust radius                 ....   0.400
   Minimum AH scaling param. (alpha)    ....   1.000
   Maximum AH scaling param. (alpha)    .... 1000.000
   Orbital update algorithm             .... Taylor
   White noise on init. David. guess    .... on
   Maximum white noise                  ....   0.010
   Quad. conv. algorithm                .... NR
 SOSCF                  CNVSOSCF        .... off
 Level Shifting         CNVShift        .... on
   Level shift para.    LevelShift      ....    0.2500
   Turn off err/grad.   ShiftErr        ....    0.0010
 Zerner damping         CNVZerner       .... off
 Static damping         CNVDamp         .... on
   Fraction old density DampFac         ....    0.7000
   Max. Damping (<1)    DampMax         ....    0.9800
   Min. Damping (>=0)   DampMin         ....    0.0000
   Turn off err/grad.   DampErr         ....    0.1000
 Fernandez-Rico         CNVRico         .... off

SCF Procedure:
 Maximum # iterations   MaxIter         ....   125
 SCF integral mode      SCFMode         .... Direct
   Integral package                     .... SHARK and LIBINT hybrid scheme
 Reset frequency        DirectResetFreq ....    20
 Integral Threshold     Thresh          ....  1.000e-10 Eh
 Primitive CutOff       TCut            ....  1.000e-11 Eh

Convergence Tolerance:
 Convergence Check Mode ConvCheckMode   .... Total+1el-Energy
 Convergence forced     ConvForced      .... 0
 Energy Change          TolE            ....  1.000e-06 Eh
 1-El. energy change                    ....  1.000e-03 Eh
 DIIS Error             TolErr          ....  1.000e-06


Diagonalization of the overlap matrix:
Smallest eigenvalue                        ... 1.016e-04
Time for diagonalization                   ...    0.010 sec
Threshold for overlap eigenvalues          ... 1.000e-08
Number of eigenvalues below threshold      ... 0
Time for construction of square roots      ...    0.005 sec
Total time needed                          ...    0.015 sec

Time for model grid setup =    0.056 sec

------------------------------
INITIAL GUESS: MODEL POTENTIAL
------------------------------
Loading Hartree-Fock densities                     ... done
Calculating cut-offs                               ... done
Initializing the effective Hamiltonian             ... done
Setting up the integral package (SHARK)            ... done
Starting the Coulomb interaction                   ... done (   0.0 sec)
Reading the grid                                   ... done
Mapping shells                                     ... done
Starting the XC term evaluation                    ... done (   0.0 sec)
  promolecular density results
     # of electrons  =     75.998988030
     EX              =   -123.697606665
     EC              =     -3.094496431
     EX+EC           =   -126.792103096
Transforming the Hamiltonian                       ... done (   0.0 sec)
Diagonalizing the Hamiltonian                      ... done (   0.0 sec)
Back transforming the eigenvectors                 ... done (   0.0 sec)
Now organizing SCF variables                       ... done
                      ------------------
                      INITIAL GUESS DONE (   0.1 sec)
                      ------------------
-------------------
DFT GRID GENERATION
-------------------

General Integration Accuracy     IntAcc      ... 4.388
Radial Grid Type                 RadialGrid  ... OptM3 with GC (2021)
Angular Grid (max. ang.)         AngularGrid ... 4 (Lebedev-302)
Angular grid pruning method      GridPruning ... 4 (adaptive)
Weight generation scheme         WeightScheme... Becke
Basis function cutoff            BFCut       ... 1.0000e-10
Integration weight cutoff        WCut        ... 1.0000e-14
Angular grids for H and He will be reduced by one unit
Partially contracted basis set               ... off
Rotationally invariant grid construction     ... off

Total number of grid points                  ...    57262
Total number of batches                      ...      899
Average number of points per batch           ...       63
Average number of grid points per atom       ...     5726
Time for grid setup =    0.255 sec

--------------------
COSX GRID GENERATION
--------------------

GRIDX 1
-------
General Integration Accuracy     IntAcc      ... 3.816
Radial Grid Type                 RadialGrid  ... OptM3 with GC (2021)
Angular Grid (max. ang.)         AngularGrid ... 1 (Lebedev-50)
Angular grid pruning method      GridPruning ... 4 (adaptive)
Weight generation scheme         WeightScheme... Becke
Basis function cutoff            BFCut       ... 1.0000e-10
Integration weight cutoff        WCut        ... 1.0000e-14
Angular grids for H and He will be reduced by one unit
Partially contracted basis set               ... on
Rotationally invariant grid construction     ... off

Total number of grid points                  ...     7070
Total number of batches                      ...      115
Average number of points per batch           ...       61
Average number of grid points per atom       ...      707
UseSFitting                                  ... on

GRIDX 2
-------
General Integration Accuracy     IntAcc      ... 4.020
Radial Grid Type                 RadialGrid  ... OptM3 with GC (2021)
Angular Grid (max. ang.)         AngularGrid ... 2 (Lebedev-110)
Angular grid pruning method      GridPruning ... 4 (adaptive)
Weight generation scheme         WeightScheme... Becke
Basis function cutoff            BFCut       ... 1.0000e-10
Integration weight cutoff        WCut        ... 1.0000e-14
Angular grids for H and He will be reduced by one unit
Partially contracted basis set               ... on
Rotationally invariant grid construction     ... off

Total number of grid points                  ...    15886
Total number of batches                      ...      254
Average number of points per batch           ...       62
Average number of grid points per atom       ...     1589
UseSFitting                                  ... on

GRIDX 3
-------
General Integration Accuracy     IntAcc      ... 4.338
Radial Grid Type                 RadialGrid  ... OptM3 with GC (2021)
Angular Grid (max. ang.)         AngularGrid ... 3 (Lebedev-194)
Angular grid pruning method      GridPruning ... 4 (adaptive)
Weight generation scheme         WeightScheme... Becke
Basis function cutoff            BFCut       ... 1.0000e-10
Integration weight cutoff        WCut        ... 1.0000e-14
Angular grids for H and He will be reduced by one unit
Partially contracted basis set               ... on
Rotationally invariant grid construction     ... off

Total number of grid points                  ...    35409
Total number of batches                      ...      558
Average number of points per batch           ...       63
Average number of grid points per atom       ...     3541
UseSFitting                                  ... on

Time for X-Grid setup             =    0.186 sec

--------------
SCF ITERATIONS
--------------
ITER       Energy         Delta-E        Max-DP      RMS-DP      [F,P]     Damp
               ***  Starting incremental Fock matrix formation  ***
  0  -2837.4875121843   0.000000000000 0.02715772  0.00044484  0.0972788 0.7000
  1  -2837.5679068629  -0.080394678621 0.01818726  0.00035387  0.0524243 0.7000
                               ***Turning on DIIS***
  2  -2837.6064435457  -0.038536682782 0.04374250  0.00071431  0.0232307 0.0000
  3  -2837.6654162775  -0.058972731817 0.02589408  0.00027819  0.0223986 0.0000
  4  -2837.6795694528  -0.014153175317 0.00708592  0.00012513  0.0067458 0.0000
  5  -2837.6807668460  -0.001197393136 0.00494209  0.00006703  0.0063225 0.0000
  6  -2837.6813252113  -0.000558365322 0.00482692  0.00004976  0.0046164 0.0000
  7  -2837.6816963221  -0.000371110832 0.00606633  0.00004826  0.0046436 0.0000
  8  -2837.6819971491  -0.000300826990 0.00517350  0.00003546  0.0035438 0.0000
  9  -2837.6821728834  -0.000175734261 0.00456758  0.00002946  0.0028476 0.0000
 10  -2837.6822812709  -0.000108387558 0.00379390  0.00002552  0.0018100 0.0000
 11  -2837.6823414559  -0.000060185022 0.00241122  0.00001485  0.0013448 0.0000
 12  -2837.6823669704  -0.000025514481 0.00320833  0.00002013  0.0006986 0.0000
               *** Restarting incremental Fock matrix formation ***
                                   *** Resetting DIIS ***
 13  -2837.6823793751  -0.000012404665 0.00020233  0.00000421  0.0001784 0.0000
 14  -2837.6823803658  -0.000000990668 0.00011478  0.00000114  0.0001850 0.0000
 15  -2837.6823807402  -0.000000374456 0.00026975  0.00000248  0.0000994 0.0000
                 **** Energy Check signals convergence ****

               *****************************************************
               *                     SUCCESS                       *
               *           SCF CONVERGED AFTER  16 CYCLES          *
               *****************************************************

Old exchange energy                            =    -28.860422860 Eh
New exchange energy                            =    -28.860429554 Eh
Exchange energy change after final integration =     -0.000006694 Eh
Total energy after final integration           =  -2837.682387995 Eh
Final COS-X integration done in                =     2.076 sec

------------------
NL GRID GENERATION
------------------

General Integration Accuracy     IntAcc      ... 4.004
Radial Grid Type                 RadialGrid  ... OptM3 with GC (2021)
Angular Grid (max. ang.)         AngularGrid ... 2 (Lebedev-110)
Angular grid pruning method      GridPruning ... 4 (adaptive)
Weight generation scheme         WeightScheme... Becke
Basis function cutoff            BFCut       ... 1.0000e-10
Integration weight cutoff        WCut        ... 1.0000e-14
Angular grids for H and He will be reduced by one unit
Partially contracted basis set               ... off
Rotationally invariant grid construction     ... off

Total number of grid points                  ...    20608
Total number of batches                      ...      328
Average number of points per batch           ...       62
Average number of grid points per atom       ...     2061
Final grid set up in    0.1 sec

-------------------------------------------------------------------------------
                    post-SCF DFT-NL dispersion correction                      
-------------------------------------------------------------------------------

SCF Energy:   -2837.682387995 
NL    Energy:  0.300264601 
SC+NL Energy: -2837.382123394 
NL done in:    0.1 sec
-------------------------------------------------------------------------------

----------------
TOTAL SCF ENERGY
----------------

Total Energy       :        -2837.38212339 Eh          -77209.09281 eV

Components:
Nuclear Repulsion  :          440.89553998 Eh           11997.37758 eV
Electronic Energy  :        -3278.27766338 Eh          -89206.47039 eV
One Electron Energy:        -4796.61132220 Eh         -130522.42971 eV
Two Electron Energy:         1518.33365883 Eh           41315.95932 eV
Max COSX asymmetry :            0.00000145 Eh               0.00004 eV

Virial components:
Potential Energy   :        -5671.12802172 Eh         -154319.23891 eV
Kinetic Energy     :         2833.74589833 Eh           77110.14610 eV
Virial Ratio       :            2.00128319


DFT components:
N(Alpha)           :       37.999992073849 electrons
N(Beta)            :       36.999995331156 electrons
N(Total)           :       74.999987405005 electrons
NL Energy, E(C,NL) :        0.300264600935 Eh       
E(XC)              :      -98.623360635640 Eh       
DFET-embed. en.    :        0.000000000000 Eh       

---------------
SCF CONVERGENCE
---------------

  Last Energy change         ...   -5.6133e-07  Tolerance :   1.0000e-06
  Last MAX-Density change    ...    0.0000e+00  Tolerance :   1.0000e-05
  Last RMS-Density change    ...    0.0000e+00  Tolerance :   1.0000e-06
  Last DIIS Error            ...    5.7316e-05  Tolerance :   1.0000e-06

             **** THE GBW FILE WAS UPDATED (arbr_20_r2scan3c_wB97MV_ox.gbw) ****
             **** DENSITY arbr_20_r2scan3c_wB97MV_ox.scfp WAS UPDATED ****
             **** ENERGY FILE WAS UPDATED (arbr_20_r2scan3c_wB97MV_ox.en.tmp) ****
----------------------
UHF SPIN CONTAMINATION
----------------------

Warning: in a DFT calculation there is little theoretical justification to 
         calculate <S**2> as in Hartree-Fock theory. We will do it anyways
         but you should keep in mind that the values have only limited relevance

Expectation value of <S**2>     :     0.761189
Ideal value S*(S+1) for S=0.5   :     0.750000
Deviation                       :     0.011189

             **** THE GBW FILE WAS UPDATED (arbr_20_r2scan3c_wB97MV_ox.gbw) ****
             **** DENSITY arbr_20_r2scan3c_wB97MV_ox.scfp WAS UPDATED ****
----------------
ORBITAL ENERGIES
----------------
                 SPIN UP ORBITALS
  NO   OCC          E(Eh)            E(eV) 
   0   1.0000    -483.783169    -13164.4093 
   1   1.0000     -63.086070     -1716.6592 
   2   1.0000     -56.772444     -1544.8567 
   3   1.0000     -56.772376     -1544.8549 
   4   1.0000     -56.769976     -1544.7896 
   5   1.0000     -14.733729      -400.9252 
   6   1.0000     -14.733722      -400.9249 
   7   1.0000     -10.671798      -290.3944 
   8   1.0000     -10.650539      -289.8159 
   9   1.0000     -10.640436      -289.5410 
  10   1.0000     -10.640429      -289.5408 
  11   1.0000      -9.168723      -249.4936 
  12   1.0000      -6.952401      -189.1845 
  13   1.0000      -6.949965      -189.1182 
  14   1.0000      -6.939923      -188.8449 
  15   1.0000      -3.035769       -82.6075 
  16   1.0000      -3.035220       -82.5925 
  17   1.0000      -3.027818       -82.3911 
  18   1.0000      -3.025271       -82.3218 
  19   1.0000      -3.023475       -82.2729 
  20   1.0000      -1.354612       -36.8609 
  21   1.0000      -1.246252       -33.9122 
  22   1.0000      -1.217819       -33.1385 
  23   1.0000      -1.123073       -30.5604 
  24   1.0000      -1.018199       -27.7066 
  25   1.0000      -0.992602       -27.0101 
  26   1.0000      -0.873209       -23.7612 
  27   1.0000      -0.869851       -23.6699 
  28   1.0000      -0.785614       -21.3777 
  29   1.0000      -0.780368       -21.2349 
  30   1.0000      -0.755849       -20.5677 
  31   1.0000      -0.737582       -20.0706 
  32   1.0000      -0.690613       -18.7925 
  33   1.0000      -0.642274       -17.4772 
  34   1.0000      -0.638378       -17.3711 
  35   1.0000      -0.623906       -16.9774 
  36   1.0000      -0.600759       -16.3475 
  37   1.0000      -0.568822       -15.4784 
  38   0.0000      -0.187180        -5.0934 
  39   0.0000      -0.184841        -5.0298 
  40   0.0000      -0.148792        -4.0488 
  41   0.0000      -0.046668        -1.2699 
  42   0.0000      -0.018047        -0.4911 
  43   0.0000      -0.013494        -0.3672 
  44   0.0000      -0.010790        -0.2936 
  45   0.0000       0.002384         0.0649 
  46   0.0000       0.013148         0.3578 
  47   0.0000       0.037778         1.0280 
  48   0.0000       0.068495         1.8639 
  49   0.0000       0.074794         2.0352 
  50   0.0000       0.082703         2.2505 
  51   0.0000       0.096130         2.6158 
  52   0.0000       0.101302         2.7566 
  53   0.0000       0.106122         2.8877 
  54   0.0000       0.121392         3.3033 
  55   0.0000       0.124894         3.3985 
  56   0.0000       0.143710         3.9105 
  57   0.0000       0.172872         4.7041 
  58   0.0000       0.187549         5.1035 
  59   0.0000       0.188492         5.1291 
  60   0.0000       0.211322         5.7504 
  61   0.0000       0.214233         5.8296 
  62   0.0000       0.218387         5.9426 
  63   0.0000       0.237766         6.4700 
  64   0.0000       0.237901         6.4736 
  65   0.0000       0.263784         7.1779 
  66   0.0000       0.274114         7.4590 
  67   0.0000       0.305347         8.3089 
  68   0.0000       0.307374         8.3641 
  69   0.0000       0.331407         9.0180 
  70   0.0000       0.335306         9.1241 
  71   0.0000       0.347413         9.4536 
  72   0.0000       0.356598         9.7035 
  73   0.0000       0.365208         9.9378 
  74   0.0000       0.414557        11.2807 
  75   0.0000       0.421519        11.4701 
  76   0.0000       0.442111        12.0305 
  77   0.0000       0.450865        12.2687 
  78   0.0000       0.466540        12.6952 
  79   0.0000       0.480988        13.0883 
  80   0.0000       0.507155        13.8004 
  81   0.0000       0.517081        14.0705 
  82   0.0000       0.519956        14.1487 
  83   0.0000       0.537979        14.6391 
  84   0.0000       0.543275        14.7833 
  85   0.0000       0.548207        14.9175 
  86   0.0000       0.589992        16.0545 
  87   0.0000       0.597593        16.2613 
  88   0.0000       0.619185        16.8489 
  89   0.0000       0.620714        16.8905 
  90   0.0000       0.687984        18.7210 
  91   0.0000       0.766747        20.8642 
  92   0.0000       0.769699        20.9446 
  93   0.0000       0.780454        21.2372 
  94   0.0000       0.785712        21.3803 
  95   0.0000       0.816037        22.2055 
  96   0.0000       0.828645        22.5486 
  97   0.0000       0.833118        22.6703 
  98   0.0000       0.874974        23.8093 
  99   0.0000       0.912839        24.8396 
 100   0.0000       0.913722        24.8636 
 101   0.0000       0.943271        25.6677 
 102   0.0000       0.996968        27.1289 
 103   0.0000       1.010198        27.4889 
 104   0.0000       1.034581        28.1524 
 105   0.0000       1.056547        28.7501 
 106   0.0000       1.082159        29.4471 
 107   0.0000       1.093062        29.7437 
 108   0.0000       1.146131        31.1878 
 109   0.0000       1.173115        31.9221 
 110   0.0000       1.200288        32.6615 
 111   0.0000       1.220260        33.2050 
 112   0.0000       1.249372        33.9971 
 113   0.0000       1.261402        34.3245 
 114   0.0000       1.263379        34.3783 
 115   0.0000       1.291339        35.1391 
 116   0.0000       1.293264        35.1915 
 117   0.0000       1.294677        35.2299 
 118   0.0000       1.300584        35.3907 
 119   0.0000       1.306360        35.5479 
 120   0.0000       1.330673        36.2095 
 121   0.0000       1.334328        36.3089 
 122   0.0000       1.339330        36.4450 
 123   0.0000       1.355218        36.8774 
 124   0.0000       1.366718        37.1903 
 125   0.0000       1.380225        37.5578 
 126   0.0000       1.393913        37.9303 
 127   0.0000       1.425658        38.7941 
 128   0.0000       1.434398        39.0319 
 129   0.0000       1.454064        39.5671 
 130   0.0000       1.462860        39.8064 
 131   0.0000       1.492441        40.6114 
 132   0.0000       1.516452        41.2648 
 133   0.0000       1.527772        41.5728 
 134   0.0000       1.540475        41.9185 
 135   0.0000       1.542745        41.9802 
 136   0.0000       1.545811        42.0637 
 137   0.0000       1.578915        42.9645 
 138   0.0000       1.589044        43.2401 
 139   0.0000       1.601685        43.5841 
 140   0.0000       1.634462        44.4760 
 141   0.0000       1.637126        44.5485 
 142   0.0000       1.682156        45.7738 
 143   0.0000       1.723444        46.8973 
 144   0.0000       1.748587        47.5815 
 145   0.0000       1.758959        47.8637 
 146   0.0000       1.861586        50.6563 
 147   0.0000       1.879499        51.1438 
 148   0.0000       1.941022        52.8179 
 149   0.0000       1.993603        54.2487 
 150   0.0000       2.000778        54.4439 
 151   0.0000       2.014387        54.8143 
 152   0.0000       2.098419        57.1009 
 153   0.0000       2.118259        57.6408 
 154   0.0000       2.181668        59.3662 
 155   0.0000       2.235282        60.8251 
 156   0.0000       2.252157        61.2843 
 157   0.0000       2.272901        61.8488 
 158   0.0000       2.360239        64.2254 
 159   0.0000       2.365073        64.3569 
 160   0.0000       2.369759        64.4844 
 161   0.0000       2.411227        65.6128 
 162   0.0000       2.488419        67.7133 
 163   0.0000       2.535321        68.9896 
 164   0.0000       2.556607        69.5688 
 165   0.0000       2.605537        70.9003 
 166   0.0000       2.614627        71.1476 
 167   0.0000       2.627663        71.5023 
 168   0.0000       2.651901        72.1619 
 169   0.0000       2.661808        72.4315 
 170   0.0000       2.741438        74.5983 
 171   0.0000       2.743728        74.6606 
 172   0.0000       2.753819        74.9352 
 173   0.0000       2.760233        75.1098 
 174   0.0000       2.762535        75.1724 
 175   0.0000       2.794412        76.0398 
 176   0.0000       2.809689        76.4555 
 177   0.0000       2.838935        77.2513 
 178   0.0000       2.855916        77.7134 
 179   0.0000       2.884798        78.4993 
 180   0.0000       2.894091        78.7522 
 181   0.0000       2.929822        79.7245 
 182   0.0000       2.948903        80.2437 
 183   0.0000       3.017457        82.1092 
 184   0.0000       3.042263        82.7842 
 185   0.0000       3.060358        83.2766 
 186   0.0000       3.066372        83.4402 
 187   0.0000       3.157257        85.9133 
 188   0.0000       3.159431        85.9725 
 189   0.0000       3.168405        86.2167 
 190   0.0000       3.169059        86.2345 
 191   0.0000       3.170434        86.2719 
 192   0.0000       3.230978        87.9194 
 193   0.0000       3.273140        89.0667 
 194   0.0000       3.282356        89.3175 
 195   0.0000       3.290004        89.5256 
 196   0.0000       3.296681        89.7072 
 197   0.0000       3.339047        90.8601 
 198   0.0000       3.394869        92.3791 
 199   0.0000       3.405470        92.6675 
 200   0.0000       3.432013        93.3898 
 201   0.0000       3.473559        94.5203 
 202   0.0000       3.480247        94.7023 
 203   0.0000       3.529543        96.0438 
 204   0.0000       3.550092        96.6029 
 205   0.0000       3.620326        98.5141 
 206   0.0000       3.624857        98.6374 
 207   0.0000       3.644676        99.1767 
 208   0.0000       3.646591        99.2288 
 209   0.0000       3.658492        99.5526 
 210   0.0000       3.663899        99.6998 
 211   0.0000       3.748446       102.0004 
 212   0.0000       3.761154       102.3462 
 213   0.0000       3.784807       102.9898 
 214   0.0000       3.816993       103.8656 
 215   0.0000       3.842696       104.5651 
 216   0.0000       3.864066       105.1466 
 217   0.0000       3.888994       105.8249 
 218   0.0000       3.939424       107.1972 
 219   0.0000       3.957991       107.7024 
 220   0.0000       3.982831       108.3784 
 221   0.0000       3.991941       108.6262 
 222   0.0000       4.010810       109.1397 
 223   0.0000       4.013110       109.2023 
 224   0.0000       4.029133       109.6383 
 225   0.0000       4.091489       111.3351 
 226   0.0000       4.175126       113.6110 
 227   0.0000       4.229232       115.0832 
 228   0.0000       4.233566       115.2012 
 229   0.0000       4.244580       115.5009 
 230   0.0000       4.290865       116.7604 
 231   0.0000       4.311826       117.3308 
 232   0.0000       4.312918       117.3605 
 233   0.0000       4.457879       121.3050 
 234   0.0000       4.461953       121.4159 
 235   0.0000       4.463596       121.4606 
 236   0.0000       4.482854       121.9847 
 237   0.0000       4.609957       125.4433 
 238   0.0000       4.615522       125.5947 
 239   0.0000       4.684620       127.4750 
 240   0.0000       4.731849       128.7602 
 241   0.0000       4.763259       129.6149 
 242   0.0000       4.786472       130.2465 
 243   0.0000       4.802990       130.6960 
 244   0.0000       4.834586       131.5558 
 245   0.0000       4.865340       132.3926 
 246   0.0000       4.903558       133.4326 
 247   0.0000       4.935274       134.2956 
 248   0.0000       4.941087       134.4538 
 249   0.0000       4.948277       134.6495 
 250   0.0000       4.974458       135.3619 
 251   0.0000       5.006366       136.2301 
 252   0.0000       5.086607       138.4136 
 253   0.0000       5.129255       139.5741 
 254   0.0000       5.192687       141.3002 
 255   0.0000       5.228282       142.2688 
 256   0.0000       5.238790       142.5547 
 257   0.0000       5.294355       144.0667 
 258   0.0000       5.305538       144.3710 
 259   0.0000       5.307639       144.4282 
 260   0.0000       5.345188       145.4500 
 261   0.0000       5.352207       145.6410 
 262   0.0000       5.459014       148.5473 
 263   0.0000       5.595359       152.2575 
 264   0.0000       5.611910       152.7078 
 265   0.0000       5.858411       159.4155 
 266   0.0000       6.002421       163.3342 
 267   0.0000       6.050114       164.6320 
 268   0.0000       6.435736       175.1253 
 269   0.0000       7.632895       207.7016 
 270   0.0000      22.808560       620.6525 
 271   0.0000      23.261187       632.9691 
 272   0.0000      23.514444       639.8605 
 273   0.0000      23.526991       640.2020 
 274   0.0000      32.459522       883.2685 
 275   0.0000      32.693149       889.6258 

                 SPIN DOWN ORBITALS
  NO   OCC          E(Eh)            E(eV) 
   0   1.0000    -483.781839    -13164.3731 
   1   1.0000     -63.085658     -1716.6480 
   2   1.0000     -56.771971     -1544.8439 
   3   1.0000     -56.769518     -1544.7771 
   4   1.0000     -56.769490     -1544.7763 
   5   1.0000     -14.734285      -400.9403 
   6   1.0000     -14.734275      -400.9400 
   7   1.0000     -10.667945      -290.2896 
   8   1.0000     -10.647429      -289.7313 
   9   1.0000     -10.638871      -289.4984 
  10   1.0000     -10.638857      -289.4980 
  11   1.0000      -9.167043      -249.4479 
  12   1.0000      -6.951707      -189.1656 
  13   1.0000      -6.945134      -188.9867 
  14   1.0000      -6.939142      -188.8237 
  15   1.0000      -3.033406       -82.5432 
  16   1.0000      -3.032296       -82.5130 
  17   1.0000      -3.027405       -82.3799 
  18   1.0000      -3.022225       -82.2389 
  19   1.0000      -3.021502       -82.2192 
  20   1.0000      -1.350775       -36.7564 
  21   1.0000      -1.245426       -33.8898 
  22   1.0000      -1.206217       -32.8228 
  23   1.0000      -1.106686       -30.1144 
  24   1.0000      -1.012872       -27.5617 
  25   1.0000      -0.986237       -26.8369 
  26   1.0000      -0.869463       -23.6593 
  27   1.0000      -0.866420       -23.5765 
  28   1.0000      -0.772796       -21.0288 
  29   1.0000      -0.762102       -20.7378 
  30   1.0000      -0.753651       -20.5079 
  31   1.0000      -0.735175       -20.0051 
  32   1.0000      -0.638941       -17.3865 
  33   1.0000      -0.636154       -17.3106 
  34   1.0000      -0.635821       -17.3016 
  35   1.0000      -0.622764       -16.9463 
  36   1.0000      -0.568545       -15.4709 
  37   0.0000      -0.364650        -9.9226 
  38   0.0000      -0.170353        -4.6355 
  39   0.0000      -0.157617        -4.2890 
  40   0.0000      -0.140823        -3.8320 
  41   0.0000      -0.045485        -1.2377 
  42   0.0000      -0.016848        -0.4585 
  43   0.0000      -0.012360        -0.3363 
  44   0.0000      -0.004348        -0.1183 
  45   0.0000       0.004056         0.1104 
  46   0.0000       0.015932         0.4335 
  47   0.0000       0.039551         1.0762 
  48   0.0000       0.077654         2.1131 
  49   0.0000       0.078690         2.1413 
  50   0.0000       0.083711         2.2779 
  51   0.0000       0.096629         2.6294 
  52   0.0000       0.103118         2.8060 
  53   0.0000       0.112081         3.0499 
  54   0.0000       0.124927         3.3994 
  55   0.0000       0.126388         3.4392 
  56   0.0000       0.152452         4.1484 
  57   0.0000       0.178135         4.8473 
  58   0.0000       0.189996         5.1701 
  59   0.0000       0.195688         5.3249 
  60   0.0000       0.217614         5.9216 
  61   0.0000       0.218332         5.9411 
  62   0.0000       0.226604         6.1662 
  63   0.0000       0.241089         6.5604 
  64   0.0000       0.243625         6.6294 
  65   0.0000       0.267205         7.2710 
  66   0.0000       0.276872         7.5341 
  67   0.0000       0.307139         8.3577 
  68   0.0000       0.309564         8.4237 
  69   0.0000       0.336415         9.1543 
  70   0.0000       0.339150         9.2288 
  71   0.0000       0.347286         9.4501 
  72   0.0000       0.357484         9.7276 
  73   0.0000       0.368934        10.0392 
  74   0.0000       0.415726        11.3125 
  75   0.0000       0.425246        11.5715 
  76   0.0000       0.445914        12.1339 
  77   0.0000       0.454227        12.3601 
  78   0.0000       0.468569        12.7504 
  79   0.0000       0.483407        13.1542 
  80   0.0000       0.508064        13.8251 
  81   0.0000       0.521182        14.1821 
  82   0.0000       0.521506        14.1909 
  83   0.0000       0.546155        14.8616 
  84   0.0000       0.546640        14.8748 
  85   0.0000       0.551343        15.0028 
  86   0.0000       0.593221        16.1424 
  87   0.0000       0.598221        16.2784 
  88   0.0000       0.622029        16.9263 
  89   0.0000       0.625423        17.0186 
  90   0.0000       0.692303        18.8385 
  91   0.0000       0.772733        21.0271 
  92   0.0000       0.776909        21.1408 
  93   0.0000       0.787282        21.4230 
  94   0.0000       0.787796        21.4370 
  95   0.0000       0.822037        22.3688 
  96   0.0000       0.832949        22.6657 
  97   0.0000       0.836004        22.7488 
  98   0.0000       0.878601        23.9079 
  99   0.0000       0.916674        24.9440 
 100   0.0000       0.920544        25.0493 
 101   0.0000       0.950355        25.8605 
 102   0.0000       1.001843        27.2615 
 103   0.0000       1.013345        27.5745 
 104   0.0000       1.042436        28.3661 
 105   0.0000       1.060643        28.8616 
 106   0.0000       1.087372        29.5889 
 107   0.0000       1.101211        29.9655 
 108   0.0000       1.148809        31.2607 
 109   0.0000       1.178518        32.0691 
 110   0.0000       1.213026        33.0081 
 111   0.0000       1.226212        33.3669 
 112   0.0000       1.261638        34.3309 
 113   0.0000       1.266606        34.4661 
 114   0.0000       1.267468        34.4896 
 115   0.0000       1.296584        35.2818 
 116   0.0000       1.297488        35.3065 
 117   0.0000       1.302073        35.4312 
 118   0.0000       1.308465        35.6051 
 119   0.0000       1.315245        35.7896 
 120   0.0000       1.337757        36.4022 
 121   0.0000       1.343928        36.5701 
 122   0.0000       1.344443        36.5841 
 123   0.0000       1.365266        37.1508 
 124   0.0000       1.384362        37.6704 
 125   0.0000       1.388020        37.7699 
 126   0.0000       1.410313        38.3766 
 127   0.0000       1.439513        39.1711 
 128   0.0000       1.443035        39.2670 
 129   0.0000       1.458744        39.6944 
 130   0.0000       1.479806        40.2676 
 131   0.0000       1.497948        40.7612 
 132   0.0000       1.523882        41.4669 
 133   0.0000       1.531206        41.6662 
 134   0.0000       1.545599        42.0579 
 135   0.0000       1.551491        42.2182 
 136   0.0000       1.556645        42.3585 
 137   0.0000       1.587133        43.1881 
 138   0.0000       1.594675        43.3933 
 139   0.0000       1.605215        43.6801 
 140   0.0000       1.642219        44.6871 
 141   0.0000       1.648274        44.8518 
 142   0.0000       1.685019        45.8517 
 143   0.0000       1.728904        47.0459 
 144   0.0000       1.761830        47.9418 
 145   0.0000       1.763934        47.9991 
 146   0.0000       1.865094        50.7518 
 147   0.0000       1.883915        51.2639 
 148   0.0000       1.944534        52.9135 
 149   0.0000       2.003745        54.5247 
 150   0.0000       2.004267        54.5389 
 151   0.0000       2.020457        54.9794 
 152   0.0000       2.099122        57.1200 
 153   0.0000       2.123560        57.7850 
 154   0.0000       2.189170        59.5704 
 155   0.0000       2.238869        60.9227 
 156   0.0000       2.255855        61.3849 
 157   0.0000       2.275760        61.9266 
 158   0.0000       2.373653        64.5904 
 159   0.0000       2.375607        64.6435 
 160   0.0000       2.377781        64.7027 
 161   0.0000       2.426041        66.0159 
 162   0.0000       2.496271        67.9270 
 163   0.0000       2.553730        69.4905 
 164   0.0000       2.560101        69.6639 
 165   0.0000       2.610220        71.0277 
 166   0.0000       2.621768        71.3419 
 167   0.0000       2.642796        71.9141 
 168   0.0000       2.654695        72.2379 
 169   0.0000       2.672799        72.7306 
 170   0.0000       2.747094        74.7522 
 171   0.0000       2.754472        74.9530 
 172   0.0000       2.767170        75.2985 
 173   0.0000       2.770494        75.3890 
 174   0.0000       2.772776        75.4511 
 175   0.0000       2.805816        76.3501 
 176   0.0000       2.820630        76.7532 
 177   0.0000       2.851753        77.6001 
 178   0.0000       2.867624        78.0320 
 179   0.0000       2.894025        78.7504 
 180   0.0000       2.907524        79.1177 
 181   0.0000       2.940693        80.0203 
 182   0.0000       2.957252        80.4709 
 183   0.0000       3.025005        82.3146 
 184   0.0000       3.050415        83.0060 
 185   0.0000       3.071798        83.5879 
 186   0.0000       3.075561        83.6903 
 187   0.0000       3.168008        86.2059 
 188   0.0000       3.170529        86.2745 
 189   0.0000       3.173856        86.3650 
 190   0.0000       3.176070        86.4253 
 191   0.0000       3.179657        86.5229 
 192   0.0000       3.239148        88.1417 
 193   0.0000       3.280711        89.2727 
 194   0.0000       3.287433        89.4556 
 195   0.0000       3.301258        89.8318 
 196   0.0000       3.305078        89.9358 
 197   0.0000       3.350511        91.1720 
 198   0.0000       3.402192        92.5783 
 199   0.0000       3.411772        92.8390 
 200   0.0000       3.436243        93.5049 
 201   0.0000       3.480854        94.7188 
 202   0.0000       3.487944        94.9118 
 203   0.0000       3.536352        96.2290 
 204   0.0000       3.556569        96.7792 
 205   0.0000       3.626668        98.6867 
 206   0.0000       3.630502        98.7910 
 207   0.0000       3.649477        99.3073 
 208   0.0000       3.652109        99.3789 
 209   0.0000       3.665761        99.7504 
 210   0.0000       3.666739        99.7770 
 211   0.0000       3.754507       102.1653 
 212   0.0000       3.763363       102.4063 
 213   0.0000       3.789963       103.1301 
 214   0.0000       3.822613       104.0186 
 215   0.0000       3.863242       105.1242 
 216   0.0000       3.870993       105.3351 
 217   0.0000       3.901235       106.1580 
 218   0.0000       3.943529       107.3089 
 219   0.0000       3.963174       107.8434 
 220   0.0000       3.985370       108.4474 
 221   0.0000       3.998106       108.7940 
 222   0.0000       4.029564       109.6500 
 223   0.0000       4.030648       109.6795 
 224   0.0000       4.043263       110.0228 
 225   0.0000       4.096949       111.4837 
 226   0.0000       4.184120       113.8557 
 227   0.0000       4.231629       115.1485 
 228   0.0000       4.238599       115.3381 
 229   0.0000       4.248293       115.6019 
 230   0.0000       4.295683       116.8915 
 231   0.0000       4.318470       117.5116 
 232   0.0000       4.320964       117.5794 
 233   0.0000       4.462590       121.4332 
 234   0.0000       4.472649       121.7070 
 235   0.0000       4.486364       122.0802 
 236   0.0000       4.493151       122.2649 
 237   0.0000       4.615541       125.5953 
 238   0.0000       4.616304       125.6160 
 239   0.0000       4.695244       127.7641 
 240   0.0000       4.746196       129.1506 
 241   0.0000       4.775242       129.9410 
 242   0.0000       4.792353       130.4066 
 243   0.0000       4.811667       130.9321 
 244   0.0000       4.837305       131.6298 
 245   0.0000       4.868487       132.4783 
 246   0.0000       4.906276       133.5065 
 247   0.0000       4.941137       134.4552 
 248   0.0000       4.941943       134.4771 
 249   0.0000       4.950477       134.7093 
 250   0.0000       4.981112       135.5430 
 251   0.0000       5.011474       136.3691 
 252   0.0000       5.095212       138.6478 
 253   0.0000       5.133714       139.6955 
 254   0.0000       5.199093       141.4745 
 255   0.0000       5.237877       142.5299 
 256   0.0000       5.245208       142.7294 
 257   0.0000       5.301501       144.2612 
 258   0.0000       5.311566       144.5351 
 259   0.0000       5.312240       144.5534 
 260   0.0000       5.347134       145.5029 
 261   0.0000       5.358511       145.8125 
 262   0.0000       5.463077       148.6579 
 263   0.0000       5.598993       152.3563 
 264   0.0000       5.616836       152.8419 
 265   0.0000       5.863780       159.5616 
 266   0.0000       6.007728       163.4786 
 267   0.0000       6.057520       164.8335 
 268   0.0000       6.440890       175.2655 
 269   0.0000       7.636924       207.8113 
 270   0.0000      22.812326       620.7550 
 271   0.0000      23.263535       633.0330 
 272   0.0000      23.518072       639.9593 
 273   0.0000      23.529750       640.2770 
 274   0.0000      32.459143       883.2582 
 275   0.0000      32.692857       889.6179 

                    ********************************
                    * MULLIKEN POPULATION ANALYSIS *
                    ********************************

--------------------------------------------
MULLIKEN ATOMIC CHARGES AND SPIN POPULATIONS
--------------------------------------------
   0 Br:    0.386143    0.402836
   1 C :    0.026802    0.234442
   2 C :    0.083872    0.108036
   3 N :   -0.168220   -0.024892
   4 C :    0.202929    0.199579
   5 N :   -0.168230   -0.024891
   6 C :    0.083875    0.108041
   7 H :    0.181260   -0.001628
   8 H :    0.190310    0.000105
   9 H :    0.181260   -0.001628
Sum of atomic charges         :    1.0000000
Sum of atomic spin populations:    1.0000000

-----------------------------------------------------
MULLIKEN REDUCED ORBITAL CHARGES AND SPIN POPULATIONS
-----------------------------------------------------
CHARGE
  0 Brs       :     7.928923  s :     7.928923
      pz      :     5.537945  p :    16.619506
      px      :     5.136066
      py      :     5.945496
      dz2     :     2.007140  d :    10.057554
      dxz     :     2.021046
      dyz     :     2.000183
      dx2y2   :     2.021566
      dxy     :     2.007620
      f0      :     0.000876  f :     0.007875
      f+1     :     0.001271
      f-1     :     0.000096
      f+2     :     0.001418
      f-2     :     0.000024
      f+3     :     0.002785
      f-3     :     0.001405
  1 C s       :     3.227374  s :     3.227374
      pz      :     0.903048  p :     2.584439
      px      :     0.760728
      py      :     0.920663
      dz2     :     0.009978  d :     0.152181
      dxz     :     0.021306
      dyz     :     0.018688
      dx2y2   :     0.060005
      dxy     :     0.042204
      f0      :     0.001680  f :     0.009204
      f+1     :     0.000915
      f-1     :     0.000586
      f+2     :     0.000411
      f-2     :     0.000896
      f+3     :     0.001402
      f-3     :     0.003315
  2 C s       :     3.168173  s :     3.168173
      pz      :     0.754581  p :     2.606651
      px      :     0.876209
      py      :     0.975861
      dz2     :     0.003048  d :     0.130234
      dxz     :     0.027680
      dyz     :     0.012649
      dx2y2   :     0.023585
      dxy     :     0.063272
      f0      :     0.001783  f :     0.011070
      f+1     :     0.000948
      f-1     :     0.000549
      f+2     :     0.001291
      f-2     :     0.000519
      f+3     :     0.001817
      f-3     :     0.004163
  3 N s       :     3.642539  s :     3.642539
      pz      :     1.046855  p :     3.461001
      px      :     1.096637
      py      :     1.317508
      dz2     :     0.006031  d :     0.061042
      dxz     :     0.009339
      dyz     :     0.009424
      dx2y2   :     0.020247
      dxy     :     0.016001
      f0      :     0.000637  f :     0.003638
      f+1     :     0.000348
      f-1     :     0.000257
      f+2     :     0.000369
      f-2     :     0.000223
      f+3     :     0.000835
      f-3     :     0.000968
  4 C s       :     3.146576  s :     3.146576
      pz      :     0.684559  p :     2.477502
      px      :     1.028872
      py      :     0.764071
      dz2     :     0.001972  d :     0.158351
      dxz     :     0.015856
      dyz     :     0.034547
      dx2y2   :     0.068697
      dxy     :     0.037278
      f0      :     0.001974  f :     0.014642
      f+1     :     0.000669
      f-1     :     0.001169
      f+2     :     0.000644
      f-2     :     0.001746
      f+3     :     0.002400
      f-3     :     0.006038
  5 N s       :     3.642562  s :     3.642562
      pz      :     1.046855  p :     3.460992
      px      :     1.096629
      py      :     1.317508
      dz2     :     0.006031  d :     0.061039
      dxz     :     0.009339
      dyz     :     0.009424
      dx2y2   :     0.020244
      dxy     :     0.016000
      f0      :     0.000637  f :     0.003638
      f+1     :     0.000348
      f-1     :     0.000257
      f+2     :     0.000369
      f-2     :     0.000223
      f+3     :     0.000835
      f-3     :     0.000968
  6 C s       :     3.168181  s :     3.168181
      pz      :     0.754581  p :     2.606671
      px      :     0.876214
      py      :     0.975876
      dz2     :     0.003046  d :     0.130203
      dxz     :     0.027680
      dyz     :     0.012649
      dx2y2   :     0.023574
      dxy     :     0.063254
      f0      :     0.001783  f :     0.011070
      f+1     :     0.000948
      f-1     :     0.000549
      f+2     :     0.001291
      f-2     :     0.000519
      f+3     :     0.001817
      f-3     :     0.004163
  7 H s       :     0.782850  s :     0.782850
      pz      :     0.007215  p :     0.033320
      px      :     0.007890
      py      :     0.018215
      dz2     :     0.000189  d :     0.002569
      dxz     :     0.000151
      dyz     :     0.000510
      dx2y2   :     0.000948
      dxy     :     0.000771
  8 H s       :     0.778893  s :     0.778893
      pz      :     0.006041  p :     0.028171
      px      :     0.017891
      py      :     0.004239
      dz2     :     0.000192  d :     0.002626
      dxz     :     0.000650
      dyz     :     0.000008
      dx2y2   :     0.000638
      dxy     :     0.001138
  9 H s       :     0.782845  s :     0.782845
      pz      :     0.007215  p :     0.033327
      px      :     0.007896
      py      :     0.018215
      dz2     :     0.000189  d :     0.002569
      dxz     :     0.000151
      dyz     :     0.000510
      dx2y2   :     0.000948
      dxy     :     0.000772

SPIN
  0 Brs       :     0.001342  s :     0.001342
      pz      :     0.409608  p :     0.405267
      px      :    -0.004625
      py      :     0.000285
      dz2     :     0.000983  d :    -0.003404
      dxz     :    -0.004130
      dyz     :    -0.000022
      dx2y2   :    -0.000112
      dxy     :    -0.000123
      f0      :    -0.000043  f :    -0.000369
      f+1     :    -0.000252
      f-1     :     0.000008
      f+2     :    -0.000057
      f-2     :     0.000001
      f+3     :    -0.000024
      f-3     :    -0.000002
  1 C s       :     0.004770  s :     0.004770
      pz      :     0.216162  p :     0.225692
      px      :     0.005234
      py      :     0.004296
      dz2     :    -0.000393  d :     0.003801
      dxz     :     0.003041
      dyz     :     0.001937
      dx2y2   :     0.000479
      dxy     :    -0.001262
      f0      :     0.000029  f :     0.000179
      f+1     :    -0.000117
      f-1     :    -0.000095
      f+2     :     0.000243
      f-2     :     0.000092
      f+3     :    -0.000039
      f-3     :     0.000066
  2 C s       :     0.001320  s :     0.001320
      pz      :     0.102415  p :     0.103666
      px      :     0.002505
      py      :    -0.001253
      dz2     :    -0.000325  d :     0.002879
      dxz     :    -0.000004
      dyz     :     0.003659
      dx2y2   :    -0.000654
      dxy     :     0.000203
      f0      :    -0.000032  f :     0.000171
      f+1     :    -0.000075
      f-1     :    -0.000058
      f+2     :     0.000143
      f-2     :     0.000182
      f+3     :    -0.000016
      f-3     :     0.000027
  3 N s       :    -0.002750  s :    -0.002750
      pz      :    -0.017096  p :    -0.026027
      px      :    -0.004210
      py      :    -0.004721
      dz2     :     0.000011  d :     0.003624
      dxz     :     0.001496
      dyz     :     0.001927
      dx2y2   :     0.000030
      dxy     :     0.000160
      f0      :     0.000034  f :     0.000261
      f+1     :     0.000005
      f-1     :     0.000004
      f+2     :     0.000108
      f-2     :     0.000088
      f+3     :     0.000008
      f-3     :     0.000013
  4 C s       :     0.007181  s :     0.007181
      pz      :     0.185030  p :     0.194786
      px      :     0.004351
      py      :     0.005405
      dz2     :    -0.000679  d :    -0.002042
      dxz     :    -0.001350
      dyz     :    -0.000334
      dx2y2   :     0.000278
      dxy     :     0.000043
      f0      :    -0.000165  f :    -0.000347
      f+1     :    -0.000117
      f-1     :    -0.000115
      f+2     :     0.000119
      f-2     :    -0.000041
      f+3     :    -0.000054
      f-3     :     0.000026
  5 N s       :    -0.002750  s :    -0.002750
      pz      :    -0.017095  p :    -0.026026
      px      :    -0.004210
      py      :    -0.004720
      dz2     :     0.000011  d :     0.003624
      dxz     :     0.001496
      dyz     :     0.001927
      dx2y2   :     0.000030
      dxy     :     0.000160
      f0      :     0.000034  f :     0.000261
      f+1     :     0.000005
      f-1     :     0.000004
      f+2     :     0.000108
      f-2     :     0.000088
      f+3     :     0.000008
      f-3     :     0.000013
  6 C s       :     0.001325  s :     0.001325
      pz      :     0.102414  p :     0.103665
      px      :     0.002504
      py      :    -0.001253
      dz2     :    -0.000326  d :     0.002879
      dxz     :    -0.000004
      dyz     :     0.003659
      dx2y2   :    -0.000654
      dxy     :     0.000203
      f0      :    -0.000032  f :     0.000171
      f+1     :    -0.000075
      f-1     :    -0.000058
      f+2     :     0.000143
      f-2     :     0.000182
      f+3     :    -0.000016
      f-3     :     0.000027
  7 H s       :    -0.003007  s :    -0.003007
      pz      :     0.000938  p :     0.001251
      px      :    -0.000045
      py      :     0.000358
      dz2     :     0.000000  d :     0.000128
      dxz     :     0.000012
      dyz     :     0.000095
      dx2y2   :     0.000018
      dxy     :     0.000004
  8 H s       :    -0.002730  s :    -0.002730
      pz      :     0.001724  p :     0.002564
      px      :     0.000762
      py      :     0.000078
      dz2     :    -0.000001  d :     0.000271
      dxz     :     0.000229
      dyz     :    -0.000001
      dx2y2   :     0.000014
      dxy     :     0.000030
  9 H s       :    -0.003007  s :    -0.003007
      pz      :     0.000938  p :     0.001251
      px      :    -0.000045
      py      :     0.000358
      dz2     :     0.000000  d :     0.000128
      dxz     :     0.000012
      dyz     :     0.000095
      dx2y2   :     0.000018
      dxy     :     0.000004


                     *******************************
                     * LOEWDIN POPULATION ANALYSIS *
                     *******************************

-------------------------------------------
LOEWDIN ATOMIC CHARGES AND SPIN POPULATIONS
-------------------------------------------
   0 Br:    0.760112    0.404571
   1 C :   -0.296205    0.207233
   2 C :   -0.011485    0.107974
   3 N :    0.230995   -0.000561
   4 C :   -0.052569    0.158287
   5 N :    0.230995   -0.000561
   6 C :   -0.011485    0.107974
   7 H :    0.050256    0.003415
   8 H :    0.049132    0.008254
   9 H :    0.050255    0.003415

----------------------------------------------------
LOEWDIN REDUCED ORBITAL CHARGES AND SPIN POPULATIONS
----------------------------------------------------
CHARGE
  0 Brs       :     7.587459  s :     7.587459
      pz      :     5.490209  p :    16.521128
      px      :     5.157604
      py      :     5.873315
      dz2     :     2.015882  d :    10.115909
      dxz     :     2.030728
      dyz     :     2.000203
      dx2y2   :     2.047838
      dxy     :     2.021259
      f0      :     0.001419  f :     0.015392
      f+1     :     0.002739
      f-1     :     0.000245
      f+2     :     0.002185
      f-2     :     0.000012
      f+3     :     0.005490
      f-3     :     0.003302
  1 C s       :     2.796507  s :     2.796507
      pz      :     0.815308  p :     2.910218
      px      :     0.985349
      py      :     1.109562
      dz2     :     0.040383  d :     0.534755
      dxz     :     0.060357
      dyz     :     0.064761
      dx2y2   :     0.206120
      dxy     :     0.163133
      f0      :     0.003766  f :     0.054725
      f+1     :     0.004460
      f-1     :     0.004351
      f+2     :     0.002765
      f-2     :     0.007624
      f+3     :     0.009588
      f-3     :     0.022171
  2 C s       :     2.742390  s :     2.742390
      pz      :     0.691692  p :     2.697098
      px      :     0.986644
      py      :     1.018762
      dz2     :     0.034580  d :     0.507577
      dxz     :     0.074378
      dyz     :     0.031061
      dx2y2   :     0.148744
      dxy     :     0.218813
      f0      :     0.003796  f :     0.064421
      f+1     :     0.006068
      f-1     :     0.003613
      f+2     :     0.008763
      f-2     :     0.003673
      f+3     :     0.012065
      f-3     :     0.026441
  3 N s       :     3.047829  s :     3.047829
      pz      :     0.963635  p :     3.502217
      px      :     1.198409
      py      :     1.340173
      dz2     :     0.018970  d :     0.200875
      dxz     :     0.023729
      dyz     :     0.016162
      dx2y2   :     0.074293
      dxy     :     0.067721
      f0      :     0.001244  f :     0.018084
      f+1     :     0.001760
      f-1     :     0.001175
      f+2     :     0.001958
      f-2     :     0.000664
      f+3     :     0.004200
      f-3     :     0.007083
  4 C s       :     2.750192  s :     2.750192
      pz      :     0.635104  p :     2.610507
      px      :     0.995837
      py      :     0.979565
      dz2     :     0.041027  d :     0.607534
      dxz     :     0.025301
      dyz     :     0.100944
      dx2y2   :     0.290908
      dxy     :     0.149354
      f0      :     0.004652  f :     0.084336
      f+1     :     0.003742
      f-1     :     0.007816
      f+2     :     0.003570
      f-2     :     0.012133
      f+3     :     0.014042
      f-3     :     0.038381
  5 N s       :     3.047829  s :     3.047829
      pz      :     0.963635  p :     3.502216
      px      :     1.198409
      py      :     1.340173
      dz2     :     0.018970  d :     0.200875
      dxz     :     0.023729
      dyz     :     0.016162
      dx2y2   :     0.074293
      dxy     :     0.067721
      f0      :     0.001244  f :     0.018084
      f+1     :     0.001760
      f-1     :     0.001175
      f+2     :     0.001958
      f-2     :     0.000664
      f+3     :     0.004200
      f-3     :     0.007083
  6 C s       :     2.742390  s :     2.742390
      pz      :     0.691692  p :     2.697098
      px      :     0.986644
      py      :     1.018762
      dz2     :     0.034580  d :     0.507576
      dxz     :     0.074377
      dyz     :     0.031061
      dx2y2   :     0.148744
      dxy     :     0.218813
      f0      :     0.003796  f :     0.064421
      f+1     :     0.006068
      f-1     :     0.003613
      f+2     :     0.008763
      f-2     :     0.003673
      f+3     :     0.012065
      f-3     :     0.026441
  7 H s       :     0.784803  s :     0.784803
      pz      :     0.027168  p :     0.136448
      px      :     0.036613
      py      :     0.072667
      dz2     :     0.003012  d :     0.028493
      dxz     :     0.001606
      dyz     :     0.005280
      dx2y2   :     0.009184
      dxy     :     0.009412
  8 H s       :     0.790456  s :     0.790456
      pz      :     0.023156  p :     0.132227
      px      :     0.085357
      py      :     0.023713
      dz2     :     0.003101  d :     0.028186
      dxz     :     0.006141
      dyz     :     0.000044
      dx2y2   :     0.010530
      dxy     :     0.008370
  9 H s       :     0.784803  s :     0.784803
      pz      :     0.027168  p :     0.136448
      px      :     0.036613
      py      :     0.072667
      dz2     :     0.003012  d :     0.028493
      dxz     :     0.001606
      dyz     :     0.005280
      dx2y2   :     0.009184
      dxy     :     0.009412

SPIN
  0 Brs       :     0.001842  s :     0.001842
      pz      :     0.397093  p :     0.394379
      px      :    -0.003768
      py      :     0.001054
      dz2     :     0.001255  d :     0.007315
      dxz     :     0.005986
      dyz     :    -0.000002
      dx2y2   :     0.000183
      dxy     :    -0.000107
      f0      :     0.000519  f :     0.001035
      f+1     :    -0.000224
      f-1     :     0.000041
      f+2     :     0.000686
      f-2     :     0.000001
      f+3     :     0.000020
      f-3     :    -0.000008
  1 C s       :     0.002841  s :     0.002841
      pz      :     0.180263  p :     0.183483
      px      :     0.001911
      py      :     0.001309
      dz2     :    -0.000270  d :     0.019116
      dxz     :     0.014121
      dyz     :     0.004685
      dx2y2   :     0.000531
      dxy     :     0.000050
      f0      :    -0.000016  f :     0.001793
      f+1     :    -0.000146
      f-1     :    -0.000102
      f+2     :     0.001483
      f-2     :     0.000487
      f+3     :    -0.000037
      f-3     :     0.000123
  2 C s       :     0.001041  s :     0.001041
      pz      :     0.090170  p :     0.090572
      px      :     0.001015
      py      :    -0.000614
      dz2     :    -0.000259  d :     0.014390
      dxz     :     0.005340
      dyz     :     0.009350
      dx2y2   :    -0.000287
      dxy     :     0.000246
      f0      :    -0.000056  f :     0.001971
      f+1     :    -0.000072
      f-1     :    -0.000042
      f+2     :     0.000930
      f-2     :     0.001255
      f+3     :    -0.000010
      f-3     :    -0.000034
  3 N s       :    -0.000503  s :    -0.000503
      pz      :    -0.010618  p :    -0.015783
      px      :    -0.002562
      py      :    -0.002603
      dz2     :     0.000088  d :     0.014380
      dxz     :     0.008783
      dyz     :     0.004823
      dx2y2   :     0.000417
      dxy     :     0.000269
      f0      :     0.000118  f :     0.001344
      f+1     :     0.000009
      f-1     :     0.000007
      f+2     :     0.000801
      f-2     :     0.000334
      f+3     :     0.000048
      f-3     :     0.000028
  4 C s       :     0.003255  s :     0.003255
      pz      :     0.157075  p :     0.162472
      px      :     0.002634
      py      :     0.002763
      dz2     :    -0.000462  d :    -0.006209
      dxz     :    -0.001763
      dyz     :    -0.003309
      dx2y2   :    -0.000264
      dxy     :    -0.000409
      f0      :    -0.000571  f :    -0.001231
      f+1     :    -0.000098
      f-1     :    -0.000141
      f+2     :     0.000225
      f-2     :    -0.000459
      f+3     :    -0.000150
      f-3     :    -0.000038
  5 N s       :    -0.000503  s :    -0.000503
      pz      :    -0.010618  p :    -0.015783
      px      :    -0.002562
      py      :    -0.002603
      dz2     :     0.000088  d :     0.014380
      dxz     :     0.008783
      dyz     :     0.004823
      dx2y2   :     0.000417
      dxy     :     0.000269
      f0      :     0.000118  f :     0.001344
      f+1     :     0.000009
      f-1     :     0.000007
      f+2     :     0.000801
      f-2     :     0.000334
      f+3     :     0.000048
      f-3     :     0.000028
  6 C s       :     0.001041  s :     0.001041
      pz      :     0.090170  p :     0.090572
      px      :     0.001015
      py      :    -0.000614
      dz2     :    -0.000259  d :     0.014390
      dxz     :     0.005340
      dyz     :     0.009350
      dx2y2   :    -0.000287
      dxy     :     0.000246
      f0      :    -0.000056  f :     0.001971
      f+1     :    -0.000072
      f-1     :    -0.000042
      f+2     :     0.000930
      f-2     :     0.001255
      f+3     :    -0.000010
      f-3     :    -0.000034
  7 H s       :    -0.002434  s :    -0.002434
      pz      :     0.004196  p :     0.004635
      px      :     0.000073
      py      :     0.000366
      dz2     :     0.000006  d :     0.001214
      dxz     :     0.000168
      dyz     :     0.000964
      dx2y2   :     0.000032
      dxy     :     0.000043
  8 H s       :    -0.003461  s :    -0.003461
      pz      :     0.008266  p :     0.009381
      px      :     0.001017
      py      :     0.000098
      dz2     :     0.000011  d :     0.002334
      dxz     :     0.002112
      dyz     :    -0.000001
      dx2y2   :     0.000137
      dxy     :     0.000076
  9 H s       :    -0.002434  s :    -0.002434
      pz      :     0.004196  p :     0.004635
      px      :     0.000073
      py      :     0.000366
      dz2     :     0.000006  d :     0.001214
      dxz     :     0.000168
      dyz     :     0.000964
      dx2y2   :     0.000032
      dxy     :     0.000043


                      *****************************
                      * MAYER POPULATION ANALYSIS *
                      *****************************

  NA   - Mulliken gross atomic population
  ZA   - Total nuclear charge
  QA   - Mulliken gross atomic charge
  VA   - Mayer's total valence
  BVA  - Mayer's bonded valence
  FA   - Mayer's free valence

  ATOM       NA         ZA         QA         VA         BVA        FA
  0 Br    34.6139    35.0000     0.3861     1.8176     1.6368     0.1808
  1 C      5.9732     6.0000     0.0268     3.9289     3.8718     0.0570
  2 C      5.9161     6.0000     0.0839     3.9097     3.8971     0.0125
  3 N      7.1682     7.0000    -0.1682     3.0370     3.0363     0.0007
  4 C      5.7971     6.0000     0.2029     3.9449     3.9102     0.0348
  5 N      7.1682     7.0000    -0.1682     3.0369     3.0362     0.0007
  6 C      5.9161     6.0000     0.0839     3.9096     3.8971     0.0125
  7 H      0.8187     1.0000     0.1813     0.9817     0.9817     0.0000
  8 H      0.8097     1.0000     0.1903     0.9698     0.9698     0.0000
  9 H      0.8187     1.0000     0.1813     0.9817     0.9817     0.0000

  Mayer bond orders larger than 0.100000
B(  0-Br,  1-C ) :   1.4720 B(  1-C ,  2-C ) :   1.1773 B(  1-C ,  6-C ) :   1.1773 
B(  2-C ,  3-N ) :   1.5658 B(  2-C ,  7-H ) :   0.9778 B(  3-N ,  4-C ) :   1.3492 
B(  4-C ,  5-N ) :   1.3492 B(  4-C ,  8-H ) :   0.9594 B(  5-N ,  6-C ) :   1.5657 
B(  6-C ,  9-H ) :   0.9778 


------------------
HIRSHFELD ANALYSIS
------------------

Total integrated alpha density =     37.999992071
Total integrated beta density  =     36.999995327

  ATOM     CHARGE      SPIN    
   0 Br   0.343521    0.403765
   1 C    0.092312    0.209115
   2 C    0.134773    0.105196
   3 N   -0.109590    0.004584
   4 C    0.220534    0.154812
   5 N   -0.109590    0.004584
   6 C    0.134773    0.105196
   7 H    0.094653    0.002717
   8 H    0.103973    0.007311
   9 H    0.094653    0.002717

  TOTAL   1.000013    0.999997

-------
TIMINGS
-------

Total SCF time: 0 days 0 hours 0 min 20 sec 

Total time                  ....      20.214 sec
Sum of individual times     ....      19.738 sec  ( 97.6%)

Fock matrix formation       ....      17.955 sec  ( 88.8%)
  Split-RI-J                ....       1.118 sec  (  6.2% of F)
  Chain of spheres X        ....      11.874 sec  ( 66.1% of F)
  XC integration            ....       4.746 sec  ( 26.4% of F)
    Basis function eval.    ....       0.304 sec  (  6.4% of XC)
    Density eval.           ....       1.413 sec  ( 29.8% of XC)
    XC-Functional eval.     ....       0.201 sec  (  4.2% of XC)
    XC-Potential eval.      ....       2.351 sec  ( 49.5% of XC)
Diagonalization             ....       0.507 sec  (  2.5%)
Density matrix formation    ....       0.027 sec  (  0.1%)
Population analysis         ....       0.341 sec  (  1.7%)
Initial guess               ....       0.073 sec  (  0.4%)
Orbital Transformation      ....       0.000 sec  (  0.0%)
Orbital Orthonormalization  ....       0.000 sec  (  0.0%)
DIIS solution               ....       0.278 sec  (  1.4%)
Grid generation             ....       0.557 sec  (  2.8%)

Maximum memory used throughout the entire SCF-calculation: 76.4 MB

-------------------------   --------------------
FINAL SINGLE POINT ENERGY     -2837.382123394318
-------------------------   --------------------


                            ***************************************
                            *     ORCA property calculations      *
                            ***************************************

                                    ---------------------
                                    Active property flags
                                    ---------------------
   (+) Dipole Moment


------------------------------------------------------------------------------
                       ORCA ELECTRIC PROPERTIES CALCULATION
------------------------------------------------------------------------------

Dipole Moment Calculation                       ... on
Quadrupole Moment Calculation                   ... off
Polarizability Calculation                      ... off
GBWName                                         ... arbr_20_r2scan3c_wB97MV_ox.gbw
Electron density                                ... arbr_20_r2scan3c_wB97MV_ox.scfp
The origin for moment calculation is the CENTER OF MASS  = ( 0.260089, -0.000000  0.000003)

-------------
DIPOLE MOMENT
-------------
                                X             Y             Z
Electronic contribution:     19.42581       0.00000      -0.00010
Nuclear contribution   :    -19.76694       0.00000       0.00008
                        -----------------------------------------
Total Dipole Moment    :     -0.34112       0.00000      -0.00001
                        -----------------------------------------
Magnitude (a.u.)       :      0.34112
Magnitude (Debye)      :      0.86707



--------------------
Rotational spectrum 
--------------------
 
Rotational constants in cm-1:     0.204504     0.033699     0.028932 
Rotational constants in MHz :  6130.875920  1010.277679   867.351053 

 Dipole components along the rotational axes: 
x,y,z [a.u.] :    -0.341124    -0.000001    -0.000010 
x,y,z [Debye]:    -0.867070    -0.000001    -0.000025 

 

Timings for individual modules:

Sum of individual times         ...       20.908 sec (=   0.348 min)
GTO integral calculation        ...        0.459 sec (=   0.008 min)   2.2 %
SCF iterations                  ...       20.449 sec (=   0.341 min)  97.8 %
                             ****ORCA TERMINATED NORMALLY****
TOTAL RUN TIME: 0 days 0 hours 0 minutes 21 seconds 295 msec
