
                                 *****************
                                 * O   R   C   A *
                                 *****************

                                            #,                                       
                                            ###                                      
                                            ####                                     
                                            #####                                    
                                            ######                                   
                                           ########,                                 
                                     ,,################,,,,,                         
                               ,,#################################,,                 
                          ,,##########################################,,             
                       ,#########################################, ''#####,          
                    ,#############################################,,   '####,        
                  ,##################################################,,,,####,       
                ,###########''''           ''''###############################       
              ,#####''   ,,,,##########,,,,          '''####'''          '####       
            ,##' ,,,,###########################,,,                        '##       
           ' ,,###''''                  '''############,,,                           
         ,,##''                                '''############,,,,        ,,,,,,###''
      ,#''                                            '''#######################'''  
     '                                                          ''''####''''         
             ,#######,   #######,   ,#######,      ##                                
            ,#'     '#,  ##    ##  ,#'     '#,    #''#        ######   ,####,        
            ##       ##  ##   ,#'  ##            #'  '#       #        #'  '#        
            ##       ##  #######   ##           ,######,      #####,   #    #        
            '#,     ,#'  ##    ##  '#,     ,#' ,#      #,         ##   #,  ,#        
             '#######'   ##     ##  '#######'  #'      '#     #####' # '####'        



                  #######################################################
                  #                        -***-                        #
                  #          Department of theory and spectroscopy      #
                  #    Directorship and core code : Frank Neese         #
                  #        Max Planck Institute fuer Kohlenforschung    #
                  #                Kaiser Wilhelm Platz 1               #
                  #                 D-45470 Muelheim/Ruhr               #
                  #                      Germany                        #
                  #                                                     #
                  #                  All rights reserved                #
                  #                        -***-                        #
                  #######################################################


                         Program Version 5.0.4 -  RELEASE  -


 With contributions from (in alphabetic order):
   Daniel Aravena         : Magnetic Suceptibility
   Michael Atanasov       : Ab Initio Ligand Field Theory (pilot matlab implementation)
   Alexander A. Auer      : GIAO ZORA, VPT2 properties, NMR spectrum
   Ute Becker             : Parallelization
   Giovanni Bistoni       : ED, misc. LED, open-shell LED, HFLD
   Martin Brehm           : Molecular dynamics
   Dmytro Bykov           : SCF Hessian
   Vijay G. Chilkuri      : MRCI spin determinant printing, contributions to CSF-ICE
   Dipayan Datta          : RHF DLPNO-CCSD density
   Achintya Kumar Dutta   : EOM-CC, STEOM-CC
   Dmitry Ganyushin       : Spin-Orbit,Spin-Spin,Magnetic field MRCI
   Miquel Garcia          : C-PCM and meta-GGA Hessian, CC/C-PCM, Gaussian charge scheme
   Yang Guo               : DLPNO-NEVPT2, F12-NEVPT2, CIM, IAO-localization
   Andreas Hansen         : Spin unrestricted coupled pair/coupled cluster methods
   Benjamin Helmich-Paris : MC-RPA, TRAH-SCF, COSX integrals
   Lee Huntington         : MR-EOM, pCC
   Robert Izsak           : Overlap fitted RIJCOSX, COSX-SCS-MP3, EOM
   Marcus Kettner         : VPT2
   Christian Kollmar      : KDIIS, OOCD, Brueckner-CCSD(T), CCSD density, CASPT2, CASPT2-K
   Simone Kossmann        : Meta GGA functionals, TD-DFT gradient, OOMP2, MP2 Hessian
   Martin Krupicka        : Initial AUTO-CI
   Lucas Lang             : DCDCAS
   Marvin Lechner         : AUTO-CI (C++ implementation), FIC-MRCC
   Dagmar Lenk            : GEPOL surface, SMD
   Dimitrios Liakos       : Extrapolation schemes; Compound Job, initial MDCI parallelization
   Dimitrios Manganas     : Further ROCIS development; embedding schemes
   Dimitrios Pantazis     : SARC Basis sets
   Anastasios Papadopoulos: AUTO-CI, single reference methods and gradients
   Taras Petrenko         : DFT Hessian,TD-DFT gradient, ASA, ECA, R-Raman, ABS, FL, XAS/XES, NRVS
   Peter Pinski           : DLPNO-MP2, DLPNO-MP2 Gradient
   Christoph Reimann      : Effective Core Potentials
   Marius Retegan         : Local ZFS, SOC
   Christoph Riplinger    : Optimizer, TS searches, QM/MM, DLPNO-CCSD(T), (RO)-DLPNO pert. Triples
   Tobias Risthaus        : Range-separated hybrids, TD-DFT gradient, RPA, STAB
   Michael Roemelt        : Original ROCIS implementation
   Masaaki Saitow         : Open-shell DLPNO-CCSD energy and density
   Barbara Sandhoefer     : DKH picture change effects
   Avijit Sen             : IP-ROCIS
   Kantharuban Sivalingam : CASSCF convergence, NEVPT2, FIC-MRCI
   Bernardo de Souza      : ESD, SOC TD-DFT
   Georgi Stoychev        : AutoAux, RI-MP2 NMR, DLPNO-MP2 response
   Willem Van den Heuvel  : Paramagnetic NMR
   Boris Wezisla          : Elementary symmetry handling
   Frank Wennmohs         : Technical directorship


 We gratefully acknowledge several colleagues who have allowed us to
 interface, adapt or use parts of their codes:
   Stefan Grimme, W. Hujo, H. Kruse, P. Pracht,  : VdW corrections, initial TS optimization,
                  C. Bannwarth, S. Ehlert          DFT functionals, gCP, sTDA/sTD-DF
   Ed Valeev, F. Pavosevic, A. Kumar             : LibInt (2-el integral package), F12 methods
   Garnet Chan, S. Sharma, J. Yang, R. Olivares  : DMRG
   Ulf Ekstrom                                   : XCFun DFT Library
   Mihaly Kallay                                 : mrcc  (arbitrary order and MRCC methods)
   Jiri Pittner, Ondrej Demel                    : Mk-CCSD
   Frank Weinhold                                : gennbo (NPA and NBO analysis)
   Christopher J. Cramer and Donald G. Truhlar   : smd solvation model
   Lars Goerigk                                  : TD-DFT with DH, B97 family of functionals
   V. Asgeirsson, H. Jonsson                     : NEB implementation
   FAccTs GmbH                                   : IRC, NEB, NEB-TS, DLPNO-Multilevel, CI-OPT
                                                   MM, QMMM, 2- and 3-layer-ONIOM, Crystal-QMMM,
                                                   LR-CPCM, SF, NACMEs, symmetry and pop. for TD-DFT,
                                                   nearIR, NL-DFT gradient (VV10), updates on ESD,
                                                   ML-optimized integration grids
   S Lehtola, MJT Oliveira, MAL Marques          : LibXC Library
   Liviu Ungur et al                             : ANISO software


 Your calculation uses the libint2 library for the computation of 2-el integrals
 For citations please refer to: http://libint.valeyev.net

 Your ORCA version has been built with support for libXC version: 5.1.0
 For citations please refer to: https://tddft.org/programs/libxc/

 This ORCA versions uses:
   CBLAS   interface :  Fast vector & matrix operations
   LAPACKE interface :  Fast linear algebra routines
   SCALAPACK package :  Parallel linear algebra routines
   Shared memory     :  Shared parallel matrices
   BLAS/LAPACK       :  OpenBLAS 0.3.15  USE64BITINT DYNAMIC_ARCH NO_AFFINITY SkylakeX SINGLE_THREADED
        Core in use  :  SkylakeX
   Copyright (c) 2011-2014, The OpenBLAS Project


Your calculation utilizes the DFT-NL dispersion correction.
Cite in your paper:
Vydrov, O. A.; Van Voorhis, T. J. Chem. Phys. 2010, 133, 244103
Hujo, W.; Grimme, S. J. Chem. Theory Comput. 2011, 7, 3866 
   

================================================================================

----- Orbital basis set information -----
Your calculation utilizes the basis: def2-TZVPP
   F. Weigend and R. Ahlrichs, Phys. Chem. Chem. Phys. 7, 3297 (2005).

----- AuxJ basis set information -----
Your calculation utilizes the auxiliary basis: def2/J
   F. Weigend, Phys. Chem. Chem. Phys. 8, 1057 (2006).

================================================================================
                                        WARNINGS
                       Please study these warnings very carefully!
================================================================================

Using LibXC functional ID 531 : wB97M-V exchange-correlation functional
[ 1]  N. Mardirossian and M. Head-Gordon, J. Chem. Phys. 144, 214110 (2016)
Using LibXC functional ID 531 : wB97M-V exchange-correlation functional
[ 1]  N. Mardirossian and M. Head-Gordon, J. Chem. Phys. 144, 214110 (2016)

WARNING: B97M-V or wB97M-V functional requested.
  ===> : libXC variant has now been activated.
         Any manually given DFX/HFX/RangeSep scaling parameters are IGNORED!

Your calculation utilizes LibXC
 by S Lehtola, C Steigemann, MJT Oliveira & MAL Marques
Please cite in your paper:
 S Lehtola, C Steigemann, MJT Oliveira & MAL Marques, SoftwareX, 7, (2018), 1.
   


WARNING: your system is open-shell and RHF/RKS was chosen
  ===> : WILL SWITCH to UHF/UKS


INFO   : the flag for use of the SHARK integral package has been found!

================================================================================
                                       INPUT FILE
================================================================================
NAME = arbr_12_r2scan3c_wB97MV_ox.inp
|  1> %PAL NPROCS 16 END
|  2> %maxcore 4000
|  3> # arbr_12_r2scan3c.out
|  4> ! wB97m-v def2-TZVPP def2/J RIJCOSX Hirshfeld
|  5> * xyz 1 2
|  6>   Br       -1.78155         0.00474        -0.00000
|  7>    C        0.10751         0.01649         0.00000
|  8>    C        0.80471         1.21144        -0.00000
|  9>    C        2.18873         1.15091         0.00000
| 10>    C        2.80285        -0.09374        -0.00001
| 11>    N        2.12869        -1.23916         0.00000
| 12>    C        0.80304        -1.18546         0.00001
| 13>    H        0.27927         2.15678         0.00000
| 14>    H        2.78169         2.05530         0.00001
| 15>    H        3.88387        -0.17403         0.00001
| 16>    H        0.26746        -2.12776         0.00000
| 17> *
| 18> 
| 19>                          ****END OF INPUT****
================================================================================

                       ****************************
                       * Single Point Calculation *
                       ****************************

---------------------------------
CARTESIAN COORDINATES (ANGSTROEM)
---------------------------------
  Br    -1.781550    0.004740   -0.000000
  C      0.107510    0.016490    0.000000
  C      0.804710    1.211440   -0.000000
  C      2.188730    1.150910    0.000000
  C      2.802850   -0.093740   -0.000010
  N      2.128690   -1.239160    0.000000
  C      0.803040   -1.185460    0.000010
  H      0.279270    2.156780    0.000000
  H      2.781690    2.055300    0.000010
  H      3.883870   -0.174030    0.000010
  H      0.267460   -2.127760    0.000000

----------------------------
CARTESIAN COORDINATES (A.U.)
----------------------------
  NO LB      ZA    FRAG     MASS         X           Y           Z
   0 Br   35.0000    0    79.900   -3.366642    0.008957   -0.000000
   1 C     6.0000    0    12.011    0.203164    0.031162    0.000000
   2 C     6.0000    0    12.011    1.520682    2.289290   -0.000000
   3 C     6.0000    0    12.011    4.136100    2.174905    0.000000
   4 C     6.0000    0    12.011    5.296619   -0.177143   -0.000019
   5 N     7.0000    0    14.007    4.022641   -2.341673    0.000000
   6 C     6.0000    0    12.011    1.517526   -2.240195    0.000019
   7 H     1.0000    0     1.008    0.527744    4.075724    0.000000
   8 H     1.0000    0     1.008    5.256632    3.883954    0.000019
   9 H     1.0000    0     1.008    7.339451   -0.328869    0.000019
  10 H     1.0000    0     1.008    0.505426   -4.020884    0.000000

--------------------------------
INTERNAL COORDINATES (ANGSTROEM)
--------------------------------
 Br     0   0   0     0.000000000000     0.00000000     0.00000000
 C      1   0   0     1.889096542292     0.00000000     0.00000000
 C      2   1   0     1.383471482359   120.61803063     0.00000000
 C      3   2   1     1.385343004927   117.75742372   180.00000000
 C      4   3   2     1.387911019122   118.76632059     0.00000000
 N      5   4   3     1.329089418399   123.25811395     0.00000000
 C      6   5   4     1.326737205554   118.16010199     0.00000000
 H      3   2   1     1.081552083443   120.67211316     0.00000000
 H      4   3   2     1.081444789992   120.74647564   180.00061646
 H      5   4   3     1.083997566833   120.50978875   180.00124364
 H      7   6   5     1.083870484191   117.29313445   179.99892453

---------------------------
INTERNAL COORDINATES (A.U.)
---------------------------
 Br     0   0   0     0.000000000000     0.00000000     0.00000000
 C      1   0   0     3.569875105470     0.00000000     0.00000000
 C      2   1   0     2.614382215748   120.61803063     0.00000000
 C      3   2   1     2.617918880855   117.75742372   180.00000000
 C      4   3   2     2.622771724392   118.76632059     0.00000000
 N      5   4   3     2.511615008267   123.25811395     0.00000000
 C      6   5   4     2.507169970180   118.16010199     0.00000000
 H      3   2   1     2.043837237279   120.67211316     0.00000000
 H      4   3   2     2.043634482040   120.74647564   180.00061646
 H      5   4   3     2.048458531151   120.50978875   180.00124364
 H      7   6   5     2.048218379761   117.29313445   179.99892453

---------------------
BASIS SET INFORMATION
---------------------
There are 4 groups of distinct atoms

 Group   1 Type Br  : 17s13p8d1f contracted to 6s5p4d1f pattern {842111/64111/5111/1}
 Group   2 Type C   : 11s6p2d1f contracted to 5s3p2d1f pattern {62111/411/11/1}
 Group   3 Type N   : 11s6p2d1f contracted to 5s3p2d1f pattern {62111/411/11/1}
 Group   4 Type H   : 5s2p1d contracted to 3s2p1d pattern {311/11/1}

Atom   0Br   basis set group =>   1
Atom   1C    basis set group =>   2
Atom   2C    basis set group =>   2
Atom   3C    basis set group =>   2
Atom   4C    basis set group =>   2
Atom   5N    basis set group =>   3
Atom   6C    basis set group =>   2
Atom   7H    basis set group =>   4
Atom   8H    basis set group =>   4
Atom   9H    basis set group =>   4
Atom  10H    basis set group =>   4
---------------------------------
AUXILIARY/J BASIS SET INFORMATION
---------------------------------
There are 4 groups of distinct atoms

 Group   1 Type Br  : 19s5p5d3f1g contracted to 8s4p3d2f1g pattern {121111111/2111/311/21/1}
 Group   2 Type C   : 12s5p4d2f1g contracted to 6s4p3d1f1g pattern {711111/2111/211/2/1}
 Group   3 Type N   : 12s5p4d2f1g contracted to 6s4p3d1f1g pattern {711111/2111/211/2/1}
 Group   4 Type H   : 5s2p1d contracted to 3s1p1d pattern {311/2/1}

Atom   0Br   basis set group =>   1
Atom   1C    basis set group =>   2
Atom   2C    basis set group =>   2
Atom   3C    basis set group =>   2
Atom   4C    basis set group =>   2
Atom   5N    basis set group =>   3
Atom   6C    basis set group =>   2
Atom   7H    basis set group =>   4
Atom   8H    basis set group =>   4
Atom   9H    basis set group =>   4
Atom  10H    basis set group =>   4


           ************************************************************
           *        Program running with 16 parallel MPI-processes    *
           *              working on a common directory               *
           ************************************************************
------------------------------------------------------------------------------
                           ORCA GTO INTEGRAL CALCULATION
                           -- RI-GTO INTEGRALS CHOSEN --
------------------------------------------------------------------------------
------------------------------------------------------------------------------
                   ___                                                        
                  /   \      - P O W E R E D   B Y -                         
                 /     \                                                     
                 |  |  |   _    _      __       _____    __    __             
                 |  |  |  | |  | |    /  \     |  _  \  |  |  /  |          
                  \  \/   | |  | |   /    \    | | | |  |  | /  /          
                 / \  \   | |__| |  /  /\  \   | |_| |  |  |/  /          
                |  |  |   |  __  | /  /__\  \  |    /   |      \           
                |  |  |   | |  | | |   __   |  |    \   |  |\   \          
                \     /   | |  | | |  |  |  |  | |\  \  |  | \   \       
                 \___/    |_|  |_| |__|  |__|  |_| \__\ |__|  \__/        
                                                                              
                      - O R C A' S   B I G   F R I E N D -                    
                                      &                                       
                       - I N T E G R A L  F E E D E R -                       
                                                                              
 v1 FN, 2020, v2 2021                                                         
------------------------------------------------------------------------------


Reading SHARK input file arbr_12_r2scan3c_wB97MV_ox.SHARKINP.tmp ... ok
----------------------
SHARK INTEGRAL PACKAGE
----------------------

Number of atoms                             ...     11
Number of basis functions                   ...    290
Number of shells                            ...    106
Maximum angular momentum                    ...      3
Integral batch strategy                     ... SHARK/LIBINT Hybrid
RI-J (if used) integral strategy            ... SPLIT-RIJ (Revised 2003 algorithm where possible)
Printlevel                                  ...      1
Contraction scheme used                     ... SEGMENTED contraction
Coulomb Range Separation                    ... NOT USED
Exchange Range Separation                   ... Long Range
   Mu parameter                             ...  0.300000
   Scaling (regular/separated)              ...  0.150000  0.850000
Finite Nucleus Model                        ... NOT USED
Auxiliary Coulomb fitting basis             ... AVAILABLE
   # of basis functions in Aux-J            ...    396
   # of shells in Aux-J                     ...    128
   Maximum angular momentum in Aux-J        ...      4
Auxiliary J/K fitting basis                 ... NOT available
Auxiliary Correlation fitting basis         ... NOT available
Auxiliary 'external' fitting basis          ... NOT available
Integral threshold                          ...     1.000000e-10
Primitive cut-off                           ...     1.000000e-11
Primitive pair pre-selection threshold      ...     1.000000e-11

Calculating pre-screening integrals         ... done (  0.1 sec) Dimension = 106
Organizing shell pair data                  ... done (  0.1 sec)
Shell pair information
Total number of shell pairs                 ...      5671
Shell pairs after pre-screening             ...      5174
Total number of primitive shell pairs       ...     18546
Primitive shell pairs kept                  ...     12642
          la=0 lb=0:   1020 shell pairs
          la=1 lb=0:   1372 shell pairs
          la=1 lb=1:    473 shell pairs
          la=2 lb=0:    852 shell pairs
          la=2 lb=1:    576 shell pairs
          la=2 lb=2:    194 shell pairs
          la=3 lb=0:    316 shell pairs
          la=3 lb=1:    208 shell pairs
          la=3 lb=2:    135 shell pairs
          la=3 lb=3:     28 shell pairs

Calculating one electron integrals          ... done (  0.0 sec)
Calculating RI/J V-Matrix + Cholesky decomp.... done (  0.0 sec)
Calculating Nuclear repulsion               ... done (  0.0 sec) ENN=    436.772231608632 Eh

SHARK setup successfully completed in   0.4 seconds

Maximum memory used throughout the entire GTOINT-calculation: 22.4 MB


           ************************************************************
           *        Program running with 16 parallel MPI-processes    *
           *              working on a common directory               *
           ************************************************************
-------------------------------------------------------------------------------
                                 ORCA SCF
-------------------------------------------------------------------------------

------------
SCF SETTINGS
------------
Hamiltonian:
 Density Functional     Method          .... DFT(GTOs)
  Functional kind                       .... Exchange-Correlation
  Functional name                       .... wB97M-V exchange-correlation functional
  Functional family                     .... Hybrid MGGA
  Functional refs                              
    [ 0] N. Mardirossian and M. Head-Gordon, J. Chem. Phys. 144, 214110 (2016)
  Fraction of HF Exchange (short range) .... 0.1500
  Fraction of HF Exchange (long range)  .... 1.0000
  Range separation parameter mu         .... 0.3000
  Functional external parameters         .... 0
   Density functional embedding theory  .... OFF
 Long-range corrected/Screened/Range-Separated Hybrid DFT is turned on
   Amount of maximum screened exact exchange              ....  0.850000
   Range separation parameter mu (erf(mu*r12)/r12)        ....  0.300000
   NL short-range parameter             ....  6.000000
   NL long-range parameter              ....  0.010000
 RI-approximation to the Coulomb term is turned on
   Number of AuxJ basis functions       .... 396
   RIJ-COSX (HFX calculated with COS-X)).... on


General Settings:
 Integral files         IntName         .... arbr_12_r2scan3c_wB97MV_ox
 Hartree-Fock type      HFTyp           .... UHF
 Total Charge           Charge          ....    1
 Multiplicity           Mult            ....    2
 Number of Electrons    NEL             ....   75
 Basis Dimension        Dim             ....  290
 Nuclear Repulsion      ENuc            ....    436.7722316086 Eh

Convergence Acceleration:
 DIIS                   CNVDIIS         .... on
   Start iteration      DIISMaxIt       ....    12
   Startup error        DIISStart       ....  0.200000
   # of expansion vecs  DIISMaxEq       ....     5
   Bias factor          DIISBfac        ....   1.050
   Max. coefficient     DIISMaxC        ....  10.000
 Trust-Rad. Augm. Hess. CNVTRAH         .... auto
   Auto Start mean grad. ratio tolernc. ....  1.125000
   Auto Start start iteration           ....    20
   Auto Start num. interpolation iter.  ....    10
   Max. Number of Micro iterations      ....    16
   Max. Number of Macro iterations      .... Maxiter - #DIIS iter
   Number of Davidson start vectors     ....     2
   Converg. threshold I  (grad. norm)   ....   5.000e-05
   Converg. threshold II (energy diff.) ....   1.000e-06
   Grad. Scal. Fac. for Micro threshold ....   0.100
   Minimum threshold for Micro iter.    ....   0.010
   NR start threshold (gradient norm)   ....   0.001
   Initial trust radius                 ....   0.400
   Minimum AH scaling param. (alpha)    ....   1.000
   Maximum AH scaling param. (alpha)    .... 1000.000
   Orbital update algorithm             .... Taylor
   White noise on init. David. guess    .... on
   Maximum white noise                  ....   0.010
   Quad. conv. algorithm                .... NR
 SOSCF                  CNVSOSCF        .... off
 Level Shifting         CNVShift        .... on
   Level shift para.    LevelShift      ....    0.2500
   Turn off err/grad.   ShiftErr        ....    0.0010
 Zerner damping         CNVZerner       .... off
 Static damping         CNVDamp         .... on
   Fraction old density DampFac         ....    0.7000
   Max. Damping (<1)    DampMax         ....    0.9800
   Min. Damping (>=0)   DampMin         ....    0.0000
   Turn off err/grad.   DampErr         ....    0.1000
 Fernandez-Rico         CNVRico         .... off

SCF Procedure:
 Maximum # iterations   MaxIter         ....   125
 SCF integral mode      SCFMode         .... Direct
   Integral package                     .... SHARK and LIBINT hybrid scheme
 Reset frequency        DirectResetFreq ....    20
 Integral Threshold     Thresh          ....  1.000e-10 Eh
 Primitive CutOff       TCut            ....  1.000e-11 Eh

Convergence Tolerance:
 Convergence Check Mode ConvCheckMode   .... Total+1el-Energy
 Convergence forced     ConvForced      .... 0
 Energy Change          TolE            ....  1.000e-06 Eh
 1-El. energy change                    ....  1.000e-03 Eh
 DIIS Error             TolErr          ....  1.000e-06


Diagonalization of the overlap matrix:
Smallest eigenvalue                        ... 4.932e-05
Time for diagonalization                   ...    0.018 sec
Threshold for overlap eigenvalues          ... 1.000e-08
Number of eigenvalues below threshold      ... 0
Time for construction of square roots      ...    0.010 sec
Total time needed                          ...    0.029 sec

Time for model grid setup =    0.091 sec

------------------------------
INITIAL GUESS: MODEL POTENTIAL
------------------------------
Loading Hartree-Fock densities                     ... done
Calculating cut-offs                               ... done
Initializing the effective Hamiltonian             ... done
Setting up the integral package (SHARK)            ... done
Starting the Coulomb interaction                   ... done (   0.0 sec)
Reading the grid                                   ... done
Mapping shells                                     ... done
Starting the XC term evaluation                    ... done (   0.1 sec)
  promolecular density results
     # of electrons  =     75.999079443
     EX              =   -122.570623354
     EC              =     -3.082872274
     EX+EC           =   -125.653495627
Transforming the Hamiltonian                       ... done (   0.0 sec)
Diagonalizing the Hamiltonian                      ... done (   0.0 sec)
Back transforming the eigenvectors                 ... done (   0.0 sec)
Now organizing SCF variables                       ... done
                      ------------------
                      INITIAL GUESS DONE (   0.2 sec)
                      ------------------
-------------------
DFT GRID GENERATION
-------------------

General Integration Accuracy     IntAcc      ... 4.388
Radial Grid Type                 RadialGrid  ... OptM3 with GC (2021)
Angular Grid (max. ang.)         AngularGrid ... 4 (Lebedev-302)
Angular grid pruning method      GridPruning ... 4 (adaptive)
Weight generation scheme         WeightScheme... Becke
Basis function cutoff            BFCut       ... 1.0000e-10
Integration weight cutoff        WCut        ... 1.0000e-14
Angular grids for H and He will be reduced by one unit
Partially contracted basis set               ... off
Rotationally invariant grid construction     ... off

Total number of grid points                  ...    60380
Total number of batches                      ...      950
Average number of points per batch           ...       63
Average number of grid points per atom       ...     5489
Time for grid setup =    0.482 sec

--------------------
COSX GRID GENERATION
--------------------

GRIDX 1
-------
General Integration Accuracy     IntAcc      ... 3.816
Radial Grid Type                 RadialGrid  ... OptM3 with GC (2021)
Angular Grid (max. ang.)         AngularGrid ... 1 (Lebedev-50)
Angular grid pruning method      GridPruning ... 4 (adaptive)
Weight generation scheme         WeightScheme... Becke
Basis function cutoff            BFCut       ... 1.0000e-10
Integration weight cutoff        WCut        ... 1.0000e-14
Angular grids for H and He will be reduced by one unit
Partially contracted basis set               ... on
Rotationally invariant grid construction     ... off

Total number of grid points                  ...     7495
Total number of batches                      ...      121
Average number of points per batch           ...       61
Average number of grid points per atom       ...      681
UseSFitting                                  ... on

GRIDX 2
-------
General Integration Accuracy     IntAcc      ... 4.020
Radial Grid Type                 RadialGrid  ... OptM3 with GC (2021)
Angular Grid (max. ang.)         AngularGrid ... 2 (Lebedev-110)
Angular grid pruning method      GridPruning ... 4 (adaptive)
Weight generation scheme         WeightScheme... Becke
Basis function cutoff            BFCut       ... 1.0000e-10
Integration weight cutoff        WCut        ... 1.0000e-14
Angular grids for H and He will be reduced by one unit
Partially contracted basis set               ... on
Rotationally invariant grid construction     ... off

Total number of grid points                  ...    16621
Total number of batches                      ...      265
Average number of points per batch           ...       62
Average number of grid points per atom       ...     1511
UseSFitting                                  ... on

GRIDX 3
-------
General Integration Accuracy     IntAcc      ... 4.338
Radial Grid Type                 RadialGrid  ... OptM3 with GC (2021)
Angular Grid (max. ang.)         AngularGrid ... 3 (Lebedev-194)
Angular grid pruning method      GridPruning ... 4 (adaptive)
Weight generation scheme         WeightScheme... Becke
Basis function cutoff            BFCut       ... 1.0000e-10
Integration weight cutoff        WCut        ... 1.0000e-14
Angular grids for H and He will be reduced by one unit
Partially contracted basis set               ... on
Rotationally invariant grid construction     ... off

Total number of grid points                  ...    36937
Total number of batches                      ...      584
Average number of points per batch           ...       63
Average number of grid points per atom       ...     3358
UseSFitting                                  ... on

Time for X-Grid setup             =    0.367 sec

--------------
SCF ITERATIONS
--------------
ITER       Energy         Delta-E        Max-DP      RMS-DP      [F,P]     Damp
               ***  Starting incremental Fock matrix formation  ***
  0  -2821.4525620980   0.000000000000 0.02654146  0.00044866  0.0975845 0.7000
  1  -2821.5324306029  -0.079868504921 0.02103159  0.00036085  0.0524088 0.7000
                               ***Turning on DIIS***
  2  -2821.5713479163  -0.038917313352 0.05017943  0.00074539  0.0230864 0.0000
  3  -2821.6300272677  -0.058679351398 0.02608502  0.00027053  0.0236011 0.0000
  4  -2821.6449086004  -0.014881332759 0.00687209  0.00013861  0.0071463 0.0000
  5  -2821.6464763308  -0.001567730384 0.00593806  0.00008180  0.0062496 0.0000
  6  -2821.6473040039  -0.000827673083 0.00632444  0.00006039  0.0054306 0.0000
  7  -2821.6478935617  -0.000589557805 0.00766812  0.00006009  0.0050834 0.0000
  8  -2821.6483942838  -0.000500722125 0.00674849  0.00004726  0.0039118 0.0000
  9  -2821.6487156244  -0.000321340594 0.00535502  0.00003479  0.0031582 0.0000
 10  -2821.6489107062  -0.000195081838 0.00462318  0.00003404  0.0018902 0.0000
 11  -2821.6490451309  -0.000134424645 0.00345884  0.00002406  0.0016001 0.0000
 12  -2821.6491267322  -0.000081601305 0.00302006  0.00002316  0.0012563 0.0000
 13  -2821.6491836151  -0.000056882954 0.00391414  0.00002848  0.0009848 0.0000
               *** Restarting incremental Fock matrix formation ***
                                   *** Resetting DIIS ***
 14  -2821.6492190854  -0.000035470248 0.00059091  0.00000973  0.0005133 0.0000
 15  -2821.6492282786  -0.000009193188 0.00029566  0.00000365  0.0006227 0.0000
 16  -2821.6492333478  -0.000005069222 0.00065786  0.00000951  0.0003248 0.0000
 17  -2821.6492441741  -0.000010826325 0.00067713  0.00001015  0.0002457 0.0000
 18  -2821.6492506361  -0.000006461982 0.00030914  0.00000419  0.0001112 0.0000
 19  -2821.6492519514  -0.000001315336 0.00024494  0.00000291  0.0001016 0.0000
 20  -2821.6492524503  -0.000000498807 0.00015799  0.00000171  0.0000524 0.0000
                 **** Energy Check signals convergence ****

               *****************************************************
               *                     SUCCESS                       *
               *           SCF CONVERGED AFTER  21 CYCLES          *
               *****************************************************

Old exchange energy                            =    -28.685650857 Eh
New exchange energy                            =    -28.685649058 Eh
Exchange energy change after final integration =      0.000001799 Eh
Total energy after final integration           =  -2821.649250761 Eh
Final COS-X integration done in                =     4.236 sec

------------------
NL GRID GENERATION
------------------

General Integration Accuracy     IntAcc      ... 4.004
Radial Grid Type                 RadialGrid  ... OptM3 with GC (2021)
Angular Grid (max. ang.)         AngularGrid ... 2 (Lebedev-110)
Angular grid pruning method      GridPruning ... 4 (adaptive)
Weight generation scheme         WeightScheme... Becke
Basis function cutoff            BFCut       ... 1.0000e-10
Integration weight cutoff        WCut        ... 1.0000e-14
Angular grids for H and He will be reduced by one unit
Partially contracted basis set               ... off
Rotationally invariant grid construction     ... off

Total number of grid points                  ...    21362
Total number of batches                      ...      339
Average number of points per batch           ...       63
Average number of grid points per atom       ...     1942
Final grid set up in    0.1 sec

-------------------------------------------------------------------------------
                    post-SCF DFT-NL dispersion correction                      
-------------------------------------------------------------------------------

SCF Energy:   -2821.649250761 
NL    Energy:  0.299427115 
SC+NL Energy: -2821.349823646 
NL done in:    0.3 sec
-------------------------------------------------------------------------------

----------------
TOTAL SCF ENERGY
----------------

Total Energy       :        -2821.34982365 Eh          -76772.83176 eV

Components:
Nuclear Repulsion  :          436.77223161 Eh           11885.17665 eV
Electronic Energy  :        -3258.12205525 Eh          -88658.00841 eV
One Electron Energy:        -4767.14114617 Eh         -129720.50545 eV
Two Electron Energy:         1509.01909092 Eh           41062.49704 eV
Max COSX asymmetry :            0.00000149 Eh               0.00004 eV

Virial components:
Potential Energy   :        -5639.09082038 Eh         -153447.46234 eV
Kinetic Energy     :         2817.74099673 Eh           76674.63058 eV
Virial Ratio       :            2.00128075


DFT components:
N(Alpha)           :       37.999991258532 electrons
N(Beta)            :       36.999995573369 electrons
N(Total)           :       74.999986831901 electrons
NL Energy, E(C,NL) :        0.299427114911 Eh       
E(XC)              :      -97.697161283871 Eh       
DFET-embed. en.    :        0.000000000000 Eh       

---------------
SCF CONVERGENCE
---------------

  Last Energy change         ...   -1.0946e-07  Tolerance :   1.0000e-06
  Last MAX-Density change    ...    0.0000e+00  Tolerance :   1.0000e-05
  Last RMS-Density change    ...    0.0000e+00  Tolerance :   1.0000e-06
  Last DIIS Error            ...    3.5867e-05  Tolerance :   1.0000e-06

             **** THE GBW FILE WAS UPDATED (arbr_12_r2scan3c_wB97MV_ox.gbw) ****
             **** DENSITY arbr_12_r2scan3c_wB97MV_ox.scfp WAS UPDATED ****
             **** ENERGY FILE WAS UPDATED (arbr_12_r2scan3c_wB97MV_ox.en.tmp) ****
----------------------
UHF SPIN CONTAMINATION
----------------------

Warning: in a DFT calculation there is little theoretical justification to 
         calculate <S**2> as in Hartree-Fock theory. We will do it anyways
         but you should keep in mind that the values have only limited relevance

Expectation value of <S**2>     :     0.766949
Ideal value S*(S+1) for S=0.5   :     0.750000
Deviation                       :     0.016949

             **** THE GBW FILE WAS UPDATED (arbr_12_r2scan3c_wB97MV_ox.gbw) ****
             **** DENSITY arbr_12_r2scan3c_wB97MV_ox.scfp WAS UPDATED ****
----------------
ORBITAL ENERGIES
----------------
                 SPIN UP ORBITALS
  NO   OCC          E(Eh)            E(eV) 
   0   1.0000    -483.751010    -13163.5342 
   1   1.0000     -63.054354     -1715.7962 
   2   1.0000     -56.740757     -1543.9945 
   3   1.0000     -56.740248     -1543.9806 
   4   1.0000     -56.738349     -1543.9290 
   5   1.0000     -14.720569      -400.5670 
   6   1.0000     -10.658216      -290.0248 
   7   1.0000     -10.627458      -289.1878 
   8   1.0000     -10.622368      -289.0493 
   9   1.0000     -10.589444      -288.1534 
  10   1.0000     -10.581656      -287.9415 
  11   1.0000      -9.137061      -248.6321 
  12   1.0000      -6.921524      -188.3442 
  13   1.0000      -6.916762      -188.2147 
  14   1.0000      -6.908941      -188.0018 
  15   1.0000      -3.003928       -81.7410 
  16   1.0000      -3.003032       -81.7167 
  17   1.0000      -2.997282       -81.5602 
  18   1.0000      -2.993002       -81.4437 
  19   1.0000      -2.991958       -81.4153 
  20   1.0000      -1.308393       -35.6032 
  21   1.0000      -1.196721       -32.5644 
  22   1.0000      -1.140188       -31.0261 
  23   1.0000      -1.095392       -29.8071 
  24   1.0000      -0.983542       -26.7635 
  25   1.0000      -0.959802       -26.1175 
  26   1.0000      -0.858492       -23.3608 
  27   1.0000      -0.830775       -22.6065 
  28   1.0000      -0.779496       -21.2112 
  29   1.0000      -0.758276       -20.6338 
  30   1.0000      -0.750622       -20.4255 
  31   1.0000      -0.729693       -19.8560 
  32   1.0000      -0.683776       -18.6065 
  33   1.0000      -0.663299       -18.0493 
  34   1.0000      -0.614079       -16.7099 
  35   1.0000      -0.598243       -16.2790 
  36   1.0000      -0.577674       -15.7193 
  37   1.0000      -0.571296       -15.5458 
  38   0.0000      -0.173992        -4.7346 
  39   0.0000      -0.167674        -4.5626 
  40   0.0000      -0.130314        -3.5460 
  41   0.0000      -0.039400        -1.0721 
  42   0.0000      -0.021019        -0.5720 
  43   0.0000      -0.007060        -0.1921 
  44   0.0000      -0.000582        -0.0158 
  45   0.0000       0.005166         0.1406 
  46   0.0000       0.014470         0.3938 
  47   0.0000       0.029892         0.8134 
  48   0.0000       0.074664         2.0317 
  49   0.0000       0.079191         2.1549 
  50   0.0000       0.084862         2.3092 
  51   0.0000       0.097150         2.6436 
  52   0.0000       0.104877         2.8538 
  53   0.0000       0.117948         3.2095 
  54   0.0000       0.119260         3.2452 
  55   0.0000       0.124519         3.3883 
  56   0.0000       0.126664         3.4467 
  57   0.0000       0.161332         4.3901 
  58   0.0000       0.162872         4.4320 
  59   0.0000       0.183648         4.9973 
  60   0.0000       0.191996         5.2245 
  61   0.0000       0.200136         5.4460 
  62   0.0000       0.223602         6.0845 
  63   0.0000       0.227117         6.1802 
  64   0.0000       0.234434         6.3793 
  65   0.0000       0.242703         6.6043 
  66   0.0000       0.249759         6.7963 
  67   0.0000       0.259435         7.0596 
  68   0.0000       0.282085         7.6759 
  69   0.0000       0.306469         8.3394 
  70   0.0000       0.315870         8.5953 
  71   0.0000       0.322326         8.7709 
  72   0.0000       0.344073         9.3627 
  73   0.0000       0.347631         9.4595 
  74   0.0000       0.361744         9.8435 
  75   0.0000       0.382693        10.4136 
  76   0.0000       0.411288        11.1917 
  77   0.0000       0.411500        11.1975 
  78   0.0000       0.434942        11.8354 
  79   0.0000       0.447693        12.1824 
  80   0.0000       0.460356        12.5269 
  81   0.0000       0.483145        13.1470 
  82   0.0000       0.507908        13.8209 
  83   0.0000       0.525521        14.3001 
  84   0.0000       0.533154        14.5079 
  85   0.0000       0.542744        14.7688 
  86   0.0000       0.554680        15.0936 
  87   0.0000       0.573736        15.6121 
  88   0.0000       0.576101        15.6765 
  89   0.0000       0.604314        16.4442 
  90   0.0000       0.609535        16.5863 
  91   0.0000       0.651705        17.7338 
  92   0.0000       0.681295        18.5390 
  93   0.0000       0.683857        18.6087 
  94   0.0000       0.748682        20.3727 
  95   0.0000       0.752563        20.4783 
  96   0.0000       0.780789        21.2463 
  97   0.0000       0.799045        21.7431 
  98   0.0000       0.832311        22.6483 
  99   0.0000       0.842393        22.9227 
 100   0.0000       0.874757        23.8033 
 101   0.0000       0.888719        24.1833 
 102   0.0000       0.898249        24.4426 
 103   0.0000       0.910261        24.7694 
 104   0.0000       0.951175        25.8828 
 105   0.0000       0.966247        26.2929 
 106   0.0000       0.992814        27.0158 
 107   0.0000       1.020632        27.7728 
 108   0.0000       1.042501        28.3679 
 109   0.0000       1.056559        28.7504 
 110   0.0000       1.064240        28.9594 
 111   0.0000       1.072396        29.1814 
 112   0.0000       1.108669        30.1684 
 113   0.0000       1.112402        30.2700 
 114   0.0000       1.163971        31.6733 
 115   0.0000       1.182219        32.1698 
 116   0.0000       1.188499        32.3407 
 117   0.0000       1.192477        32.4490 
 118   0.0000       1.236495        33.6467 
 119   0.0000       1.252022        34.0693 
 120   0.0000       1.252552        34.0837 
 121   0.0000       1.273005        34.6402 
 122   0.0000       1.275487        34.7078 
 123   0.0000       1.295376        35.2490 
 124   0.0000       1.308722        35.6121 
 125   0.0000       1.309408        35.6308 
 126   0.0000       1.342116        36.5208 
 127   0.0000       1.355009        36.8717 
 128   0.0000       1.372485        37.3472 
 129   0.0000       1.388150        37.7735 
 130   0.0000       1.390060        37.8255 
 131   0.0000       1.399646        38.0863 
 132   0.0000       1.416125        38.5347 
 133   0.0000       1.435872        39.0721 
 134   0.0000       1.438702        39.1491 
 135   0.0000       1.461952        39.7817 
 136   0.0000       1.479595        40.2618 
 137   0.0000       1.505004        40.9533 
 138   0.0000       1.506773        41.0014 
 139   0.0000       1.526358        41.5343 
 140   0.0000       1.543889        42.0114 
 141   0.0000       1.572620        42.7932 
 142   0.0000       1.580089        42.9964 
 143   0.0000       1.595544        43.4169 
 144   0.0000       1.617297        44.0089 
 145   0.0000       1.649321        44.8803 
 146   0.0000       1.658999        45.1436 
 147   0.0000       1.663175        45.2573 
 148   0.0000       1.694662        46.1141 
 149   0.0000       1.714688        46.6590 
 150   0.0000       1.750268        47.6272 
 151   0.0000       1.791209        48.7413 
 152   0.0000       1.791414        48.7469 
 153   0.0000       1.826727        49.7078 
 154   0.0000       1.912490        52.0415 
 155   0.0000       1.936621        52.6981 
 156   0.0000       1.956732        53.2454 
 157   0.0000       2.024860        55.0992 
 158   0.0000       2.043119        55.5961 
 159   0.0000       2.116352        57.5889 
 160   0.0000       2.159706        58.7686 
 161   0.0000       2.238642        60.9165 
 162   0.0000       2.245588        61.1056 
 163   0.0000       2.247567        61.1594 
 164   0.0000       2.304002        62.6951 
 165   0.0000       2.336257        63.5728 
 166   0.0000       2.359496        64.2052 
 167   0.0000       2.368759        64.4572 
 168   0.0000       2.450374        66.6781 
 169   0.0000       2.483163        67.5703 
 170   0.0000       2.500170        68.0331 
 171   0.0000       2.533670        68.9447 
 172   0.0000       2.560334        69.6702 
 173   0.0000       2.588844        70.4460 
 174   0.0000       2.609991        71.0215 
 175   0.0000       2.623683        71.3941 
 176   0.0000       2.634320        71.6835 
 177   0.0000       2.650093        72.1127 
 178   0.0000       2.672397        72.7196 
 179   0.0000       2.721274        74.0496 
 180   0.0000       2.730993        74.3141 
 181   0.0000       2.771540        75.4174 
 182   0.0000       2.789037        75.8935 
 183   0.0000       2.803578        76.2892 
 184   0.0000       2.835175        77.1490 
 185   0.0000       2.841826        77.3300 
 186   0.0000       2.882880        78.4472 
 187   0.0000       2.888946        78.6122 
 188   0.0000       2.894892        78.7740 
 189   0.0000       2.904798        79.0436 
 190   0.0000       2.959020        80.5190 
 191   0.0000       2.976539        80.9957 
 192   0.0000       2.987162        81.2848 
 193   0.0000       2.997343        81.5619 
 194   0.0000       2.998713        81.5991 
 195   0.0000       3.032694        82.5238 
 196   0.0000       3.103222        84.4430 
 197   0.0000       3.109982        84.6269 
 198   0.0000       3.123607        84.9977 
 199   0.0000       3.125416        85.0469 
 200   0.0000       3.155581        85.8677 
 201   0.0000       3.187742        86.7429 
 202   0.0000       3.208987        87.3210 
 203   0.0000       3.210784        87.3699 
 204   0.0000       3.254783        88.5671 
 205   0.0000       3.264931        88.8433 
 206   0.0000       3.270873        89.0050 
 207   0.0000       3.307689        90.0068 
 208   0.0000       3.342257        90.9474 
 209   0.0000       3.351619        91.2022 
 210   0.0000       3.356107        91.3243 
 211   0.0000       3.373508        91.7978 
 212   0.0000       3.412635        92.8625 
 213   0.0000       3.487755        94.9066 
 214   0.0000       3.524069        95.8948 
 215   0.0000       3.528421        96.0132 
 216   0.0000       3.566898        97.0602 
 217   0.0000       3.621454        98.5448 
 218   0.0000       3.637625        98.9848 
 219   0.0000       3.650841        99.3444 
 220   0.0000       3.685225       100.2801 
 221   0.0000       3.692863       100.4879 
 222   0.0000       3.703198       100.7691 
 223   0.0000       3.715904       101.1149 
 224   0.0000       3.721361       101.2634 
 225   0.0000       3.753166       102.1288 
 226   0.0000       3.755487       102.1920 
 227   0.0000       3.784225       102.9740 
 228   0.0000       3.845807       104.6497 
 229   0.0000       3.875089       105.4465 
 230   0.0000       3.875507       105.4579 
 231   0.0000       3.900927       106.1496 
 232   0.0000       3.934873       107.0733 
 233   0.0000       3.971134       108.0600 
 234   0.0000       3.999029       108.8191 
 235   0.0000       4.009180       109.0953 
 236   0.0000       4.026049       109.5544 
 237   0.0000       4.061298       110.5135 
 238   0.0000       4.064153       110.5912 
 239   0.0000       4.084866       111.1549 
 240   0.0000       4.164562       113.3235 
 241   0.0000       4.169982       113.4710 
 242   0.0000       4.197059       114.2078 
 243   0.0000       4.216931       114.7485 
 244   0.0000       4.221854       114.8825 
 245   0.0000       4.252753       115.7233 
 246   0.0000       4.265950       116.0824 
 247   0.0000       4.282015       116.5196 
 248   0.0000       4.316572       117.4599 
 249   0.0000       4.357400       118.5709 
 250   0.0000       4.423918       120.3809 
 251   0.0000       4.477372       121.8355 
 252   0.0000       4.492310       122.2420 
 253   0.0000       4.508131       122.6725 
 254   0.0000       4.621114       125.7469 
 255   0.0000       4.625299       125.8608 
 256   0.0000       4.635652       126.1425 
 257   0.0000       4.677850       127.2908 
 258   0.0000       4.730953       128.7358 
 259   0.0000       4.769345       129.7805 
 260   0.0000       4.802228       130.6753 
 261   0.0000       4.837609       131.6380 
 262   0.0000       4.854120       132.0873 
 263   0.0000       4.882107       132.8489 
 264   0.0000       4.925438       134.0280 
 265   0.0000       4.968908       135.2109 
 266   0.0000       5.001016       136.0846 
 267   0.0000       5.030240       136.8798 
 268   0.0000       5.085309       138.3783 
 269   0.0000       5.100841       138.8009 
 270   0.0000       5.178050       140.9019 
 271   0.0000       5.185264       141.0982 
 272   0.0000       5.226836       142.2294 
 273   0.0000       5.233878       142.4211 
 274   0.0000       5.282048       143.7318 
 275   0.0000       5.393981       146.7777 
 276   0.0000       5.407118       147.1352 
 277   0.0000       5.569421       151.5516 
 278   0.0000       5.655435       153.8922 
 279   0.0000       5.719066       155.6237 
 280   0.0000       5.896860       160.4617 
 281   0.0000       6.003732       163.3699 
 282   0.0000       6.420578       174.7128 
 283   0.0000       7.658108       208.3877 
 284   0.0000      22.771117       619.6336 
 285   0.0000      23.120964       629.1534 
 286   0.0000      23.264363       633.0555 
 287   0.0000      23.411423       637.0572 
 288   0.0000      23.709779       645.1759 
 289   0.0000      32.648672       888.4155 

                 SPIN DOWN ORBITALS
  NO   OCC          E(Eh)            E(eV) 
   0   1.0000    -483.750000    -13163.5067 
   1   1.0000     -63.054043     -1715.7877 
   2   1.0000     -56.740468     -1543.9866 
   3   1.0000     -56.738003     -1543.9196 
   4   1.0000     -56.737989     -1543.9192 
   5   1.0000     -14.722046      -400.6072 
   6   1.0000     -10.654306      -289.9184 
   7   1.0000     -10.624298      -289.1018 
   8   1.0000     -10.618266      -288.9377 
   9   1.0000     -10.589696      -288.1603 
  10   1.0000     -10.580919      -287.9214 
  11   1.0000      -9.135782      -248.5973 
  12   1.0000      -6.921022      -188.3306 
  13   1.0000      -6.913058      -188.1139 
  14   1.0000      -6.908341      -187.9855 
  15   1.0000      -3.002341       -81.6978 
  16   1.0000      -3.000803       -81.6560 
  17   1.0000      -2.996981       -81.5520 
  18   1.0000      -2.990654       -81.3798 
  19   1.0000      -2.990229       -81.3683 
  20   1.0000      -1.304137       -35.4874 
  21   1.0000      -1.188891       -32.3514 
  22   1.0000      -1.135066       -30.8867 
  23   1.0000      -1.080251       -29.3951 
  24   1.0000      -0.977746       -26.6058 
  25   1.0000      -0.953776       -25.9536 
  26   1.0000      -0.854548       -23.2534 
  27   1.0000      -0.826849       -22.4997 
  28   1.0000      -0.776083       -21.1183 
  29   1.0000      -0.744514       -20.2592 
  30   1.0000      -0.730563       -19.8796 
  31   1.0000      -0.728024       -19.8106 
  32   1.0000      -0.681085       -18.5333 
  33   1.0000      -0.627087       -17.0639 
  34   1.0000      -0.609280       -16.5794 
  35   1.0000      -0.583903       -15.8888 
  36   1.0000      -0.571184       -15.5427 
  37   0.0000      -0.345002        -9.3880 
  38   0.0000      -0.153245        -4.1700 
  39   0.0000      -0.140463        -3.8222 
  40   0.0000      -0.123454        -3.3594 
  41   0.0000      -0.038004        -1.0342 
  42   0.0000      -0.019967        -0.5433 
  43   0.0000      -0.006217        -0.1692 
  44   0.0000       0.001337         0.0364 
  45   0.0000       0.013940         0.3793 
  46   0.0000       0.016263         0.4426 
  47   0.0000       0.031325         0.8524 
  48   0.0000       0.075956         2.0669 
  49   0.0000       0.085449         2.3252 
  50   0.0000       0.087510         2.3813 
  51   0.0000       0.098246         2.6734 
  52   0.0000       0.105574         2.8728 
  53   0.0000       0.120204         3.2709 
  54   0.0000       0.122939         3.3453 
  55   0.0000       0.125706         3.4206 
  56   0.0000       0.131501         3.5783 
  57   0.0000       0.165237         4.4963 
  58   0.0000       0.167993         4.5713 
  59   0.0000       0.189170         5.1476 
  60   0.0000       0.195131         5.3098 
  61   0.0000       0.203202         5.5294 
  62   0.0000       0.226124         6.1531 
  63   0.0000       0.234412         6.3787 
  64   0.0000       0.237696         6.4680 
  65   0.0000       0.248101         6.7512 
  66   0.0000       0.257184         6.9983 
  67   0.0000       0.263617         7.1734 
  68   0.0000       0.285475         7.7682 
  69   0.0000       0.308800         8.4029 
  70   0.0000       0.317093         8.6285 
  71   0.0000       0.326891         8.8952 
  72   0.0000       0.346412         9.4263 
  73   0.0000       0.349154         9.5010 
  74   0.0000       0.365286         9.9399 
  75   0.0000       0.386204        10.5092 
  76   0.0000       0.411754        11.2044 
  77   0.0000       0.414235        11.2719 
  78   0.0000       0.440166        11.9775 
  79   0.0000       0.450756        12.2657 
  80   0.0000       0.461746        12.5648 
  81   0.0000       0.487798        13.2736 
  82   0.0000       0.509829        13.8732 
  83   0.0000       0.526745        14.3335 
  84   0.0000       0.541908        14.7461 
  85   0.0000       0.545485        14.8434 
  86   0.0000       0.555047        15.1036 
  87   0.0000       0.577144        15.7049 
  88   0.0000       0.579623        15.7723 
  89   0.0000       0.607657        16.5352 
  90   0.0000       0.617099        16.7921 
  91   0.0000       0.653754        17.7896 
  92   0.0000       0.684162        18.6170 
  93   0.0000       0.688746        18.7417 
  94   0.0000       0.751074        20.4378 
  95   0.0000       0.760358        20.6904 
  96   0.0000       0.785853        21.3841 
  97   0.0000       0.804256        21.8849 
  98   0.0000       0.835175        22.7263 
  99   0.0000       0.844930        22.9917 
 100   0.0000       0.880538        23.9606 
 101   0.0000       0.892985        24.2994 
 102   0.0000       0.905649        24.6440 
 103   0.0000       0.916815        24.9478 
 104   0.0000       0.952708        25.9245 
 105   0.0000       0.971764        26.4430 
 106   0.0000       0.996209        27.1082 
 107   0.0000       1.023135        27.8409 
 108   0.0000       1.046301        28.4713 
 109   0.0000       1.064359        28.9627 
 110   0.0000       1.067597        29.0508 
 111   0.0000       1.078913        29.3587 
 112   0.0000       1.114579        30.3292 
 113   0.0000       1.116087        30.3703 
 114   0.0000       1.168783        31.8042 
 115   0.0000       1.185205        32.2511 
 116   0.0000       1.197273        32.5795 
 117   0.0000       1.199098        32.6291 
 118   0.0000       1.247327        33.9415 
 119   0.0000       1.255933        34.1757 
 120   0.0000       1.259058        34.2607 
 121   0.0000       1.276950        34.7476 
 122   0.0000       1.282724        34.9047 
 123   0.0000       1.298834        35.3431 
 124   0.0000       1.318567        35.8800 
 125   0.0000       1.319919        35.9168 
 126   0.0000       1.357524        36.9401 
 127   0.0000       1.357951        36.9517 
 128   0.0000       1.378105        37.5002 
 129   0.0000       1.396211        37.9928 
 130   0.0000       1.402877        38.1742 
 131   0.0000       1.415226        38.5103 
 132   0.0000       1.422823        38.7170 
 133   0.0000       1.442283        39.2465 
 134   0.0000       1.444795        39.3149 
 135   0.0000       1.468387        39.9569 
 136   0.0000       1.497764        40.7562 
 137   0.0000       1.510130        41.0927 
 138   0.0000       1.518660        41.3248 
 139   0.0000       1.531636        41.6779 
 140   0.0000       1.548811        42.1453 
 141   0.0000       1.578432        42.9513 
 142   0.0000       1.592894        43.3448 
 143   0.0000       1.602945        43.6184 
 144   0.0000       1.623063        44.1658 
 145   0.0000       1.653818        45.0027 
 146   0.0000       1.663843        45.2755 
 147   0.0000       1.668579        45.4043 
 148   0.0000       1.698967        46.2313 
 149   0.0000       1.727876        47.0179 
 150   0.0000       1.753428        47.7132 
 151   0.0000       1.796371        48.8817 
 152   0.0000       1.797833        48.9215 
 153   0.0000       1.834616        49.9224 
 154   0.0000       1.917784        52.1856 
 155   0.0000       1.939733        52.7828 
 156   0.0000       1.961133        53.3651 
 157   0.0000       2.032731        55.3134 
 158   0.0000       2.049765        55.7769 
 159   0.0000       2.125163        57.8286 
 160   0.0000       2.166463        58.9525 
 161   0.0000       2.239114        60.9294 
 162   0.0000       2.251764        61.2736 
 163   0.0000       2.261299        61.5331 
 164   0.0000       2.308466        62.8166 
 165   0.0000       2.344452        63.7958 
 166   0.0000       2.366162        64.3865 
 167   0.0000       2.384340        64.8812 
 168   0.0000       2.458148        66.8896 
 169   0.0000       2.489143        67.7330 
 170   0.0000       2.515333        68.4457 
 171   0.0000       2.552772        69.4644 
 172   0.0000       2.566478        69.8374 
 173   0.0000       2.594625        70.6033 
 174   0.0000       2.617506        71.2260 
 175   0.0000       2.638667        71.8018 
 176   0.0000       2.640309        71.8465 
 177   0.0000       2.667353        72.5824 
 178   0.0000       2.675770        72.8114 
 179   0.0000       2.730095        74.2897 
 180   0.0000       2.742983        74.6403 
 181   0.0000       2.780209        75.6533 
 182   0.0000       2.798294        76.1454 
 183   0.0000       2.815201        76.6055 
 184   0.0000       2.843403        77.3729 
 185   0.0000       2.854270        77.6686 
 186   0.0000       2.897053        78.8328 
 187   0.0000       2.904003        79.0219 
 188   0.0000       2.908715        79.1502 
 189   0.0000       2.912788        79.2610 
 190   0.0000       2.969328        80.7995 
 191   0.0000       2.984488        81.2121 
 192   0.0000       2.994459        81.4834 
 193   0.0000       3.007143        81.8285 
 194   0.0000       3.013664        82.0060 
 195   0.0000       3.042467        82.7897 
 196   0.0000       3.110125        84.6308 
 197   0.0000       3.121163        84.9312 
 198   0.0000       3.132995        85.2531 
 199   0.0000       3.134122        85.2838 
 200   0.0000       3.166165        86.1557 
 201   0.0000       3.194302        86.9214 
 202   0.0000       3.215996        87.5117 
 203   0.0000       3.218515        87.5803 
 204   0.0000       3.265063        88.8469 
 205   0.0000       3.272174        89.0404 
 206   0.0000       3.279855        89.2494 
 207   0.0000       3.312784        90.1454 
 208   0.0000       3.350266        91.1654 
 209   0.0000       3.361615        91.4742 
 210   0.0000       3.366578        91.6092 
 211   0.0000       3.382950        92.0548 
 212   0.0000       3.421655        93.1080 
 213   0.0000       3.495482        95.1169 
 214   0.0000       3.529984        96.0557 
 215   0.0000       3.535345        96.2016 
 216   0.0000       3.574771        97.2745 
 217   0.0000       3.628767        98.7438 
 218   0.0000       3.645557        99.2007 
 219   0.0000       3.655496        99.4711 
 220   0.0000       3.693801       100.5134 
 221   0.0000       3.697328       100.6094 
 222   0.0000       3.712998       101.0358 
 223   0.0000       3.719583       101.2150 
 224   0.0000       3.727714       101.4363 
 225   0.0000       3.755456       102.1912 
 226   0.0000       3.757928       102.2584 
 227   0.0000       3.789522       103.1181 
 228   0.0000       3.850152       104.7680 
 229   0.0000       3.881861       105.6308 
 230   0.0000       3.891293       105.8875 
 231   0.0000       3.905832       106.2831 
 232   0.0000       3.945590       107.3650 
 233   0.0000       3.984714       108.4296 
 234   0.0000       4.005926       109.0068 
 235   0.0000       4.013080       109.2015 
 236   0.0000       4.042793       110.0100 
 237   0.0000       4.070826       110.7728 
 238   0.0000       4.072073       110.8067 
 239   0.0000       4.090036       111.2955 
 240   0.0000       4.169453       113.4566 
 241   0.0000       4.174789       113.6018 
 242   0.0000       4.207619       114.4951 
 243   0.0000       4.222854       114.9097 
 244   0.0000       4.226321       115.0040 
 245   0.0000       4.263172       116.0068 
 246   0.0000       4.269876       116.1892 
 247   0.0000       4.287083       116.6575 
 248   0.0000       4.327138       117.7474 
 249   0.0000       4.365112       118.7807 
 250   0.0000       4.439404       120.8023 
 251   0.0000       4.486625       122.0873 
 252   0.0000       4.499199       122.4294 
 253   0.0000       4.515796       122.8810 
 254   0.0000       4.634093       126.1001 
 255   0.0000       4.638924       126.2315 
 256   0.0000       4.647990       126.4782 
 257   0.0000       4.686486       127.5258 
 258   0.0000       4.740382       128.9923 
 259   0.0000       4.769998       129.7982 
 260   0.0000       4.813842       130.9913 
 261   0.0000       4.847054       131.8950 
 262   0.0000       4.864213       132.3620 
 263   0.0000       4.882693       132.8648 
 264   0.0000       4.931415       134.1906 
 265   0.0000       4.973600       135.3385 
 266   0.0000       5.004870       136.1894 
 267   0.0000       5.034595       136.9983 
 268   0.0000       5.093543       138.6023 
 269   0.0000       5.109791       139.0445 
 270   0.0000       5.184842       141.0867 
 271   0.0000       5.194305       141.3442 
 272   0.0000       5.236279       142.4864 
 273   0.0000       5.245101       142.7265 
 274   0.0000       5.292350       144.0122 
 275   0.0000       5.397862       146.8833 
 276   0.0000       5.412951       147.2939 
 277   0.0000       5.575606       151.7200 
 278   0.0000       5.664282       154.1330 
 279   0.0000       5.724657       155.7758 
 280   0.0000       5.904490       160.6693 
 281   0.0000       6.012213       163.6006 
 282   0.0000       6.428850       174.9379 
 283   0.0000       7.661236       208.4728 
 284   0.0000      22.774202       619.7175 
 285   0.0000      23.122998       629.2088 
 286   0.0000      23.267242       633.1338 
 287   0.0000      23.416001       637.1818 
 288   0.0000      23.712327       645.2452 
 289   0.0000      32.647625       888.3870 

                    ********************************
                    * MULLIKEN POPULATION ANALYSIS *
                    ********************************

--------------------------------------------
MULLIKEN ATOMIC CHARGES AND SPIN POPULATIONS
--------------------------------------------
   0 Br:    0.311015    0.303352
   1 C :    0.028267    0.238294
   2 C :   -0.046102   -0.008562
   3 C :   -0.038489    0.052323
   4 C :    0.108625    0.277092
   5 N :   -0.184519   -0.070787
   6 C :    0.093795    0.212629
   7 H :    0.183960   -0.001080
   8 H :    0.179305   -0.000533
   9 H :    0.186146   -0.000432
  10 H :    0.177999   -0.002295
Sum of atomic charges         :    1.0000000
Sum of atomic spin populations:    1.0000000

-----------------------------------------------------
MULLIKEN REDUCED ORBITAL CHARGES AND SPIN POPULATIONS
-----------------------------------------------------
CHARGE
  0 Brs       :     7.923462  s :     7.923462
      pz      :     5.630609  p :    16.703489
      px      :     5.127626
      py      :     5.945254
      dz2     :     2.006978  d :    10.054372
      dxz     :     2.018417
      dyz     :     2.000240
      dx2y2   :     2.021512
      dxy     :     2.007225
      f0      :     0.000796  f :     0.007663
      f+1     :     0.001332
      f-1     :     0.000089
      f+2     :     0.001300
      f-2     :     0.000031
      f+3     :     0.002786
      f-3     :     0.001330
  1 C s       :     3.242772  s :     3.242772
      pz      :     0.864957  p :     2.557332
      px      :     0.769672
      py      :     0.922703
      dz2     :     0.008728  d :     0.162382
      dxz     :     0.024552
      dyz     :     0.023107
      dx2y2   :     0.059688
      dxy     :     0.046307
      f0      :     0.001679  f :     0.009248
      f+1     :     0.000876
      f-1     :     0.000581
      f+2     :     0.000476
      f-2     :     0.001000
      f+3     :     0.001379
      f-3     :     0.003256
  2 C s       :     3.176306  s :     3.176306
      pz      :     0.863500  p :     2.772548
      px      :     0.946517
      py      :     0.962531
      dz2     :     0.004560  d :     0.089815
      dxz     :     0.016316
      dyz     :     0.011549
      dx2y2   :     0.018875
      dxy     :     0.038515
      f0      :     0.001532  f :     0.007433
      f+1     :     0.000577
      f-1     :     0.000543
      f+2     :     0.000628
      f-2     :     0.000452
      f+3     :     0.001153
      f-3     :     0.002548
  3 C s       :     3.205083  s :     3.205083
      pz      :     0.859606  p :     2.745271
      px      :     0.918522
      py      :     0.967143
      dz2     :     0.005360  d :     0.081104
      dxz     :     0.013879
      dyz     :     0.008265
      dx2y2   :     0.020238
      dxy     :     0.033362
      f0      :     0.001414  f :     0.007032
      f+1     :     0.000552
      f-1     :     0.000541
      f+2     :     0.000691
      f-2     :     0.000264
      f+3     :     0.001116
      f-3     :     0.002454
  4 C s       :     3.193312  s :     3.193312
      pz      :     0.704699  p :     2.565032
      px      :     1.034551
      py      :     0.825782
      dz2     :     0.002387  d :     0.122252
      dxz     :     0.013190
      dyz     :     0.027201
      dx2y2   :     0.051107
      dxy     :     0.028368
      f0      :     0.001597  f :     0.010779
      f+1     :     0.000563
      f-1     :     0.000816
      f+2     :     0.000371
      f-2     :     0.001442
      f+3     :     0.001788
      f-3     :     0.004203
  5 N s       :     3.629035  s :     3.629035
      pz      :     1.057567  p :     3.490002
      px      :     1.079029
      py      :     1.353406
      dz2     :     0.006123  d :     0.061740
      dxz     :     0.009164
      dyz     :     0.010232
      dx2y2   :     0.019943
      dxy     :     0.016276
      f0      :     0.000637  f :     0.003742
      f+1     :     0.000365
      f-1     :     0.000248
      f+2     :     0.000380
      f-2     :     0.000266
      f+3     :     0.000831
      f-3     :     0.001015
  6 C s       :     3.173042  s :     3.173042
      pz      :     0.751286  p :     2.595118
      px      :     0.879879
      py      :     0.963953
      dz2     :     0.002695  d :     0.127193
      dxz     :     0.027520
      dyz     :     0.012230
      dx2y2   :     0.023938
      dxy     :     0.060810
      f0      :     0.001686  f :     0.010852
      f+1     :     0.000935
      f-1     :     0.000542
      f+2     :     0.001375
      f-2     :     0.000459
      f+3     :     0.001772
      f-3     :     0.004083
  7 H s       :     0.778938  s :     0.778938
      pz      :     0.008653  p :     0.034674
      px      :     0.009558
      py      :     0.016463
      dz2     :     0.000162  d :     0.002429
      dxz     :     0.000173
      dyz     :     0.000501
      dx2y2   :     0.000921
      dxy     :     0.000672
  8 H s       :     0.785763  s :     0.785763
      pz      :     0.008314  p :     0.032577
      px      :     0.009724
      py      :     0.014539
      dz2     :     0.000160  d :     0.002355
      dxz     :     0.000224
      dyz     :     0.000455
      dx2y2   :     0.000907
      dxy     :     0.000610
  9 H s       :     0.781749  s :     0.781749
      pz      :     0.006515  p :     0.029645
      px      :     0.017358
      py      :     0.005771
      dz2     :     0.000171  d :     0.002460
      dxz     :     0.000623
      dyz     :     0.000013
      dx2y2   :     0.000621
      dxy     :     0.001033
 10 H s       :     0.786364  s :     0.786364
      pz      :     0.007287  p :     0.033046
      px      :     0.008159
      py      :     0.017600
      dz2     :     0.000185  d :     0.002590
      dxz     :     0.000174
      dyz     :     0.000509
      dx2y2   :     0.000977
      dxy     :     0.000745

SPIN
  0 Brs       :     0.000869  s :     0.000869
      pz      :     0.311693  p :     0.305033
      px      :    -0.006832
      py      :     0.000172
      dz2     :     0.000794  d :    -0.002293
      dxz     :    -0.002893
      dyz     :    -0.000019
      dx2y2   :    -0.000060
      dxy     :    -0.000114
      f0      :    -0.000022  f :    -0.000257
      f+1     :    -0.000193
      f-1     :     0.000001
      f+2     :    -0.000025
      f-2     :     0.000001
      f+3     :    -0.000017
      f-3     :    -0.000003
  1 C s       :     0.003064  s :     0.003064
      pz      :     0.221056  p :     0.232658
      px      :     0.006713
      py      :     0.004889
      dz2     :    -0.000522  d :     0.002404
      dxz     :     0.001009
      dyz     :     0.002394
      dx2y2   :     0.000351
      dxy     :    -0.000828
      f0      :     0.000006  f :     0.000167
      f+1     :    -0.000109
      f-1     :    -0.000098
      f+2     :     0.000234
      f-2     :     0.000106
      f+3     :    -0.000041
      f-3     :     0.000069
  2 C s       :    -0.000774  s :    -0.000774
      pz      :    -0.007499  p :    -0.012984
      px      :    -0.001870
      py      :    -0.003616
      dz2     :     0.000176  d :     0.004677
      dxz     :     0.001553
      dyz     :     0.003069
      dx2y2   :    -0.000531
      dxy     :     0.000410
      f0      :     0.000069  f :     0.000520
      f+1     :    -0.000007
      f-1     :     0.000004
      f+2     :     0.000230
      f-2     :     0.000174
      f+3     :     0.000012
      f-3     :     0.000038
  3 C s       :    -0.002638  s :    -0.002638
      pz      :     0.053823  p :     0.050551
      px      :     0.001303
      py      :    -0.004575
      dz2     :    -0.000219  d :     0.004085
      dxz     :     0.001345
      dyz     :     0.003011
      dx2y2   :    -0.000239
      dxy     :     0.000188
      f0      :     0.000046  f :     0.000325
      f+1     :    -0.000039
      f-1     :    -0.000022
      f+2     :     0.000123
      f-2     :     0.000182
      f+3     :    -0.000012
      f-3     :     0.000047
  4 C s       :     0.008258  s :     0.008258
      pz      :     0.255654  p :     0.270872
      px      :     0.007049
      py      :     0.008169
      dz2     :    -0.000978  d :    -0.001631
      dxz     :    -0.001378
      dyz     :     0.000648
      dx2y2   :    -0.000011
      dxy     :     0.000088
      f0      :    -0.000171  f :    -0.000407
      f+1     :    -0.000153
      f-1     :    -0.000132
      f+2     :     0.000106
      f-2     :    -0.000022
      f+3     :    -0.000065
      f-3     :     0.000030
  5 N s       :    -0.005382  s :    -0.005382
      pz      :    -0.056527  p :    -0.071672
      px      :    -0.008431
      py      :    -0.006715
      dz2     :     0.000049  d :     0.005854
      dxz     :     0.003681
      dyz     :     0.001868
      dx2y2   :     0.000068
      dxy     :     0.000188
      f0      :     0.000060  f :     0.000413
      f+1     :     0.000017
      f-1     :     0.000013
      f+2     :     0.000170
      f-2     :     0.000120
      f+3     :     0.000013
      f-3     :     0.000019
  6 C s       :     0.004988  s :     0.004988
      pz      :     0.197854  p :     0.205847
      px      :     0.006117
      py      :     0.001876
      dz2     :    -0.000657  d :     0.001864
      dxz     :    -0.000845
      dyz     :     0.003569
      dx2y2   :    -0.000420
      dxy     :     0.000216
      f0      :    -0.000097  f :    -0.000070
      f+1     :    -0.000128
      f-1     :    -0.000109
      f+2     :     0.000070
      f-2     :     0.000200
      f+3     :    -0.000044
      f-3     :     0.000039
  7 H s       :    -0.000918  s :    -0.000918
      pz      :    -0.000217  p :    -0.000147
      px      :    -0.000069
      py      :     0.000139
      dz2     :     0.000001  d :    -0.000015
      dxz     :    -0.000014
      dyz     :     0.000005
      dx2y2   :    -0.000005
      dxy     :    -0.000002
  8 H s       :    -0.001377  s :    -0.001377
      pz      :     0.000506  p :     0.000778
      px      :     0.000032
      py      :     0.000239
      dz2     :    -0.000000  d :     0.000066
      dxz     :    -0.000002
      dyz     :     0.000058
      dx2y2   :     0.000008
      dxy     :     0.000003
  9 H s       :    -0.004276  s :    -0.004276
      pz      :     0.002603  p :     0.003494
      px      :     0.000764
      py      :     0.000126
      dz2     :    -0.000002  d :     0.000350
      dxz     :     0.000287
      dyz     :     0.000004
      dx2y2   :     0.000015
      dxy     :     0.000046
 10 H s       :    -0.005040  s :    -0.005040
      pz      :     0.001924  p :     0.002483
      px      :     0.000051
      py      :     0.000507
      dz2     :    -0.000001  d :     0.000263
      dxz     :     0.000041
      dyz     :     0.000179
      dx2y2   :     0.000034
      dxy     :     0.000010


                     *******************************
                     * LOEWDIN POPULATION ANALYSIS *
                     *******************************

-------------------------------------------
LOEWDIN ATOMIC CHARGES AND SPIN POPULATIONS
-------------------------------------------
   0 Br:    0.683088    0.308713
   1 C :   -0.275409    0.207909
   2 C :    0.044422    0.018719
   3 C :    0.076817    0.067306
   4 C :    0.045277    0.217661
   5 N :    0.231254   -0.027049
   6 C :   -0.006856    0.186623
   7 H :    0.050082   -0.001236
   8 H :    0.051383    0.002092
   9 H :    0.051826    0.011395
  10 H :    0.048116    0.007866

----------------------------------------------------
LOEWDIN REDUCED ORBITAL CHARGES AND SPIN POPULATIONS
----------------------------------------------------
CHARGE
  0 Brs       :     7.587703  s :     7.587703
      pz      :     5.579266  p :    16.602091
      px      :     5.148685
      py      :     5.874140
      dz2     :     2.015871  d :    10.112172
      dxz     :     2.027362
      dyz     :     2.000302
      dx2y2   :     2.047697
      dxy     :     2.020941
      f0      :     0.001268  f :     0.014946
      f+1     :     0.002795
      f-1     :     0.000226
      f+2     :     0.001976
      f-2     :     0.000019
      f+3     :     0.005496
      f-3     :     0.003165
  1 C s       :     2.791486  s :     2.791486
      pz      :     0.787580  p :     2.880626
      px      :     0.986893
      py      :     1.106152
      dz2     :     0.039165  d :     0.548471
      dxz     :     0.065219
      dyz     :     0.073897
      dx2y2   :     0.208997
      dxy     :     0.161193
      f0      :     0.003697  f :     0.054826
      f+1     :     0.004223
      f-1     :     0.004314
      f+2     :     0.003162
      f-2     :     0.007747
      f+3     :     0.009362
      f-3     :     0.022321
  2 C s       :     2.725472  s :     2.725472
      pz      :     0.774081  p :     2.802893
      px      :     1.030412
      py      :     0.998400
      dz2     :     0.027066  d :     0.383081
      dxz     :     0.050021
      dyz     :     0.029192
      dx2y2   :     0.120725
      dxy     :     0.156078
      f0      :     0.002844  f :     0.044131
      f+1     :     0.003924
      f-1     :     0.003583
      f+2     :     0.004813
      f-2     :     0.003387
      f+3     :     0.008836
      f-3     :     0.016744
  3 C s       :     2.727541  s :     2.727541
      pz      :     0.764733  p :     2.787027
      px      :     1.011668
      py      :     1.010625
      dz2     :     0.026011  d :     0.366029
      dxz     :     0.043159
      dyz     :     0.026266
      dx2y2   :     0.115314
      dxy     :     0.155279
      f0      :     0.002634  f :     0.042586
      f+1     :     0.003710
      f-1     :     0.003537
      f+2     :     0.005372
      f-2     :     0.002142
      f+3     :     0.008605
      f-3     :     0.016586
  4 C s       :     2.741102  s :     2.741102
      pz      :     0.642477  p :     2.646782
      px      :     0.999564
      py      :     1.004741
      dz2     :     0.032338  d :     0.502724
      dxz     :     0.022728
      dyz     :     0.085655
      dx2y2   :     0.232192
      dxy     :     0.129811
      f0      :     0.003561  f :     0.064115
      f+1     :     0.003446
      f-1     :     0.005704
      f+2     :     0.002292
      f-2     :     0.010199
      f+3     :     0.011795
      f-3     :     0.027119
  5 N s       :     3.039045  s :     3.039045
      pz      :     0.972469  p :     3.508045
      px      :     1.186592
      py      :     1.348984
      dz2     :     0.018414  d :     0.203772
      dxz     :     0.025494
      dyz     :     0.015952
      dx2y2   :     0.075258
      dxy     :     0.068654
      f0      :     0.001215  f :     0.017885
      f+1     :     0.001850
      f-1     :     0.001036
      f+2     :     0.001778
      f-2     :     0.000886
      f+3     :     0.004001
      f-3     :     0.007119
  6 C s       :     2.741920  s :     2.741920
      pz      :     0.685560  p :     2.693528
      px      :     0.988382
      py      :     1.019586
      dz2     :     0.034430  d :     0.507711
      dxz     :     0.074104
      dyz     :     0.031500
      dx2y2   :     0.143274
      dxy     :     0.224402
      f0      :     0.003690  f :     0.063697
      f+1     :     0.006020
      f-1     :     0.003590
      f+2     :     0.009242
      f-2     :     0.003202
      f+3     :     0.011619
      f-3     :     0.026335
  7 H s       :     0.778275  s :     0.778275
      pz      :     0.033026  p :     0.142437
      px      :     0.042007
      py      :     0.067404
      dz2     :     0.002899  d :     0.029206
      dxz     :     0.001938
      dyz     :     0.005875
      dx2y2   :     0.009384
      dxy     :     0.009110
  8 H s       :     0.776571  s :     0.776571
      pz      :     0.032880  p :     0.143003
      px      :     0.045258
      py      :     0.064865
      dz2     :     0.002895  d :     0.029043
      dxz     :     0.002403
      dyz     :     0.005271
      dx2y2   :     0.009352
      dxy     :     0.009122
  9 H s       :     0.784957  s :     0.784957
      pz      :     0.025038  p :     0.134989
      px      :     0.081999
      py      :     0.027952
      dz2     :     0.002995  d :     0.028229
      dxz     :     0.006317
      dyz     :     0.000065
      dx2y2   :     0.009902
      dxy     :     0.008950
 10 H s       :     0.785941  s :     0.785941
      pz      :     0.028051  p :     0.137254
      px      :     0.038270
      py      :     0.070933
      dz2     :     0.003001  d :     0.028689
      dxz     :     0.001824
      dyz     :     0.005169
      dx2y2   :     0.009192
      dxy     :     0.009502

SPIN
  0 Brs       :     0.001485  s :     0.001485
      pz      :     0.302983  p :     0.298395
      px      :    -0.005380
      py      :     0.000793
      dz2     :     0.001017  d :     0.007793
      dxz     :     0.006563
      dyz     :    -0.000002
      dx2y2   :     0.000312
      dxy     :    -0.000096
      f0      :     0.000477  f :     0.001039
      f+1     :    -0.000164
      f-1     :     0.000025
      f+2     :     0.000665
      f-2     :     0.000001
      f+3     :     0.000041
      f-3     :    -0.000006
  1 C s       :     0.003178  s :     0.003178
      pz      :     0.183816  p :     0.188517
      px      :     0.003161
      py      :     0.001540
      dz2     :    -0.000322  d :     0.014641
      dxz     :     0.008579
      dyz     :     0.005936
      dx2y2   :     0.000349
      dxy     :     0.000098
      f0      :    -0.000091  f :     0.001573
      f+1     :    -0.000133
      f-1     :    -0.000107
      f+2     :     0.001239
      f-2     :     0.000594
      f+3     :    -0.000047
      f-3     :     0.000118
  2 C s       :    -0.000764  s :    -0.000764
      pz      :    -0.000169  p :    -0.003717
      px      :    -0.001409
      py      :    -0.002139
      dz2     :     0.000008  d :     0.019981
      dxz     :     0.010213
      dyz     :     0.009456
      dx2y2   :     0.000012
      dxy     :     0.000291
      f0      :     0.000275  f :     0.003220
      f+1     :     0.000002
      f-1     :     0.000019
      f+2     :     0.001517
      f-2     :     0.001310
      f+3     :     0.000079
      f-3     :     0.000020
  3 C s       :     0.000256  s :     0.000256
      pz      :     0.048267  p :     0.047052
      px      :     0.000339
      py      :    -0.001554
      dz2     :    -0.000142  d :     0.017605
      dxz     :     0.007786
      dyz     :     0.009414
      dx2y2   :     0.000200
      dxy     :     0.000346
      f0      :     0.000160  f :     0.002394
      f+1     :    -0.000038
      f-1     :    -0.000008
      f+2     :     0.001080
      f-2     :     0.001096
      f+3     :     0.000025
      f-3     :     0.000079
  4 C s       :     0.004012  s :     0.004012
      pz      :     0.211874  p :     0.219013
      px      :     0.003567
      py      :     0.003571
      dz2     :    -0.000728  d :    -0.004239
      dxz     :    -0.002167
      dyz     :    -0.000561
      dx2y2   :    -0.000296
      dxy     :    -0.000487
      f0      :    -0.000604  f :    -0.001124
      f+1     :    -0.000134
      f-1     :    -0.000158
      f+2     :     0.000263
      f-2     :    -0.000292
      f+3     :    -0.000168
      f-3     :    -0.000031
  5 N s       :    -0.001225  s :    -0.001225
      pz      :    -0.042009  p :    -0.050588
      px      :    -0.004545
      py      :    -0.004034
      dz2     :     0.000151  d :     0.022726
      dxz     :     0.015567
      dyz     :     0.005885
      dx2y2   :     0.000649
      dxy     :     0.000474
      f0      :     0.000207  f :     0.002038
      f+1     :     0.000026
      f-1     :     0.000016
      f+2     :     0.001093
      f-2     :     0.000574
      f+3     :     0.000078
      f-3     :     0.000046
  6 C s       :     0.002674  s :     0.002674
      pz      :     0.168913  p :     0.172508
      px      :     0.002951
      py      :     0.000644
      dz2     :    -0.000504  d :     0.010426
      dxz     :     0.002089
      dyz     :     0.008973
      dx2y2   :    -0.000320
      dxy     :     0.000188
      f0      :    -0.000282  f :     0.001015
      f+1     :    -0.000136
      f-1     :    -0.000094
      f+2     :     0.000463
      f-2     :     0.001183
      f+3     :    -0.000104
      f-3     :    -0.000015
  7 H s       :    -0.000473  s :    -0.000473
      pz      :    -0.000388  p :    -0.000664
      px      :    -0.000160
      py      :    -0.000116
      dz2     :    -0.000000  d :    -0.000099
      dxz     :    -0.000087
      dyz     :     0.000051
      dx2y2   :    -0.000041
      dxy     :    -0.000022
  8 H s       :    -0.001194  s :    -0.001194
      pz      :     0.002523  p :     0.002647
      px      :     0.000001
      py      :     0.000124
      dz2     :     0.000002  d :     0.000638
      dxz     :     0.000072
      dyz     :     0.000548
      dx2y2   :    -0.000005
      dxy     :     0.000022
  9 H s       :    -0.004601  s :    -0.004601
      pz      :     0.011435  p :     0.012905
      px      :     0.001330
      py      :     0.000141
      dz2     :     0.000012  d :     0.003091
      dxz     :     0.002771
      dyz     :     0.000022
      dx2y2   :     0.000174
      dxy     :     0.000112
 10 H s       :    -0.004066  s :    -0.004066
      pz      :     0.008510  p :     0.009520
      px      :     0.000264
      py      :     0.000747
      dz2     :     0.000011  d :     0.002412
      dxz     :     0.000465
      dyz     :     0.001747
      dx2y2   :     0.000081
      dxy     :     0.000107


                      *****************************
                      * MAYER POPULATION ANALYSIS *
                      *****************************

  NA   - Mulliken gross atomic population
  ZA   - Total nuclear charge
  QA   - Mulliken gross atomic charge
  VA   - Mayer's total valence
  BVA  - Mayer's bonded valence
  FA   - Mayer's free valence

  ATOM       NA         ZA         QA         VA         BVA        FA
  0 Br    34.6890    35.0000     0.3110     1.7108     1.6036     0.1072
  1 C      5.9717     6.0000     0.0283     3.9968     3.9397     0.0571
  2 C      6.0461     6.0000    -0.0461     3.8548     3.8535     0.0013
  3 C      6.0385     6.0000    -0.0385     3.8827     3.8776     0.0051
  4 C      5.8914     6.0000     0.1086     3.9117     3.8451     0.0665
  5 N      7.1845     7.0000    -0.1845     3.0658     3.0623     0.0034
  6 C      5.9062     6.0000     0.0938     3.8926     3.8504     0.0422
  7 H      0.8160     1.0000     0.1840     0.9831     0.9831     0.0000
  8 H      0.8207     1.0000     0.1793     0.9854     0.9854     0.0000
  9 H      0.8139     1.0000     0.1861     0.9759     0.9758     0.0000
 10 H      0.8220     1.0000     0.1780     0.9806     0.9806     0.0000

  Mayer bond orders larger than 0.100000
B(  0-Br,  1-C ) :   1.4399 B(  1-C ,  2-C ) :   1.2683 B(  1-C ,  6-C ) :   1.1460 
B(  2-C ,  3-C ) :   1.5197 B(  2-C ,  7-H ) :   0.9448 B(  3-C ,  4-C ) :   1.2443 
B(  3-C ,  8-H ) :   0.9495 B(  4-C ,  5-N ) :   1.3943 B(  4-C ,  9-H ) :   0.9646 
B(  5-N ,  6-C ) :   1.5377 B(  6-C , 10-H ) :   0.9783 


------------------
HIRSHFELD ANALYSIS
------------------

Total integrated alpha density =     37.999991255
Total integrated beta density  =     36.999995571

  ATOM     CHARGE      SPIN    
   0 Br   0.269199    0.309203
   1 C    0.101425    0.209169
   2 C    0.033857    0.016390
   3 C    0.047410    0.066409
   4 C    0.163065    0.216816
   5 N   -0.118291   -0.019243
   6 C    0.135995    0.182528
   7 H    0.086938   -0.001321
   8 H    0.091985    0.002608
   9 H    0.098012    0.010795
  10 H    0.090418    0.006642

  TOTAL   1.000013    0.999996

-------
TIMINGS
-------

Total SCF time: 0 days 0 hours 0 min 51 sec 

Total time                  ....      51.086 sec
Sum of individual times     ....      50.264 sec  ( 98.4%)

Fock matrix formation       ....      46.946 sec  ( 91.9%)
  Split-RI-J                ....       2.517 sec  (  5.4% of F)
  Chain of spheres X        ....      31.641 sec  ( 67.4% of F)
  XC integration            ....      12.514 sec  ( 26.7% of F)
    Basis function eval.    ....       0.560 sec  (  4.5% of XC)
    Density eval.           ....       2.372 sec  ( 19.0% of XC)
    XC-Functional eval.     ....       0.319 sec  (  2.6% of XC)
    XC-Potential eval.      ....       4.022 sec  ( 32.1% of XC)
Diagonalization             ....       0.888 sec  (  1.7%)
Density matrix formation    ....       0.054 sec  (  0.1%)
Population analysis         ....       0.718 sec  (  1.4%)
Initial guess               ....       0.134 sec  (  0.3%)
Orbital Transformation      ....       0.000 sec  (  0.0%)
Orbital Orthonormalization  ....       0.000 sec  (  0.0%)
DIIS solution               ....       0.494 sec  (  1.0%)
Grid generation             ....       1.030 sec  (  2.0%)

Maximum memory used throughout the entire SCF-calculation: 78.2 MB

-------------------------   --------------------
FINAL SINGLE POINT ENERGY     -2821.349823646019
-------------------------   --------------------


                            ***************************************
                            *     ORCA property calculations      *
                            ***************************************

                                    ---------------------
                                    Active property flags
                                    ---------------------
   (+) Dipole Moment


------------------------------------------------------------------------------
                       ORCA ELECTRIC PROPERTIES CALCULATION
------------------------------------------------------------------------------

Dipole Moment Calculation                       ... on
Quadrupole Moment Calculation                   ... off
Polarizability Calculation                      ... off
GBWName                                         ... arbr_12_r2scan3c_wB97MV_ox.gbw
Electron density                                ... arbr_12_r2scan3c_wB97MV_ox.scfp
The origin for moment calculation is the CENTER OF MASS  = (-0.295472, -0.022066  0.000000)

-------------
DIPOLE MOMENT
-------------
                                X             Y             Z
Electronic contribution:    -21.01224      -0.87653      -0.00001
Nuclear contribution   :     22.45567       1.67682       0.00002
                        -----------------------------------------
Total Dipole Moment    :      1.44343       0.80030       0.00000
                        -----------------------------------------
Magnitude (a.u.)       :      1.65045
Magnitude (Debye)      :      4.19510



--------------------
Rotational spectrum 
--------------------
 
Rotational constants in cm-1:     0.197201     0.033448     0.028598 
Rotational constants in MHz :  5911.936316  1002.759880   857.341000 

 Dipole components along the rotational axes: 
x,y,z [a.u.] :     1.432990    -0.818851     0.000007 
x,y,z [Debye]:     3.642370    -2.081355     0.000017 

 

Timings for individual modules:

Sum of individual times         ...       52.098 sec (=   0.868 min)
GTO integral calculation        ...        0.717 sec (=   0.012 min)   1.4 %
SCF iterations                  ...       51.380 sec (=   0.856 min)  98.6 %
                             ****ORCA TERMINATED NORMALLY****
TOTAL RUN TIME: 0 days 0 hours 0 minutes 52 seconds 624 msec
