
                                 *****************
                                 * O   R   C   A *
                                 *****************

                                            #,                                       
                                            ###                                      
                                            ####                                     
                                            #####                                    
                                            ######                                   
                                           ########,                                 
                                     ,,################,,,,,                         
                               ,,#################################,,                 
                          ,,##########################################,,             
                       ,#########################################, ''#####,          
                    ,#############################################,,   '####,        
                  ,##################################################,,,,####,       
                ,###########''''           ''''###############################       
              ,#####''   ,,,,##########,,,,          '''####'''          '####       
            ,##' ,,,,###########################,,,                        '##       
           ' ,,###''''                  '''############,,,                           
         ,,##''                                '''############,,,,        ,,,,,,###''
      ,#''                                            '''#######################'''  
     '                                                          ''''####''''         
             ,#######,   #######,   ,#######,      ##                                
            ,#'     '#,  ##    ##  ,#'     '#,    #''#        ######   ,####,        
            ##       ##  ##   ,#'  ##            #'  '#       #        #'  '#        
            ##       ##  #######   ##           ,######,      #####,   #    #        
            '#,     ,#'  ##    ##  '#,     ,#' ,#      #,         ##   #,  ,#        
             '#######'   ##     ##  '#######'  #'      '#     #####' # '####'        



                  #######################################################
                  #                        -***-                        #
                  #          Department of theory and spectroscopy      #
                  #    Directorship and core code : Frank Neese         #
                  #        Max Planck Institute fuer Kohlenforschung    #
                  #                Kaiser Wilhelm Platz 1               #
                  #                 D-45470 Muelheim/Ruhr               #
                  #                      Germany                        #
                  #                                                     #
                  #                  All rights reserved                #
                  #                        -***-                        #
                  #######################################################


                         Program Version 5.0.4 -  RELEASE  -


 With contributions from (in alphabetic order):
   Daniel Aravena         : Magnetic Suceptibility
   Michael Atanasov       : Ab Initio Ligand Field Theory (pilot matlab implementation)
   Alexander A. Auer      : GIAO ZORA, VPT2 properties, NMR spectrum
   Ute Becker             : Parallelization
   Giovanni Bistoni       : ED, misc. LED, open-shell LED, HFLD
   Martin Brehm           : Molecular dynamics
   Dmytro Bykov           : SCF Hessian
   Vijay G. Chilkuri      : MRCI spin determinant printing, contributions to CSF-ICE
   Dipayan Datta          : RHF DLPNO-CCSD density
   Achintya Kumar Dutta   : EOM-CC, STEOM-CC
   Dmitry Ganyushin       : Spin-Orbit,Spin-Spin,Magnetic field MRCI
   Miquel Garcia          : C-PCM and meta-GGA Hessian, CC/C-PCM, Gaussian charge scheme
   Yang Guo               : DLPNO-NEVPT2, F12-NEVPT2, CIM, IAO-localization
   Andreas Hansen         : Spin unrestricted coupled pair/coupled cluster methods
   Benjamin Helmich-Paris : MC-RPA, TRAH-SCF, COSX integrals
   Lee Huntington         : MR-EOM, pCC
   Robert Izsak           : Overlap fitted RIJCOSX, COSX-SCS-MP3, EOM
   Marcus Kettner         : VPT2
   Christian Kollmar      : KDIIS, OOCD, Brueckner-CCSD(T), CCSD density, CASPT2, CASPT2-K
   Simone Kossmann        : Meta GGA functionals, TD-DFT gradient, OOMP2, MP2 Hessian
   Martin Krupicka        : Initial AUTO-CI
   Lucas Lang             : DCDCAS
   Marvin Lechner         : AUTO-CI (C++ implementation), FIC-MRCC
   Dagmar Lenk            : GEPOL surface, SMD
   Dimitrios Liakos       : Extrapolation schemes; Compound Job, initial MDCI parallelization
   Dimitrios Manganas     : Further ROCIS development; embedding schemes
   Dimitrios Pantazis     : SARC Basis sets
   Anastasios Papadopoulos: AUTO-CI, single reference methods and gradients
   Taras Petrenko         : DFT Hessian,TD-DFT gradient, ASA, ECA, R-Raman, ABS, FL, XAS/XES, NRVS
   Peter Pinski           : DLPNO-MP2, DLPNO-MP2 Gradient
   Christoph Reimann      : Effective Core Potentials
   Marius Retegan         : Local ZFS, SOC
   Christoph Riplinger    : Optimizer, TS searches, QM/MM, DLPNO-CCSD(T), (RO)-DLPNO pert. Triples
   Tobias Risthaus        : Range-separated hybrids, TD-DFT gradient, RPA, STAB
   Michael Roemelt        : Original ROCIS implementation
   Masaaki Saitow         : Open-shell DLPNO-CCSD energy and density
   Barbara Sandhoefer     : DKH picture change effects
   Avijit Sen             : IP-ROCIS
   Kantharuban Sivalingam : CASSCF convergence, NEVPT2, FIC-MRCI
   Bernardo de Souza      : ESD, SOC TD-DFT
   Georgi Stoychev        : AutoAux, RI-MP2 NMR, DLPNO-MP2 response
   Willem Van den Heuvel  : Paramagnetic NMR
   Boris Wezisla          : Elementary symmetry handling
   Frank Wennmohs         : Technical directorship


 We gratefully acknowledge several colleagues who have allowed us to
 interface, adapt or use parts of their codes:
   Stefan Grimme, W. Hujo, H. Kruse, P. Pracht,  : VdW corrections, initial TS optimization,
                  C. Bannwarth, S. Ehlert          DFT functionals, gCP, sTDA/sTD-DF
   Ed Valeev, F. Pavosevic, A. Kumar             : LibInt (2-el integral package), F12 methods
   Garnet Chan, S. Sharma, J. Yang, R. Olivares  : DMRG
   Ulf Ekstrom                                   : XCFun DFT Library
   Mihaly Kallay                                 : mrcc  (arbitrary order and MRCC methods)
   Jiri Pittner, Ondrej Demel                    : Mk-CCSD
   Frank Weinhold                                : gennbo (NPA and NBO analysis)
   Christopher J. Cramer and Donald G. Truhlar   : smd solvation model
   Lars Goerigk                                  : TD-DFT with DH, B97 family of functionals
   V. Asgeirsson, H. Jonsson                     : NEB implementation
   FAccTs GmbH                                   : IRC, NEB, NEB-TS, DLPNO-Multilevel, CI-OPT
                                                   MM, QMMM, 2- and 3-layer-ONIOM, Crystal-QMMM,
                                                   LR-CPCM, SF, NACMEs, symmetry and pop. for TD-DFT,
                                                   nearIR, NL-DFT gradient (VV10), updates on ESD,
                                                   ML-optimized integration grids
   S Lehtola, MJT Oliveira, MAL Marques          : LibXC Library
   Liviu Ungur et al                             : ANISO software


 Your calculation uses the libint2 library for the computation of 2-el integrals
 For citations please refer to: http://libint.valeyev.net

 Your ORCA version has been built with support for libXC version: 5.1.0
 For citations please refer to: https://tddft.org/programs/libxc/

 This ORCA versions uses:
   CBLAS   interface :  Fast vector & matrix operations
   LAPACKE interface :  Fast linear algebra routines
   SCALAPACK package :  Parallel linear algebra routines
   Shared memory     :  Shared parallel matrices
   BLAS/LAPACK       :  OpenBLAS 0.3.15  USE64BITINT DYNAMIC_ARCH NO_AFFINITY SkylakeX SINGLE_THREADED
        Core in use  :  SkylakeX
   Copyright (c) 2011-2014, The OpenBLAS Project


Your calculation utilizes the DFT-NL dispersion correction.
Cite in your paper:
Vydrov, O. A.; Van Voorhis, T. J. Chem. Phys. 2010, 133, 244103
Hujo, W.; Grimme, S. J. Chem. Theory Comput. 2011, 7, 3866 
   

================================================================================

----- Orbital basis set information -----
Your calculation utilizes the basis: def2-TZVPP
   F. Weigend and R. Ahlrichs, Phys. Chem. Chem. Phys. 7, 3297 (2005).

----- AuxJ basis set information -----
Your calculation utilizes the auxiliary basis: def2/J
   F. Weigend, Phys. Chem. Chem. Phys. 8, 1057 (2006).

================================================================================
                                        WARNINGS
                       Please study these warnings very carefully!
================================================================================

Using LibXC functional ID 531 : wB97M-V exchange-correlation functional
[ 1]  N. Mardirossian and M. Head-Gordon, J. Chem. Phys. 144, 214110 (2016)
Using LibXC functional ID 531 : wB97M-V exchange-correlation functional
[ 1]  N. Mardirossian and M. Head-Gordon, J. Chem. Phys. 144, 214110 (2016)

WARNING: B97M-V or wB97M-V functional requested.
  ===> : libXC variant has now been activated.
         Any manually given DFX/HFX/RangeSep scaling parameters are IGNORED!

Your calculation utilizes LibXC
 by S Lehtola, C Steigemann, MJT Oliveira & MAL Marques
Please cite in your paper:
 S Lehtola, C Steigemann, MJT Oliveira & MAL Marques, SoftwareX, 7, (2018), 1.
   


WARNING: your system is open-shell and RHF/RKS was chosen
  ===> : WILL SWITCH to UHF/UKS


INFO   : the flag for use of the SHARK integral package has been found!

================================================================================
                                       INPUT FILE
================================================================================
NAME = arbr_09_r2scan3c_wB97MV_ox.inp
|  1> %PAL NPROCS 16 END
|  2> %maxcore 4000
|  3> # arbr_09_r2scan3c.out
|  4> ! wB97m-v def2-TZVPP def2/J RIJCOSX Hirshfeld
|  5> * xyz 1 2
|  6>    C       -5.56793         0.93866         0.00016
|  7>    C       -4.60322        -0.23609        -0.00005
|  8>    C       -4.76742        -1.06646         1.26436
|  9>    C       -4.76748        -1.06603        -1.26475
| 10>    O       -3.29636         0.42301         0.00005
| 11>    C       -2.17886        -0.29568         0.00010
| 12>    O       -2.09327        -1.49365         0.00008
| 13>    N       -1.06813         0.54267         0.00008
| 14>    C       -1.08696         1.93744         0.00005
| 15>    C        0.17617         2.41195         0.00002
| 16>    C        1.06217         1.27612         0.00002
| 17>    C        2.45227         1.16049        -0.00001
| 18>    C        2.99023        -0.10824        -0.00000
| 19>   Br        4.87754        -0.31262        -0.00004
| 20>    C        2.19317        -1.25608         0.00003
| 21>    C        0.81366        -1.15706         0.00006
| 22>    C        0.26231         0.11965         0.00005
| 23>    H       -5.41745         1.55528        -0.88620
| 24>    H       -6.59404         0.57149         0.00012
| 25>    H       -5.41741         1.55498         0.88673
| 26>    H       -4.09983        -1.92430         1.26660
| 27>    H       -5.79691        -1.42226         1.32122
| 28>    H       -4.56907        -0.45350         2.14468
| 29>    H       -5.79701        -1.42174        -1.32171
| 30>    H       -4.09995        -1.92390        -1.26730
| 31>    H       -4.56912        -0.45278        -2.14486
| 32>    H       -2.03023         2.45319         0.00006
| 33>    H        0.45985         3.45094        -0.00001
| 34>    H        3.08845         2.03465        -0.00004
| 35>    H        2.66373        -2.22894         0.00004
| 36>    H        0.19049        -2.03688         0.00009
| 37> *
| 38> 
| 39>                          ****END OF INPUT****
================================================================================

                       ****************************
                       * Single Point Calculation *
                       ****************************

---------------------------------
CARTESIAN COORDINATES (ANGSTROEM)
---------------------------------
  C     -5.567930    0.938660    0.000160
  C     -4.603220   -0.236090   -0.000050
  C     -4.767420   -1.066460    1.264360
  C     -4.767480   -1.066030   -1.264750
  O     -3.296360    0.423010    0.000050
  C     -2.178860   -0.295680    0.000100
  O     -2.093270   -1.493650    0.000080
  N     -1.068130    0.542670    0.000080
  C     -1.086960    1.937440    0.000050
  C      0.176170    2.411950    0.000020
  C      1.062170    1.276120    0.000020
  C      2.452270    1.160490   -0.000010
  C      2.990230   -0.108240   -0.000000
  Br     4.877540   -0.312620   -0.000040
  C      2.193170   -1.256080    0.000030
  C      0.813660   -1.157060    0.000060
  C      0.262310    0.119650    0.000050
  H     -5.417450    1.555280   -0.886200
  H     -6.594040    0.571490    0.000120
  H     -5.417410    1.554980    0.886730
  H     -4.099830   -1.924300    1.266600
  H     -5.796910   -1.422260    1.321220
  H     -4.569070   -0.453500    2.144680
  H     -5.797010   -1.421740   -1.321710
  H     -4.099950   -1.923900   -1.267300
  H     -4.569120   -0.452780   -2.144860
  H     -2.030230    2.453190    0.000060
  H      0.459850    3.450940   -0.000010
  H      3.088450    2.034650   -0.000040
  H      2.663730   -2.228940    0.000040
  H      0.190490   -2.036880    0.000090

----------------------------
CARTESIAN COORDINATES (A.U.)
----------------------------
  NO LB      ZA    FRAG     MASS         X           Y           Z
   0 C     6.0000    0    12.011  -10.521863    1.773810    0.000302
   1 C     6.0000    0    12.011   -8.698825   -0.446145   -0.000094
   2 C     6.0000    0    12.011   -9.009118   -2.015317    2.389294
   3 C     6.0000    0    12.011   -9.009232   -2.014505   -2.390031
   4 O     8.0000    0    15.999   -6.229218    0.799373    0.000094
   5 C     6.0000    0    12.011   -4.117449   -0.558754    0.000189
   6 O     8.0000    0    15.999   -3.955707   -2.822589    0.000151
   7 N     7.0000    0    14.007   -2.018473    1.025498    0.000151
   8 C     6.0000    0    12.011   -2.054057    3.661231    0.000094
   9 C     6.0000    0    12.011    0.332913    4.557925    0.000038
  10 C     6.0000    0    12.011    2.007210    2.411517    0.000038
  11 C     6.0000    0    12.011    4.634119    2.193008   -0.000019
  12 C     6.0000    0    12.011    5.650716   -0.204544   -0.000000
  13 Br   35.0000    0    79.900    9.217215   -0.590766   -0.000076
  14 C     6.0000    0    12.011    4.144491   -2.373647    0.000057
  15 C     6.0000    0    12.011    1.537595   -2.186527    0.000113
  16 C     6.0000    0    12.011    0.495694    0.226106    0.000094
  17 H     1.0000    0     1.008  -10.237497    2.939053   -1.674675
  18 H     1.0000    0     1.008  -12.460930    1.079960    0.000227
  19 H     1.0000    0     1.008  -10.237421    2.938486    1.675677
  20 H     1.0000    0     1.008   -7.747556   -3.636400    2.393527
  21 H     1.0000    0     1.008  -10.954572   -2.687682    2.496744
  22 H     1.0000    0     1.008   -8.634291   -0.856991    4.052858
  23 H     1.0000    0     1.008  -10.954761   -2.686699   -2.497670
  24 H     1.0000    0     1.008   -7.747783   -3.635644   -2.394850
  25 H     1.0000    0     1.008   -8.634385   -0.855630   -4.053198
  26 H     1.0000    0     1.008   -3.836579    4.635857    0.000113
  27 H     1.0000    0     1.008    0.868991    6.521332   -0.000019
  28 H     1.0000    0     1.008    5.836325    3.844931   -0.000076
  29 H     1.0000    0     1.008    5.033720   -4.212086    0.000076
  30 H     1.0000    0     1.008    0.359974   -3.849145    0.000170

--------------------------------
INTERNAL COORDINATES (ANGSTROEM)
--------------------------------
 C      0   0   0     0.000000000000     0.00000000     0.00000000
 C      1   0   0     1.520099664726     0.00000000     0.00000000
 C      2   1   0     1.521580962355   110.67974176     0.00000000
 C      2   1   3     1.521593848962   110.67871365   125.32277975
 O      2   1   3     1.463658388969   102.62941902   242.66181749
 C      5   2   1     1.328654043986   120.49042052   179.99081407
 O      6   5   2     1.201023633989   126.83260730     0.00000000
 N      6   5   2     1.391600465579   110.20944304   179.99505564
 C      8   6   5     1.394897101115   126.27108112     0.00000000
 C      9   8   6     1.349317285852   109.81582294   180.00079290
 C     10   9   8     1.440522748484   107.36658671     0.00000000
 C     11  10   9     1.394900823643   132.71085799   179.99965770
 C     12  11  10     1.378069945467   117.73262935   180.00001995
 Br    13  12  11     1.898344073686   119.15822403   179.99999628
 C     13  12  11     1.397440986267   122.24623800     0.00000000
 C     15  13  12     1.383059218327   120.67051142     0.00000000
 C     16  15  13     1.390674385577   117.46280546     0.00000000
 H      1   2   3     1.090182784858   110.45053561   177.54549645
 H      1   2   3     1.089823629125   109.70440626   297.33889916
 H      1   2   3     1.090189422853   110.44971557    57.13175637
 H      3   2   1     1.087000869963   111.47618425   178.62835756
 H      3   2   1     1.090722861088   108.85626839    58.61718025
 H      3   2   1     1.090883122291   110.14056157   300.10343268
 H      4   2   1     1.090736478990   108.85526048   301.38669310
 H      4   2   1     1.086988380941   111.47694228   181.37486455
 H      4   2   1     1.090878482783   110.14043814    59.89896379
 H      9   8   6     1.075061093845   119.44190484     0.00000000
 H     10   9   8     1.077021152717   125.86078951   179.99980237
 H     12  11  10     1.081147861719   121.29070850     0.00000000
 H     15  13  12     1.080686491680   119.41142676   180.00019960
 H     16  15  13     1.078157726031   121.20406082   180.00041814

---------------------------
INTERNAL COORDINATES (A.U.)
---------------------------
 C      0   0   0     0.000000000000     0.00000000     0.00000000
 C      1   0   0     2.872572062598     0.00000000     0.00000000
 C      2   1   0     2.875371309439   110.67974176     0.00000000
 C      2   1   3     2.875395661598   110.67871365   125.32277975
 O      2   1   3     2.765913508768   102.62941902   242.66181749
 C      5   2   1     2.510792269860   120.49042052   179.99081407
 O      6   5   2     2.269605748606   126.83260730     0.00000000
 N      6   5   2     2.629743767782   110.20944304   179.99505564
 C      8   6   5     2.635973506109   126.27108112     0.00000000
 C      9   8   6     2.549840138027   109.81582294   180.00079290
 C     10   9   8     2.722193484318   107.36658671     0.00000000
 C     11  10   9     2.635980540667   132.71085799   179.99965770
 C     12  11  10     2.604174790321   117.73262935   180.00001995
 Br    13  12  11     3.587350407220   119.15822403   179.99999628
 C     13  12  11     2.640780752362   122.24623800     0.00000000
 C     15  13  12     2.613603149634   120.67051142     0.00000000
 C     16  15  13     2.627993730200   117.46280546     0.00000000
 H      1   2   3     2.060146899297   110.45053561   177.54549645
 H      1   2   3     2.059468193323   109.70440626   297.33889916
 H      1   2   3     2.060159443289   110.44971557    57.13175637
 H      3   2   1     2.054133951564   111.47618425   178.62835756
 H      3   2   1     2.061167495463   108.85626839    58.61718025
 H      3   2   1     2.061470345247   110.14056157   300.10343268
 H      4   2   1     2.061193229569   108.85526048   301.38669310
 H      4   2   1     2.054110350732   111.47694228   181.37486455
 H      4   2   1     2.061461577848   110.14043814    59.89896379
 H      9   8   6     2.031571044602   119.44190484     0.00000000
 H     10   9   8     2.035275019075   125.86078951   179.99980237
 H     12  11  10     2.043073368924   121.29070850     0.00000000
 H     15  13  12     2.042201505904   119.41142676   180.00019960
 H     16  15  13     2.037422831370   121.20406082   180.00041814

---------------------
BASIS SET INFORMATION
---------------------
There are 5 groups of distinct atoms

 Group   1 Type C   : 11s6p2d1f contracted to 5s3p2d1f pattern {62111/411/11/1}
 Group   2 Type O   : 11s6p2d1f contracted to 5s3p2d1f pattern {62111/411/11/1}
 Group   3 Type N   : 11s6p2d1f contracted to 5s3p2d1f pattern {62111/411/11/1}
 Group   4 Type Br  : 17s13p8d1f contracted to 6s5p4d1f pattern {842111/64111/5111/1}
 Group   5 Type H   : 5s2p1d contracted to 3s2p1d pattern {311/11/1}

Atom   0C    basis set group =>   1
Atom   1C    basis set group =>   1
Atom   2C    basis set group =>   1
Atom   3C    basis set group =>   1
Atom   4O    basis set group =>   2
Atom   5C    basis set group =>   1
Atom   6O    basis set group =>   2
Atom   7N    basis set group =>   3
Atom   8C    basis set group =>   1
Atom   9C    basis set group =>   1
Atom  10C    basis set group =>   1
Atom  11C    basis set group =>   1
Atom  12C    basis set group =>   1
Atom  13Br   basis set group =>   4
Atom  14C    basis set group =>   1
Atom  15C    basis set group =>   1
Atom  16C    basis set group =>   1
Atom  17H    basis set group =>   5
Atom  18H    basis set group =>   5
Atom  19H    basis set group =>   5
Atom  20H    basis set group =>   5
Atom  21H    basis set group =>   5
Atom  22H    basis set group =>   5
Atom  23H    basis set group =>   5
Atom  24H    basis set group =>   5
Atom  25H    basis set group =>   5
Atom  26H    basis set group =>   5
Atom  27H    basis set group =>   5
Atom  28H    basis set group =>   5
Atom  29H    basis set group =>   5
Atom  30H    basis set group =>   5
---------------------------------
AUXILIARY/J BASIS SET INFORMATION
---------------------------------
There are 5 groups of distinct atoms

 Group   1 Type C   : 12s5p4d2f1g contracted to 6s4p3d1f1g pattern {711111/2111/211/2/1}
 Group   2 Type O   : 12s5p4d2f1g contracted to 6s4p3d1f1g pattern {711111/2111/211/2/1}
 Group   3 Type N   : 12s5p4d2f1g contracted to 6s4p3d1f1g pattern {711111/2111/211/2/1}
 Group   4 Type Br  : 19s5p5d3f1g contracted to 8s4p3d2f1g pattern {121111111/2111/311/21/1}
 Group   5 Type H   : 5s2p1d contracted to 3s1p1d pattern {311/2/1}

Atom   0C    basis set group =>   1
Atom   1C    basis set group =>   1
Atom   2C    basis set group =>   1
Atom   3C    basis set group =>   1
Atom   4O    basis set group =>   2
Atom   5C    basis set group =>   1
Atom   6O    basis set group =>   2
Atom   7N    basis set group =>   3
Atom   8C    basis set group =>   1
Atom   9C    basis set group =>   1
Atom  10C    basis set group =>   1
Atom  11C    basis set group =>   1
Atom  12C    basis set group =>   1
Atom  13Br   basis set group =>   4
Atom  14C    basis set group =>   1
Atom  15C    basis set group =>   1
Atom  16C    basis set group =>   1
Atom  17H    basis set group =>   5
Atom  18H    basis set group =>   5
Atom  19H    basis set group =>   5
Atom  20H    basis set group =>   5
Atom  21H    basis set group =>   5
Atom  22H    basis set group =>   5
Atom  23H    basis set group =>   5
Atom  24H    basis set group =>   5
Atom  25H    basis set group =>   5
Atom  26H    basis set group =>   5
Atom  27H    basis set group =>   5
Atom  28H    basis set group =>   5
Atom  29H    basis set group =>   5
Atom  30H    basis set group =>   5


           ************************************************************
           *        Program running with 16 parallel MPI-processes    *
           *              working on a common directory               *
           ************************************************************
------------------------------------------------------------------------------
                           ORCA GTO INTEGRAL CALCULATION
                           -- RI-GTO INTEGRALS CHOSEN --
------------------------------------------------------------------------------
------------------------------------------------------------------------------
                   ___                                                        
                  /   \      - P O W E R E D   B Y -                         
                 /     \                                                     
                 |  |  |   _    _      __       _____    __    __             
                 |  |  |  | |  | |    /  \     |  _  \  |  |  /  |          
                  \  \/   | |  | |   /    \    | | | |  |  | /  /          
                 / \  \   | |__| |  /  /\  \   | |_| |  |  |/  /          
                |  |  |   |  __  | /  /__\  \  |    /   |      \           
                |  |  |   | |  | | |   __   |  |    \   |  |\   \          
                \     /   | |  | | |  |  |  |  | |\  \  |  | \   \       
                 \___/    |_|  |_| |__|  |__|  |_| \__\ |__|  \__/        
                                                                              
                      - O R C A' S   B I G   F R I E N D -                    
                                      &                                       
                       - I N T E G R A L  F E E D E R -                       
                                                                              
 v1 FN, 2020, v2 2021                                                         
------------------------------------------------------------------------------


Reading SHARK input file arbr_09_r2scan3c_wB97MV_ox.SHARKINP.tmp ... ok
----------------------
SHARK INTEGRAL PACKAGE
----------------------

Number of atoms                             ...     31
Number of basis functions                   ...    740
Number of shells                            ...    276
Maximum angular momentum                    ...      3
Integral batch strategy                     ... SHARK/LIBINT Hybrid
RI-J (if used) integral strategy            ... SPLIT-RIJ (Revised 2003 algorithm where possible)
Printlevel                                  ...      1
Contraction scheme used                     ... SEGMENTED contraction
Coulomb Range Separation                    ... NOT USED
Exchange Range Separation                   ... Long Range
   Mu parameter                             ...  0.300000
   Scaling (regular/separated)              ...  0.150000  0.850000
Finite Nucleus Model                        ... NOT USED
Auxiliary Coulomb fitting basis             ... AVAILABLE
   # of basis functions in Aux-J            ...    996
   # of shells in Aux-J                     ...    328
   Maximum angular momentum in Aux-J        ...      4
Auxiliary J/K fitting basis                 ... NOT available
Auxiliary Correlation fitting basis         ... NOT available
Auxiliary 'external' fitting basis          ... NOT available
Integral threshold                          ...     1.000000e-10
Primitive cut-off                           ...     1.000000e-11
Primitive pair pre-selection threshold      ...     1.000000e-11

Calculating pre-screening integrals         ... done (  0.1 sec) Dimension = 276
Organizing shell pair data                  ... done (  0.3 sec)
Shell pair information
Total number of shell pairs                 ...     38226
Shell pairs after pre-screening             ...     26533
Total number of primitive shell pairs       ...    111616
Primitive shell pairs kept                  ...     53085
          la=0 lb=0:   5728 shell pairs
          la=1 lb=0:   7482 shell pairs
          la=1 lb=1:   2487 shell pairs
          la=2 lb=0:   4194 shell pairs
          la=2 lb=1:   2779 shell pairs
          la=2 lb=2:    790 shell pairs
          la=3 lb=0:   1473 shell pairs
          la=3 lb=1:    967 shell pairs
          la=3 lb=2:    525 shell pairs
          la=3 lb=3:    108 shell pairs

Calculating one electron integrals          ... done (  0.0 sec)
Calculating RI/J V-Matrix + Cholesky decomp.... done (  0.0 sec)
Calculating Nuclear repulsion               ... done (  0.0 sec) ENN=   1486.527259365712 Eh

SHARK setup successfully completed in   0.8 seconds

Maximum memory used throughout the entire GTOINT-calculation: 42.8 MB


           ************************************************************
           *        Program running with 16 parallel MPI-processes    *
           *              working on a common directory               *
           ************************************************************
-------------------------------------------------------------------------------
                                 ORCA SCF
-------------------------------------------------------------------------------

------------
SCF SETTINGS
------------
Hamiltonian:
 Density Functional     Method          .... DFT(GTOs)
  Functional kind                       .... Exchange-Correlation
  Functional name                       .... wB97M-V exchange-correlation functional
  Functional family                     .... Hybrid MGGA
  Functional refs                              
    [ 0] N. Mardirossian and M. Head-Gordon, J. Chem. Phys. 144, 214110 (2016)
  Fraction of HF Exchange (short range) .... 0.1500
  Fraction of HF Exchange (long range)  .... 1.0000
  Range separation parameter mu         .... 0.3000
  Functional external parameters         .... 0
   Density functional embedding theory  .... OFF
 Long-range corrected/Screened/Range-Separated Hybrid DFT is turned on
   Amount of maximum screened exact exchange              ....  0.850000
   Range separation parameter mu (erf(mu*r12)/r12)        ....  0.300000
   NL short-range parameter             ....  6.000000
   NL long-range parameter              ....  0.010000
 RI-approximation to the Coulomb term is turned on
   Number of AuxJ basis functions       .... 996
   RIJ-COSX (HFX calculated with COS-X)).... on


General Settings:
 Integral files         IntName         .... arbr_09_r2scan3c_wB97MV_ox
 Hartree-Fock type      HFTyp           .... UHF
 Total Charge           Charge          ....    1
 Multiplicity           Mult            ....    2
 Number of Electrons    NEL             ....  149
 Basis Dimension        Dim             ....  740
 Nuclear Repulsion      ENuc            ....   1486.5272593657 Eh

Convergence Acceleration:
 DIIS                   CNVDIIS         .... on
   Start iteration      DIISMaxIt       ....    12
   Startup error        DIISStart       ....  0.200000
   # of expansion vecs  DIISMaxEq       ....     5
   Bias factor          DIISBfac        ....   1.050
   Max. coefficient     DIISMaxC        ....  10.000
 Trust-Rad. Augm. Hess. CNVTRAH         .... auto
   Auto Start mean grad. ratio tolernc. ....  1.125000
   Auto Start start iteration           ....    20
   Auto Start num. interpolation iter.  ....    10
   Max. Number of Micro iterations      ....    16
   Max. Number of Macro iterations      .... Maxiter - #DIIS iter
   Number of Davidson start vectors     ....     2
   Converg. threshold I  (grad. norm)   ....   5.000e-05
   Converg. threshold II (energy diff.) ....   1.000e-06
   Grad. Scal. Fac. for Micro threshold ....   0.100
   Minimum threshold for Micro iter.    ....   0.010
   NR start threshold (gradient norm)   ....   0.001
   Initial trust radius                 ....   0.400
   Minimum AH scaling param. (alpha)    ....   1.000
   Maximum AH scaling param. (alpha)    .... 1000.000
   Orbital update algorithm             .... Taylor
   White noise on init. David. guess    .... on
   Maximum white noise                  ....   0.010
   Quad. conv. algorithm                .... NR
 SOSCF                  CNVSOSCF        .... off
 Level Shifting         CNVShift        .... on
   Level shift para.    LevelShift      ....    0.2500
   Turn off err/grad.   ShiftErr        ....    0.0010
 Zerner damping         CNVZerner       .... off
 Static damping         CNVDamp         .... on
   Fraction old density DampFac         ....    0.7000
   Max. Damping (<1)    DampMax         ....    0.9800
   Min. Damping (>=0)   DampMin         ....    0.0000
   Turn off err/grad.   DampErr         ....    0.1000
 Fernandez-Rico         CNVRico         .... off

SCF Procedure:
 Maximum # iterations   MaxIter         ....   125
 SCF integral mode      SCFMode         .... Direct
   Integral package                     .... SHARK and LIBINT hybrid scheme
 Reset frequency        DirectResetFreq ....    20
 Integral Threshold     Thresh          ....  1.000e-10 Eh
 Primitive CutOff       TCut            ....  1.000e-11 Eh

Convergence Tolerance:
 Convergence Check Mode ConvCheckMode   .... Total+1el-Energy
 Convergence forced     ConvForced      .... 0
 Energy Change          TolE            ....  1.000e-06 Eh
 1-El. energy change                    ....  1.000e-03 Eh
 DIIS Error             TolErr          ....  1.000e-06


Diagonalization of the overlap matrix:
Smallest eigenvalue                        ... 6.161e-06
Time for diagonalization                   ...    0.095 sec
Threshold for overlap eigenvalues          ... 1.000e-08
Number of eigenvalues below threshold      ... 0
Time for construction of square roots      ...    0.048 sec
Total time needed                          ...    0.145 sec

Time for model grid setup =    0.161 sec

------------------------------
INITIAL GUESS: MODEL POTENTIAL
------------------------------
Loading Hartree-Fock densities                     ... done
Calculating cut-offs                               ... done
Initializing the effective Hamiltonian             ... done
Setting up the integral package (SHARK)            ... done
Starting the Coulomb interaction                   ... done (   0.2 sec)
Reading the grid                                   ... done
Mapping shells                                     ... done
Starting the XC term evaluation                    ... done (   0.1 sec)
  promolecular density results
     # of electrons  =    149.995786078
     EX              =   -182.864461292
     EC              =     -5.592776533
     EX+EC           =   -188.457237826
Transforming the Hamiltonian                       ... done (   0.0 sec)
Diagonalizing the Hamiltonian                      ... done (   0.1 sec)
Back transforming the eigenvectors                 ... done (   0.0 sec)
Now organizing SCF variables                       ... done
                      ------------------
                      INITIAL GUESS DONE (   0.7 sec)
                      ------------------
-------------------
DFT GRID GENERATION
-------------------

General Integration Accuracy     IntAcc      ... 4.388
Radial Grid Type                 RadialGrid  ... OptM3 with GC (2021)
Angular Grid (max. ang.)         AngularGrid ... 4 (Lebedev-302)
Angular grid pruning method      GridPruning ... 4 (adaptive)
Weight generation scheme         WeightScheme... Becke
Basis function cutoff            BFCut       ... 1.0000e-10
Integration weight cutoff        WCut        ... 1.0000e-14
Angular grids for H and He will be reduced by one unit
Partially contracted basis set               ... off
Rotationally invariant grid construction     ... off

Total number of grid points                  ...   151633
Total number of batches                      ...     2383
Average number of points per batch           ...       63
Average number of grid points per atom       ...     4891
Time for grid setup =    0.728 sec

--------------------
COSX GRID GENERATION
--------------------

GRIDX 1
-------
General Integration Accuracy     IntAcc      ... 3.816
Radial Grid Type                 RadialGrid  ... OptM3 with GC (2021)
Angular Grid (max. ang.)         AngularGrid ... 1 (Lebedev-50)
Angular grid pruning method      GridPruning ... 4 (adaptive)
Weight generation scheme         WeightScheme... Becke
Basis function cutoff            BFCut       ... 1.0000e-10
Integration weight cutoff        WCut        ... 1.0000e-14
Angular grids for H and He will be reduced by one unit
Partially contracted basis set               ... on
Rotationally invariant grid construction     ... off

Total number of grid points                  ...    19130
Total number of batches                      ...      314
Average number of points per batch           ...       60
Average number of grid points per atom       ...      617
UseSFitting                                  ... on

GRIDX 2
-------
General Integration Accuracy     IntAcc      ... 4.020
Radial Grid Type                 RadialGrid  ... OptM3 with GC (2021)
Angular Grid (max. ang.)         AngularGrid ... 2 (Lebedev-110)
Angular grid pruning method      GridPruning ... 4 (adaptive)
Weight generation scheme         WeightScheme... Becke
Basis function cutoff            BFCut       ... 1.0000e-10
Integration weight cutoff        WCut        ... 1.0000e-14
Angular grids for H and He will be reduced by one unit
Partially contracted basis set               ... on
Rotationally invariant grid construction     ... off

Total number of grid points                  ...    41262
Total number of batches                      ...      660
Average number of points per batch           ...       62
Average number of grid points per atom       ...     1331
UseSFitting                                  ... on

GRIDX 3
-------
General Integration Accuracy     IntAcc      ... 4.338
Radial Grid Type                 RadialGrid  ... OptM3 with GC (2021)
Angular Grid (max. ang.)         AngularGrid ... 3 (Lebedev-194)
Angular grid pruning method      GridPruning ... 4 (adaptive)
Weight generation scheme         WeightScheme... Becke
Basis function cutoff            BFCut       ... 1.0000e-10
Integration weight cutoff        WCut        ... 1.0000e-14
Angular grids for H and He will be reduced by one unit
Partially contracted basis set               ... on
Rotationally invariant grid construction     ... off

Total number of grid points                  ...    90617
Total number of batches                      ...     1430
Average number of points per batch           ...       63
Average number of grid points per atom       ...     2923
UseSFitting                                  ... on

Time for X-Grid setup             =    0.846 sec

--------------
SCF ITERATIONS
--------------
ITER       Energy         Delta-E        Max-DP      RMS-DP      [F,P]     Damp
               ***  Starting incremental Fock matrix formation  ***
  0  -3282.8454644871   0.000000000000 0.02412941  0.00029924  0.1415889 0.7000
  1  -3283.0487476656  -0.203283178526 0.02244971  0.00023316  0.0684472 0.7000
                               ***Turning on DIIS***
  2  -3283.1479173849  -0.099169719259 0.05479874  0.00049763  0.0276289 0.0000
  3  -3283.3078742923  -0.159956907469 0.02556664  0.00015256  0.0307798 0.0000
  4  -3283.3367604503  -0.028886158013 0.00987434  0.00007669  0.0068821 0.0000
  5  -3283.3389329797  -0.002172529383 0.00622362  0.00004703  0.0073330 0.0000
  6  -3283.3401437854  -0.001210805694 0.00729125  0.00003857  0.0068251 0.0000
  7  -3283.3410253686  -0.000881583197 0.00806159  0.00003479  0.0060393 0.0000
  8  -3283.3417315274  -0.000706158749 0.00702959  0.00002791  0.0045192 0.0000
  9  -3283.3421865191  -0.000454991740 0.00538860  0.00002050  0.0033948 0.0000
 10  -3283.3424514304  -0.000264911253 0.00412194  0.00001607  0.0022830 0.0000
 11  -3283.3426129398  -0.000161509439 0.00327328  0.00001423  0.0014416 0.0000
 12  -3283.3427162912  -0.000103351359 0.00222495  0.00000941  0.0010203 0.0000
 13  -3283.3427744343  -0.000058143165 0.00327918  0.00001333  0.0007274 0.0000
               *** Restarting incremental Fock matrix formation ***
                                   *** Resetting DIIS ***
 14  -3283.3428112873  -0.000036852963 0.00799087  0.00006438  0.0004270 0.0000
 15  -3283.3428278210  -0.000016533733 0.00033379  0.00000269  0.0005712 0.0000
 16  -3283.3428374283  -0.000009607322 0.00052755  0.00000525  0.0004196 0.0000
 17  -3283.3428582969  -0.000020868525 0.00042667  0.00000381  0.0003930 0.0000
 18  -3283.3428751316  -0.000016834708 0.00039355  0.00000368  0.0003839 0.0000
 19  -3283.3428913119  -0.000016180302 0.00041739  0.00000391  0.0003594 0.0000
 20  -3283.3429086327  -0.000017320868 0.00031358  0.00000304  0.0003547 0.0000

 WARNING: the maximum gradient error descreased on average only by a factor   1.1
          during the last 20 iterations

                      *** Initiating the TRAH-SCF procedure ***


TRAH GRIDX
----------

General Integration Accuracy     IntAcc      ... 3.067
Radial Grid Type                 RadialGrid  ... OptM3 with GC (2021)
Angular Grid (max. ang.)         AngularGrid ... 1 (Lebedev-50)
Angular grid pruning method      GridPruning ... 4 (adaptive)
Weight generation scheme         WeightScheme... Becke
Basis function cutoff            BFCut       ... 1.0000e-10
Integration weight cutoff        WCut        ... 1.0000e-14
Angular grids for H and He will be reduced by one unit
Partially contracted basis set               ... on
Rotationally invariant grid construction     ... off

Total number of grid points                  ...    10282
Total number of batches                      ...      178
Average number of points per batch           ...       57
Average number of grid points per atom       ...      332


TRAH GRID
---------

General Integration Accuracy     IntAcc      ... 3.467
Radial Grid Type                 RadialGrid  ... OptM3 with GC (2021)
Angular Grid (max. ang.)         AngularGrid ... 1 (Lebedev-50)
Angular grid pruning method      GridPruning ... 4 (adaptive)
Weight generation scheme         WeightScheme... Becke
Basis function cutoff            BFCut       ... 1.0000e-10
Integration weight cutoff        WCut        ... 1.0000e-14
Angular grids for H and He will be reduced by one unit
Partially contracted basis set               ... off
Rotationally invariant grid construction     ... off

Total number of grid points                  ...    24693
Total number of batches                      ...      401
Average number of points per batch           ...       61
Average number of grid points per atom       ...      797

 --------------------------------------------------------------------------------------------
   Iter.        energy            ||Error||_2        Shift      TRadius  Mac/Mic        Rej.
 --------------------------------------------------------------------------------------------
    0      -3283.342922058315     1.317365e-03                     0.400 (TRAH MAcro)   No
    0     dE    -4.520904e-06     5.449456e-03    -4.5209e-06      0.003 (TRAH MIcro)
    0     dE    -9.712436e-05     2.028453e-02    -9.6487e-05      0.081 (TRAH MIcro)
    0     dE    -7.231530e-04     2.020894e-02    -1.5934e-03      0.400 (TRAH MIcro)
    0     dE    -8.531908e-04     1.350284e-02    -2.4234e-03      0.400 (TRAH MIcro)
    0     dE    -8.976188e-04     4.560297e-03    -2.7826e-03      0.397 (TRAH MIcro)
    0     dE    -9.131386e-04     2.885704e-03    -2.8270e-03      0.400 (TRAH MIcro)
    0     dE    -9.172645e-04     1.893278e-03    -2.8546e-03      0.400 (TRAH MIcro)
    0     dE    -9.190880e-04     1.287721e-03    -2.8662e-03      0.400 (TRAH MIcro)
    0     dE    -9.198124e-04     6.689289e-04    -2.8704e-03      0.400 (TRAH MIcro)
    0     dE    -9.199983e-04     3.501902e-04    -2.8715e-03      0.400 (TRAH MIcro)
    0     dE    -9.200457e-04     1.639269e-04    -2.8717e-03      0.400 (TRAH MIcro)
    0     dE    -9.200592e-04     8.670787e-05    -2.8717e-03      0.400 (TRAH MIcro)
    1      -3283.343201553793     2.418920e-02                     0.400 (TRAH MAcro)   No
    1     dE    -2.536588e-04     2.552460e-02    -2.5363e-04      0.010 (TRAH MIcro)
    1     dE    -4.464072e-04     9.583019e-03    -4.4614e-04      0.025 (TRAH MIcro)
    1     dE    -4.895953e-04     6.068815e-03    -4.8912e-04      0.031 (TRAH MIcro)
    1     dE    -5.063632e-04     3.120462e-03    -5.0572e-04      0.036 (TRAH MIcro)
    1     dE    -5.152221e-04     3.537858e-03    -5.1442e-04      0.039 (TRAH MIcro)
    1     dE    -5.249569e-04     2.724685e-03    -5.2384e-04      0.046 (TRAH MIcro)
    1     dE    -5.337870e-04     3.563354e-03    -5.3217e-04      0.055 (TRAH MIcro)
    1     dE    -5.479562e-04     3.492522e-03    -5.4503e-04      0.073 (TRAH MIcro)
    1     dE    -5.561608e-04     2.081009e-03    -5.5218e-04      0.085 (TRAH MIcro)
    2      -3283.343791013491     2.403836e-03                     0.480 (TRAH MAcro)   No
    2     dE    -2.296637e-07     8.268818e-03    -2.2968e-07      0.000 (TRAH MIcro)
    2     dE    -5.258891e-06     4.241178e-03    -5.2588e-06      0.004 (TRAH MIcro)
    2     dE    -1.410303e-05     7.148650e-03    -1.4100e-05      0.016 (TRAH MIcro)
    2     dE    -2.622494e-05     5.473831e-03    -2.6192e-05      0.036 (TRAH MIcro)
    2     dE    -5.749658e-05     1.532172e-02    -5.7020e-05      0.091 (TRAH MIcro)
    2     dE    -9.410044e-05     6.836095e-03    -9.1835e-05      0.157 (TRAH MIcro)
    2     dE    -1.271231e-04     8.698220e-03    -1.2154e-04      0.214 (TRAH MIcro)
    2     dE    -1.387111e-04     3.682686e-03    -1.3149e-04      0.234 (TRAH MIcro)
    2     dE    -1.445415e-04     2.660097e-03    -1.3640e-04      0.244 (TRAH MIcro)
    2     dE    -1.463738e-04     1.526920e-03    -1.3793e-04      0.247 (TRAH MIcro)
    2     dE    -1.468675e-04     4.126713e-04    -1.3834e-04      0.248 (TRAH MIcro)
    2     dE    -1.470084e-04     4.164828e-04    -1.3846e-04      0.249 (TRAH MIcro)
    2     dE    -1.470538e-04     1.632350e-04    -1.3849e-04      0.249 (TRAH MIcro)
    3      -3283.343886608085     1.029154e-02                     0.480 (TRAH MAcro)   No
    3     dE    -4.172006e-05     2.154641e-02    -4.1719e-05      0.004 (TRAH MIcro)
    3     dE    -7.654167e-05     7.718215e-03    -7.6533e-05      0.010 (TRAH MIcro)
    3     dE    -8.584608e-05     6.232645e-03    -8.5830e-05      0.014 (TRAH MIcro)
    3     dE    -8.948421e-05     1.607932e-03    -8.9461e-05      0.016 (TRAH MIcro)
    3     dE    -9.069584e-05     1.847496e-03    -9.0670e-05      0.017 (TRAH MIcro)
    3     dE    -9.211204e-05     1.438101e-03    -9.2079e-05      0.019 (TRAH MIcro)
    3     dE    -9.412474e-05     2.284035e-03    -9.4070e-05      0.024 (TRAH MIcro)
    3     dE    -9.916377e-05     2.409179e-03    -9.8988e-05      0.042 (TRAH MIcro)
    3     dE    -1.031442e-04     2.350481e-03    -1.0280e-04      0.058 (TRAH MIcro)
    3     dE    -1.056239e-04     1.066123e-03    -1.0513e-04      0.069 (TRAH MIcro)
    3     dE    -1.064819e-04     8.872264e-04    -1.0593e-04      0.072 (TRAH MIcro)
    4      -3283.344006637657     1.241521e-03                     0.576 (TRAH MAcro)   No
    4     dE    -1.551791e-08     2.358625e-03    -1.5636e-08      0.000 (TRAH MIcro)
    4     dE    -9.096265e-07     9.004224e-04    -9.0963e-07      0.001 (TRAH MIcro)
    4     dE    -2.472792e-06     1.493347e-03    -2.4727e-06      0.006 (TRAH MIcro)
    4     dE    -4.730595e-06     1.714666e-03    -4.7295e-06      0.015 (TRAH MIcro)
    4     dE    -1.113389e-05     3.039296e-03    -1.1114e-05      0.042 (TRAH MIcro)
    4     dE    -2.273981e-05     4.014263e-03    -2.2544e-05      0.093 (TRAH MIcro)
    4     dE    -4.543877e-05     4.551975e-03    -4.3854e-05      0.190 (TRAH MIcro)
    4     dE    -6.882030e-05     4.378153e-03    -6.3742e-05      0.282 (TRAH MIcro)
    4     dE    -9.944177e-05     4.855280e-03    -8.6374e-05      0.389 (TRAH MIcro)
    4     dE    -1.190607e-04     3.420984e-03    -9.9063e-05      0.449 (TRAH MIcro)
    4     dE    -1.285069e-04     2.112610e-03    -1.0476e-04      0.476 (TRAH MIcro)
    4     dE    -1.310401e-04     1.099118e-03    -1.0625e-04      0.483 (TRAH MIcro)
    4     dE    -1.317836e-04     4.727181e-04    -1.0669e-04      0.485 (TRAH MIcro)
    4     dE    -1.319207e-04     2.539414e-04    -1.0678e-04      0.485 (TRAH MIcro)
 ---------------------------------
          TRAH Step control 
 ---------------------------------
  predicted energy change = -0.000132
  actual energy  change   = 0.000816
  energy change ratio     = -6.182057
  old trust radius        = 0.576000
  new trust radius        = 0.403200
  reject step?            =  1
    5      -3283.344006637657     1.029154e-02                     0.403 (TRAH MAcro)  Yes
    6      -3283.344006637657     1.241521e-03                     0.403 (TRAH MAcro)   No
    6     dE    -1.560599e-08     2.361179e-03    -1.5725e-08      0.000 (TRAH MIcro)
    6     dE    -9.097907e-07     9.070351e-04    -9.0979e-07      0.001 (TRAH MIcro)
    6     dE    -2.473161e-06     1.492216e-03    -2.4731e-06      0.006 (TRAH MIcro)
    6     dE    -4.730985e-06     1.703540e-03    -4.7299e-06      0.015 (TRAH MIcro)
    6     dE    -1.113382e-05     3.040753e-03    -1.1114e-05      0.042 (TRAH MIcro)
    6     dE    -2.273479e-05     4.014268e-03    -2.2539e-05      0.093 (TRAH MIcro)
    6     dE    -4.540956e-05     4.534251e-03    -4.3828e-05      0.190 (TRAH MIcro)
    6     dE    -6.874247e-05     4.372555e-03    -6.3679e-05      0.282 (TRAH MIcro)
    6     dE    -9.926556e-05     4.854443e-03    -8.6253e-05      0.388 (TRAH MIcro)
    6     dE    -1.139809e-04     3.058066e-03    -1.5371e-04      0.403 (TRAH MIcro)
    6     dE    -1.192113e-04     1.785840e-03    -1.8664e-04      0.403 (TRAH MIcro)
    6     dE    -1.203370e-04     9.165684e-04    -1.9615e-04      0.402 (TRAH MIcro)
    6     dE    -1.208842e-04     3.923501e-04    -1.9694e-04      0.403 (TRAH MIcro)
    6     dE    -1.209562e-04     2.113580e-04    -1.9731e-04      0.403 (TRAH MIcro)
 ---------------------------------
          TRAH Step control 
 ---------------------------------
  predicted energy change = -0.000121
  actual energy  change   = 0.000305
  energy change ratio     = -2.521561
  old trust radius        = 0.403200
  new trust radius        = 0.282240
  reject step?            =  1
    7      -3283.344006637657     1.029154e-02                     0.282 (TRAH MAcro)  Yes
    8      -3283.344006637657     1.241521e-03                     0.282 (TRAH MAcro)   No
    8     dE    -1.564310e-08     2.362513e-03    -1.5703e-08      0.000 (TRAH MIcro)
    8     dE    -9.098316e-07     9.049191e-04    -9.0983e-07      0.001 (TRAH MIcro)
    8     dE    -2.473238e-06     1.494352e-03    -2.4731e-06      0.006 (TRAH MIcro)
    8     dE    -4.731033e-06     1.704045e-03    -4.7300e-06      0.015 (TRAH MIcro)
    8     dE    -1.113224e-05     3.041644e-03    -1.1112e-05      0.042 (TRAH MIcro)
    8     dE    -2.272689e-05     4.003836e-03    -2.2531e-05      0.093 (TRAH MIcro)
    8     dE    -4.537262e-05     4.532217e-03    -4.3795e-05      0.190 (TRAH MIcro)
    8     dE    -6.865716e-05     4.370994e-03    -6.3611e-05      0.282 (TRAH MIcro)
    8     dE    -8.667170e-05     3.468495e-03    -2.9827e-04      0.282 (TRAH MIcro)
    8     dE    -9.326460e-05     2.111897e-03    -3.8540e-04      0.282 (TRAH MIcro)
    8     dE    -9.577626e-05     1.234077e-03    -4.1796e-04      0.282 (TRAH MIcro)
    8     dE    -9.639532e-05     6.370568e-04    -4.2590e-04      0.282 (TRAH MIcro)
    8     dE    -9.657686e-05     2.698218e-04    -4.2800e-04      0.282 (TRAH MIcro)
    8     dE    -9.661104e-05     1.456304e-04    -4.2832e-04      0.282 (TRAH MIcro)
    9      -3283.344021830915     1.276716e-02                     0.198 (TRAH MAcro)   No
    9     dE    -6.447447e-05     1.523920e-02    -6.4473e-05      0.005 (TRAH MIcro)
    9     dE    -1.153515e-04     5.824253e-03    -1.1533e-04      0.013 (TRAH MIcro)
    9     dE    -1.259302e-04     3.980269e-03    -1.2590e-04      0.016 (TRAH MIcro)
    9     dE    -1.298628e-04     1.477280e-03    -1.2982e-04      0.018 (TRAH MIcro)
    9     dE    -1.319926e-04     1.798044e-03    -1.3194e-04      0.019 (TRAH MIcro)
    9     dE    -1.353101e-04     2.119108e-03    -1.3523e-04      0.024 (TRAH MIcro)
    9     dE    -1.435741e-04     3.411017e-03    -1.4327e-04      0.046 (TRAH MIcro)
    9     dE    -1.525426e-04     2.391782e-03    -1.5174e-04      0.073 (TRAH MIcro)
    9     dE    -1.591334e-04     2.168646e-03    -1.5776e-04      0.093 (TRAH MIcro)
    9     dE    -1.628307e-04     1.351367e-03    -1.6106e-04      0.105 (TRAH MIcro)
    9     dE    -1.638674e-04     8.164209e-04    -1.6197e-04      0.108 (TRAH MIcro)
   10      -3283.344213252954     1.922745e-03                     0.237 (TRAH MAcro)   No
   10     dE    -2.039059e-07     8.444387e-03    -2.0391e-07      0.000 (TRAH MIcro)
   10     dE    -2.642750e-06     1.783364e-03    -2.6427e-06      0.002 (TRAH MIcro)
   10     dE    -5.014097e-06     1.952968e-03    -5.0139e-06      0.006 (TRAH MIcro)
   10     dE    -7.374173e-06     1.659753e-03    -7.3730e-06      0.013 (TRAH MIcro)
   10     dE    -1.504297e-05     3.676897e-03    -1.5023e-05      0.037 (TRAH MIcro)
   10     dE    -3.183962e-05     4.538330e-03    -3.1573e-05      0.092 (TRAH MIcro)
   10     dE    -5.915591e-05     5.014204e-03    -5.7300e-05      0.180 (TRAH MIcro)
   10     dE    -7.866703e-05     4.129235e-03    -8.3248e-05      0.237 (TRAH MIcro)
   10     dE    -8.668239e-05     2.625828e-03    -2.3171e-04      0.237 (TRAH MIcro)
   10     dE    -9.079993e-05     1.747520e-03    -3.0807e-04      0.237 (TRAH MIcro)
   10     dE    -9.202759e-05     8.549088e-04    -3.3016e-04      0.237 (TRAH MIcro)
   10     dE    -9.250694e-05     5.660266e-04    -3.3922e-04      0.237 (TRAH MIcro)
   10     dE    -9.264622e-05     3.117643e-04    -3.4185e-04      0.237 (TRAH MIcro)
   10     dE    -9.271114e-05     1.950219e-04    -3.4338e-04      0.237 (TRAH MIcro)
   11      -3283.344227238238     8.782492e-03                     0.166 (TRAH MAcro)   No
   11     dE    -3.188828e-05     2.356259e-02    -3.1888e-05      0.004 (TRAH MIcro)
   11     dE    -5.856465e-05     6.613312e-03    -5.8560e-05      0.009 (TRAH MIcro)
   11     dE    -6.382156e-05     4.271133e-03    -6.3813e-05      0.011 (TRAH MIcro)
   11     dE    -6.543561e-05     9.162486e-04    -6.5425e-05      0.013 (TRAH MIcro)
   11     dE    -6.584196e-05     9.488252e-04    -6.5831e-05      0.013 (TRAH MIcro)
   11     dE    -6.602311e-05     3.358555e-04    -6.6011e-05      0.013 (TRAH MIcro)
   12      -3283.344293310458     3.412972e-04                           (NR   MAcro)
   12     dE    -6.299075e-08     2.003740e-04                           (NR   MIcro)
   12     dE    -1.311720e-07     2.964487e-04                           (NR   MIcro)
   12     dE    -2.268782e-07     3.252848e-04                           (NR   MIcro)
   12     dE    -3.571719e-07     3.605928e-04                           (NR   MIcro)
   12     dE    -5.288968e-07     3.982136e-04                           (NR   MIcro)
   12     dE    -7.518546e-07     3.809236e-04                           (NR   MIcro)
   12     dE    -9.298420e-07     3.233807e-04                           (NR   MIcro)
   12     dE    -1.055793e-06     2.420991e-04                           (NR   MIcro)
   12     dE    -1.109534e-06     1.410787e-04                           (NR   MIcro)
   12     dE    -1.124725e-06     6.707803e-05                           (NR   MIcro)
   12     dE    -1.128338e-06     4.196052e-05                           (NR   MIcro)
   12     dE    -1.130127e-06     2.802804e-05                           (NR   MIcro)
   12     dE    -1.130596e-06     1.339044e-05                           (NR   MIcro)
   12     dE    -1.130697e-06     6.043508e-06                           (NR   MIcro)
   12     dE    -1.130722e-06     3.262303e-06                           (NR   MIcro)
   13      -3283.344294474165     8.722962e-05                           (NR   MAcro)
   13     dE    -3.649419e-09     3.494701e-05                           (NR   MIcro)
   13     dE    -4.794782e-09     1.751352e-05                           (NR   MIcro)
   13     dE    -5.036334e-09     1.216574e-05                           (NR   MIcro)
   13     dE    -5.170722e-09     7.782548e-06                           (NR   MIcro)
   13     dE    -5.247214e-09     8.844964e-06                           (NR   MIcro)
   13     dE    -5.373735e-09     1.226058e-05                           (NR   MIcro)
   13     dE    -5.543565e-09     1.332848e-05                           (NR   MIcro)
   13     dE    -5.832979e-09     2.095580e-05                           (NR   MIcro)
   13     dE    -6.197395e-09     1.551350e-05                           (NR   MIcro)
   13     dE    -6.420579e-09     1.201012e-05                           (NR   MIcro)
   13     dE    -6.533999e-09     6.709646e-06                           (NR   MIcro)
   13     dE    -6.563443e-09     3.712753e-06                           (NR   MIcro)
   14      -3283.344294480757     3.860363e-06                           (NR   MAcro)

               *****************************************************
               *                     SUCCESS                       *
               *           SCF CONVERGED AFTER 179 CYCLES          *
               *****************************************************

Old exchange energy                            =    -47.805690012 Eh
New exchange energy                            =    -47.805663595 Eh
Exchange energy change after final integration =      0.000026417 Eh
Total energy after final integration           =  -3283.344268063 Eh
Final COS-X integration done in                =    32.740 sec

------------------
NL GRID GENERATION
------------------

General Integration Accuracy     IntAcc      ... 4.004
Radial Grid Type                 RadialGrid  ... OptM3 with GC (2021)
Angular Grid (max. ang.)         AngularGrid ... 2 (Lebedev-110)
Angular grid pruning method      GridPruning ... 4 (adaptive)
Weight generation scheme         WeightScheme... Becke
Basis function cutoff            BFCut       ... 1.0000e-10
Integration weight cutoff        WCut        ... 1.0000e-14
Angular grids for H and He will be reduced by one unit
Partially contracted basis set               ... off
Rotationally invariant grid construction     ... off

Total number of grid points                  ...    49740
Total number of batches                      ...      795
Average number of points per batch           ...       62
Average number of grid points per atom       ...     1605
Final grid set up in    0.3 sec

-------------------------------------------------------------------------------
                    post-SCF DFT-NL dispersion correction                      
-------------------------------------------------------------------------------

SCF Energy:   -3283.344268063 
NL    Energy:  0.570323057 
SC+NL Energy: -3282.773945007 
NL done in:    1.7 sec
-------------------------------------------------------------------------------

----------------
TOTAL SCF ENERGY
----------------

Total Energy       :        -3282.77394501 Eh          -89328.82043 eV

Components:
Nuclear Repulsion  :         1486.52725937 Eh           40450.46319 eV
Electronic Energy  :        -4769.30120437 Eh         -129779.28362 eV
One Electron Energy:        -7477.74829932 Eh         -203479.87594 eV
Two Electron Energy:         2708.44709495 Eh           73700.59232 eV
Max COSX asymmetry :            0.00000114 Eh               0.00003 eV

Virial components:
Potential Energy   :        -6560.67514419 Eh         -178525.04671 eV
Kinetic Energy     :         3277.90119918 Eh           89196.22628 eV
Virial Ratio       :            2.00148654


DFT components:
N(Alpha)           :       74.999908424702 electrons
N(Beta)            :       73.999907957128 electrons
N(Total)           :      148.999816381831 electrons
NL Energy, E(C,NL) :        0.570323056561 Eh       
E(XC)              :     -142.997892974335 Eh       
DFET-embed. en.    :        0.000000000000 Eh       

---------------
SCF CONVERGENCE
---------------

  Last Energy change         ...   -6.5920e-09  Tolerance :   1.0000e-06
  Last Orbital Gradient      ...    3.8604e-06  Tolerance :   5.0000e-05
  Last Orbital Rotation      ...    7.9199e-04

             **** THE GBW FILE WAS UPDATED (arbr_09_r2scan3c_wB97MV_ox.gbw) ****
             **** DENSITY arbr_09_r2scan3c_wB97MV_ox.scfp WAS UPDATED ****
             **** ENERGY FILE WAS UPDATED (arbr_09_r2scan3c_wB97MV_ox.en.tmp) ****
----------------------
UHF SPIN CONTAMINATION
----------------------

Warning: in a DFT calculation there is little theoretical justification to 
         calculate <S**2> as in Hartree-Fock theory. We will do it anyways
         but you should keep in mind that the values have only limited relevance

Expectation value of <S**2>     :     0.774024
Ideal value S*(S+1) for S=0.5   :     0.750000
Deviation                       :     0.024024

             **** THE GBW FILE WAS UPDATED (arbr_09_r2scan3c_wB97MV_ox.gbw) ****
             **** DENSITY arbr_09_r2scan3c_wB97MV_ox.scfp WAS UPDATED ****
----------------
ORBITAL ENERGIES
----------------
                 SPIN UP ORBITALS
  NO   OCC          E(Eh)            E(eV) 
   0   1.0000    -483.638627    -13160.4761 
   1   1.0000     -62.943312     -1712.7746 
   2   1.0000     -56.630121     -1540.9839 
   3   1.0000     -56.627584     -1540.9149 
   4   1.0000     -56.627544     -1540.9138 
   5   1.0000     -19.519434      -531.1508 
   6   1.0000     -19.473443      -529.8993 
   7   1.0000     -14.766189      -401.8084 
   8   1.0000     -10.667236      -290.2703 
   9   1.0000     -10.602156      -288.4993 
  10   1.0000     -10.575024      -287.7610 
  11   1.0000     -10.566296      -287.5235 
  12   1.0000     -10.562685      -287.4253 
  13   1.0000     -10.553114      -287.1648 
  14   1.0000     -10.548839      -287.0485 
  15   1.0000     -10.545972      -286.9705 
  16   1.0000     -10.542359      -286.8722 
  17   1.0000     -10.535907      -286.6966 
  18   1.0000     -10.441791      -284.1356 
  19   1.0000     -10.438834      -284.0551 
  20   1.0000     -10.438826      -284.0549 
  21   1.0000      -9.026304      -245.6182 
  22   1.0000      -6.813223      -185.3972 
  23   1.0000      -6.800903      -185.0620 
  24   1.0000      -6.800565      -185.0528 
  25   1.0000      -2.893944       -78.7482 
  26   1.0000      -2.890458       -78.6534 
  27   1.0000      -2.890242       -78.6475 
  28   1.0000      -2.880331       -78.3778 
  29   1.0000      -2.880328       -78.3777 
  30   1.0000      -1.404990       -38.2317 
  31   1.0000      -1.316751       -35.8306 
  32   1.0000      -1.306031       -35.5389 
  33   1.0000      -1.181286       -32.1444 
  34   1.0000      -1.130841       -30.7718 
  35   1.0000      -1.088252       -29.6128 
  36   1.0000      -1.060339       -28.8533 
  37   1.0000      -1.052961       -28.6525 
  38   1.0000      -1.013541       -27.5799 
  39   1.0000      -0.949628       -25.8407 
  40   1.0000      -0.928705       -25.2713 
  41   1.0000      -0.926468       -25.2105 
  42   1.0000      -0.925844       -25.1935 
  43   1.0000      -0.895879       -24.3781 
  44   1.0000      -0.871785       -23.7225 
  45   1.0000      -0.839067       -22.8322 
  46   1.0000      -0.787780       -21.4366 
  47   1.0000      -0.779241       -21.2042 
  48   1.0000      -0.773232       -21.0407 
  49   1.0000      -0.758798       -20.6479 
  50   1.0000      -0.744952       -20.2712 
  51   1.0000      -0.726230       -19.7617 
  52   1.0000      -0.724982       -19.7278 
  53   1.0000      -0.716232       -19.4897 
  54   1.0000      -0.713061       -19.4034 
  55   1.0000      -0.691205       -18.8087 
  56   1.0000      -0.684069       -18.6145 
  57   1.0000      -0.670987       -18.2585 
  58   1.0000      -0.651842       -17.7375 
  59   1.0000      -0.640688       -17.4340 
  60   1.0000      -0.634080       -17.2542 
  61   1.0000      -0.617128       -16.7929 
  62   1.0000      -0.607324       -16.5261 
  63   1.0000      -0.606567       -16.5055 
  64   1.0000      -0.584595       -15.9076 
  65   1.0000      -0.583483       -15.8774 
  66   1.0000      -0.579852       -15.7786 
  67   1.0000      -0.570316       -15.5191 
  68   1.0000      -0.566887       -15.4258 
  69   1.0000      -0.552291       -15.0286 
  70   1.0000      -0.532980       -14.5031 
  71   1.0000      -0.528428       -14.3793 
  72   1.0000      -0.518366       -14.1055 
  73   1.0000      -0.512028       -13.9330 
  74   1.0000      -0.478891       -13.0313 
  75   0.0000      -0.148234        -4.0336 
  76   0.0000      -0.107795        -2.9332 
  77   0.0000      -0.069144        -1.8815 
  78   0.0000      -0.054290        -1.4773 
  79   0.0000      -0.024634        -0.6703 
  80   0.0000      -0.013263        -0.3609 
  81   0.0000      -0.007319        -0.1992 
  82   0.0000      -0.005991        -0.1630 
  83   0.0000       0.008470         0.2305 
  84   0.0000       0.015408         0.4193 
  85   0.0000       0.026748         0.7279 
  86   0.0000       0.036407         0.9907 
  87   0.0000       0.040636         1.1057 
  88   0.0000       0.047609         1.2955 
  89   0.0000       0.054709         1.4887 
  90   0.0000       0.061202         1.6654 
  91   0.0000       0.063942         1.7399 
  92   0.0000       0.068747         1.8707 
  93   0.0000       0.071458         1.9445 
  94   0.0000       0.076405         2.0791 
  95   0.0000       0.086748         2.3605 
  96   0.0000       0.092200         2.5089 
  97   0.0000       0.097470         2.6523 
  98   0.0000       0.097912         2.6643 
  99   0.0000       0.105035         2.8582 
 100   0.0000       0.110999         3.0204 
 101   0.0000       0.122117         3.3230 
 102   0.0000       0.122521         3.3340 
 103   0.0000       0.129011         3.5106 
 104   0.0000       0.137687         3.7467 
 105   0.0000       0.137705         3.7471 
 106   0.0000       0.140496         3.8231 
 107   0.0000       0.146664         3.9909 
 108   0.0000       0.147361         4.0099 
 109   0.0000       0.147584         4.0160 
 110   0.0000       0.153800         4.1851 
 111   0.0000       0.162809         4.4302 
 112   0.0000       0.171838         4.6759 
 113   0.0000       0.180785         4.9194 
 114   0.0000       0.181948         4.9511 
 115   0.0000       0.192978         5.2512 
 116   0.0000       0.196130         5.3370 
 117   0.0000       0.198226         5.3940 
 118   0.0000       0.212036         5.7698 
 119   0.0000       0.212980         5.7955 
 120   0.0000       0.217492         5.9183 
 121   0.0000       0.225085         6.1249 
 122   0.0000       0.232929         6.3383 
 123   0.0000       0.233569         6.3557 
 124   0.0000       0.238815         6.4985 
 125   0.0000       0.241670         6.5762 
 126   0.0000       0.242149         6.5892 
 127   0.0000       0.257579         7.0091 
 128   0.0000       0.264109         7.1868 
 129   0.0000       0.272853         7.4247 
 130   0.0000       0.273020         7.4293 
 131   0.0000       0.276837         7.5331 
 132   0.0000       0.289390         7.8747 
 133   0.0000       0.297494         8.0952 
 134   0.0000       0.297960         8.1079 
 135   0.0000       0.303566         8.2605 
 136   0.0000       0.307440         8.3659 
 137   0.0000       0.314749         8.5647 
 138   0.0000       0.316670         8.6170 
 139   0.0000       0.324294         8.8245 
 140   0.0000       0.326585         8.8868 
 141   0.0000       0.336195         9.1483 
 142   0.0000       0.339061         9.2263 
 143   0.0000       0.349527         9.5111 
 144   0.0000       0.351465         9.5639 
 145   0.0000       0.357476         9.7274 
 146   0.0000       0.368765        10.0346 
 147   0.0000       0.371512        10.1093 
 148   0.0000       0.376640        10.2489 
 149   0.0000       0.381227        10.3737 
 150   0.0000       0.390427        10.6241 
 151   0.0000       0.390843        10.6354 
 152   0.0000       0.393908        10.7188 
 153   0.0000       0.402407        10.9501 
 154   0.0000       0.413648        11.2559 
 155   0.0000       0.417183        11.3521 
 156   0.0000       0.420111        11.4318 
 157   0.0000       0.428389        11.6570 
 158   0.0000       0.431146        11.7321 
 159   0.0000       0.433685        11.8012 
 160   0.0000       0.440512        11.9870 
 161   0.0000       0.441063        12.0019 
 162   0.0000       0.447351        12.1730 
 163   0.0000       0.450058        12.2467 
 164   0.0000       0.462921        12.5967 
 165   0.0000       0.467973        12.7342 
 166   0.0000       0.477949        13.0056 
 167   0.0000       0.482854        13.1391 
 168   0.0000       0.485502        13.2112 
 169   0.0000       0.489991        13.3333 
 170   0.0000       0.493992        13.4422 
 171   0.0000       0.498787        13.5727 
 172   0.0000       0.508021        13.8240 
 173   0.0000       0.522210        14.2101 
 174   0.0000       0.534367        14.5409 
 175   0.0000       0.539465        14.6796 
 176   0.0000       0.547329        14.8936 
 177   0.0000       0.559459        15.2236 
 178   0.0000       0.562089        15.2952 
 179   0.0000       0.576090        15.6762 
 180   0.0000       0.578401        15.7391 
 181   0.0000       0.591970        16.1083 
 182   0.0000       0.592475        16.1221 
 183   0.0000       0.600138        16.3306 
 184   0.0000       0.609664        16.5898 
 185   0.0000       0.612393        16.6640 
 186   0.0000       0.621377        16.9085 
 187   0.0000       0.626000        17.0343 
 188   0.0000       0.629500        17.1296 
 189   0.0000       0.639397        17.3989 
 190   0.0000       0.639505        17.4018 
 191   0.0000       0.648429        17.6446 
 192   0.0000       0.654131        17.7998 
 193   0.0000       0.661266        17.9940 
 194   0.0000       0.676297        18.4030 
 195   0.0000       0.689380        18.7590 
 196   0.0000       0.691890        18.8273 
 197   0.0000       0.699135        19.0244 
 198   0.0000       0.707107        19.2414 
 199   0.0000       0.713954        19.4277 
 200   0.0000       0.714031        19.4298 
 201   0.0000       0.739808        20.1312 
 202   0.0000       0.743407        20.2291 
 203   0.0000       0.751391        20.4464 
 204   0.0000       0.760739        20.7008 
 205   0.0000       0.766830        20.8665 
 206   0.0000       0.781105        21.2549 
 207   0.0000       0.784643        21.3512 
 208   0.0000       0.785640        21.3783 
 209   0.0000       0.799223        21.7480 
 210   0.0000       0.806608        21.9489 
 211   0.0000       0.820427        22.3250 
 212   0.0000       0.821786        22.3619 
 213   0.0000       0.829290        22.5661 
 214   0.0000       0.850614        23.1464 
 215   0.0000       0.858881        23.3713 
 216   0.0000       0.864583        23.5265 
 217   0.0000       0.876339        23.8464 
 218   0.0000       0.884390        24.0655 
 219   0.0000       0.889477        24.2039 
 220   0.0000       0.894818        24.3492 
 221   0.0000       0.898221        24.4418 
 222   0.0000       0.902933        24.5701 
 223   0.0000       0.914951        24.8971 
 224   0.0000       0.917541        24.9676 
 225   0.0000       0.923213        25.1219 
 226   0.0000       0.943522        25.6745 
 227   0.0000       0.945019        25.7153 
 228   0.0000       0.958302        26.0767 
 229   0.0000       0.962677        26.1958 
 230   0.0000       0.966261        26.2933 
 231   0.0000       0.974795        26.5255 
 232   0.0000       0.987336        26.8668 
 233   0.0000       0.991152        26.9706 
 234   0.0000       0.996231        27.1088 
 235   0.0000       1.017642        27.6914 
 236   0.0000       1.019050        27.7298 
 237   0.0000       1.023353        27.8468 
 238   0.0000       1.025230        27.8979 
 239   0.0000       1.031402        28.0659 
 240   0.0000       1.038564        28.2608 
 241   0.0000       1.060742        28.8642 
 242   0.0000       1.064688        28.9716 
 243   0.0000       1.074925        29.2502 
 244   0.0000       1.086266        29.5588 
 245   0.0000       1.087050        29.5801 
 246   0.0000       1.098988        29.9050 
 247   0.0000       1.103932        30.0395 
 248   0.0000       1.114420        30.3249 
 249   0.0000       1.119856        30.4728 
 250   0.0000       1.134459        30.8702 
 251   0.0000       1.136016        30.9126 
 252   0.0000       1.149551        31.2809 
 253   0.0000       1.151725        31.3400 
 254   0.0000       1.158073        31.5128 
 255   0.0000       1.158997        31.5379 
 256   0.0000       1.165879        31.7252 
 257   0.0000       1.171574        31.8802 
 258   0.0000       1.187672        32.3182 
 259   0.0000       1.190397        32.3923 
 260   0.0000       1.193143        32.4671 
 261   0.0000       1.210595        32.9420 
 262   0.0000       1.228135        33.4193 
 263   0.0000       1.235941        33.6317 
 264   0.0000       1.244083        33.8532 
 265   0.0000       1.254481        34.1362 
 266   0.0000       1.256127        34.1810 
 267   0.0000       1.258476        34.2449 
 268   0.0000       1.271194        34.5909 
 269   0.0000       1.276473        34.7346 
 270   0.0000       1.280281        34.8382 
 271   0.0000       1.282019        34.8855 
 272   0.0000       1.294466        35.2242 
 273   0.0000       1.296804        35.2878 
 274   0.0000       1.317778        35.8586 
 275   0.0000       1.318737        35.8847 
 276   0.0000       1.325338        36.0643 
 277   0.0000       1.338352        36.4184 
 278   0.0000       1.344664        36.5902 
 279   0.0000       1.345041        36.6004 
 280   0.0000       1.365182        37.1485 
 281   0.0000       1.372211        37.3398 
 282   0.0000       1.373079        37.3634 
 283   0.0000       1.376643        37.4604 
 284   0.0000       1.378085        37.4996 
 285   0.0000       1.388558        37.7846 
 286   0.0000       1.394788        37.9541 
 287   0.0000       1.399647        38.0863 
 288   0.0000       1.412182        38.4274 
 289   0.0000       1.412497        38.4360 
 290   0.0000       1.416717        38.5508 
 291   0.0000       1.427563        38.8460 
 292   0.0000       1.437637        39.1201 
 293   0.0000       1.445296        39.3285 
 294   0.0000       1.447317        39.3835 
 295   0.0000       1.466860        39.9153 
 296   0.0000       1.468030        39.9471 
 297   0.0000       1.468921        39.9714 
 298   0.0000       1.478536        40.2330 
 299   0.0000       1.496638        40.7256 
 300   0.0000       1.500092        40.8196 
 301   0.0000       1.503856        40.9220 
 302   0.0000       1.506663        40.9984 
 303   0.0000       1.510658        41.1071 
 304   0.0000       1.526493        41.5380 
 305   0.0000       1.527181        41.5567 
 306   0.0000       1.535052        41.7709 
 307   0.0000       1.543398        41.9980 
 308   0.0000       1.548046        42.1245 
 309   0.0000       1.550742        42.1978 
 310   0.0000       1.565486        42.5990 
 311   0.0000       1.566109        42.6160 
 312   0.0000       1.571251        42.7559 
 313   0.0000       1.576108        42.8881 
 314   0.0000       1.581437        43.0331 
 315   0.0000       1.587382        43.1949 
 316   0.0000       1.594343        43.3843 
 317   0.0000       1.595368        43.4122 
 318   0.0000       1.607998        43.7559 
 319   0.0000       1.620797        44.1041 
 320   0.0000       1.630531        44.3690 
 321   0.0000       1.632835        44.4317 
 322   0.0000       1.641244        44.6605 
 323   0.0000       1.655918        45.0598 
 324   0.0000       1.669410        45.4269 
 325   0.0000       1.677626        45.6505 
 326   0.0000       1.678875        45.6845 
 327   0.0000       1.693953        46.0948 
 328   0.0000       1.694979        46.1227 
 329   0.0000       1.716610        46.7113 
 330   0.0000       1.718571        46.7647 
 331   0.0000       1.728586        47.0372 
 332   0.0000       1.736822        47.2613 
 333   0.0000       1.745588        47.4999 
 334   0.0000       1.745668        47.5020 
 335   0.0000       1.761663        47.9373 
 336   0.0000       1.783880        48.5419 
 337   0.0000       1.786649        48.6172 
 338   0.0000       1.797894        48.9232 
 339   0.0000       1.811536        49.2944 
 340   0.0000       1.844231        50.1841 
 341   0.0000       1.849075        50.3159 
 342   0.0000       1.871613        50.9292 
 343   0.0000       1.883608        51.2556 
 344   0.0000       1.895712        51.5850 
 345   0.0000       1.912216        52.0340 
 346   0.0000       1.942810        52.8666 
 347   0.0000       1.958719        53.2994 
 348   0.0000       1.969761        53.5999 
 349   0.0000       1.976770        53.7906 
 350   0.0000       1.990518        54.1647 
 351   0.0000       1.995632        54.3039 
 352   0.0000       2.023219        55.0546 
 353   0.0000       2.025511        55.1169 
 354   0.0000       2.057157        55.9781 
 355   0.0000       2.067418        56.2573 
 356   0.0000       2.074500        56.4500 
 357   0.0000       2.077381        56.5284 
 358   0.0000       2.080436        56.6115 
 359   0.0000       2.098855        57.1128 
 360   0.0000       2.125928        57.8494 
 361   0.0000       2.142321        58.2955 
 362   0.0000       2.150529        58.5189 
 363   0.0000       2.167620        58.9839 
 364   0.0000       2.175418        59.1961 
 365   0.0000       2.184560        59.4449 
 366   0.0000       2.192300        59.6555 
 367   0.0000       2.197234        59.7898 
 368   0.0000       2.204484        59.9870 
 369   0.0000       2.218677        60.3733 
 370   0.0000       2.226248        60.5793 
 371   0.0000       2.236661        60.8626 
 372   0.0000       2.263832        61.6020 
 373   0.0000       2.308897        62.8283 
 374   0.0000       2.321128        63.1611 
 375   0.0000       2.343119        63.7595 
 376   0.0000       2.389026        65.0087 
 377   0.0000       2.394786        65.1654 
 378   0.0000       2.395478        65.1843 
 379   0.0000       2.412328        65.6428 
 380   0.0000       2.433253        66.2122 
 381   0.0000       2.445776        66.5529 
 382   0.0000       2.449400        66.6516 
 383   0.0000       2.453612        66.7662 
 384   0.0000       2.461507        66.9810 
 385   0.0000       2.470048        67.2134 
 386   0.0000       2.487113        67.6778 
 387   0.0000       2.503391        68.1207 
 388   0.0000       2.518445        68.5304 
 389   0.0000       2.518955        68.5442 
 390   0.0000       2.536315        69.0166 
 391   0.0000       2.540857        69.1402 
 392   0.0000       2.544614        69.2425 
 393   0.0000       2.549796        69.3835 
 394   0.0000       2.556133        69.5559 
 395   0.0000       2.587660        70.4138 
 396   0.0000       2.609248        71.0013 
 397   0.0000       2.613036        71.1043 
 398   0.0000       2.617612        71.2288 
 399   0.0000       2.634470        71.6876 
 400   0.0000       2.635549        71.7169 
 401   0.0000       2.637276        71.7639 
 402   0.0000       2.660552        72.3973 
 403   0.0000       2.672463        72.7214 
 404   0.0000       2.690733        73.2186 
 405   0.0000       2.694393        73.3181 
 406   0.0000       2.704157        73.5839 
 407   0.0000       2.708401        73.6993 
 408   0.0000       2.708590        73.7045 
 409   0.0000       2.729375        74.2701 
[...]
      f-2     :    -0.000001
      f+3     :    -0.000001
      f-3     :     0.000000
  4 O s       :    -0.000081  s :    -0.000081
      pz      :     0.001073  p :     0.000886
      px      :    -0.000113
      py      :    -0.000075
      dz2     :    -0.000011  d :    -0.000222
      dxz     :    -0.000096
      dyz     :    -0.000048
      dx2y2   :    -0.000045
      dxy     :    -0.000022
      f0      :    -0.000004  f :    -0.000013
      f+1     :    -0.000001
      f-1     :    -0.000000
      f+2     :     0.000003
      f-2     :    -0.000008
      f+3     :    -0.000003
      f-3     :    -0.000001
  5 C s       :    -0.000672  s :    -0.000672
      pz      :    -0.005337  p :    -0.007219
      px      :    -0.001042
      py      :    -0.000839
      dz2     :     0.000038  d :     0.010115
      dxz     :     0.005211
      dyz     :     0.004719
      dx2y2   :     0.000024
      dxy     :     0.000123
      f0      :     0.000167  f :     0.001971
      f+1     :     0.000011
      f-1     :     0.000010
      f+2     :     0.000668
      f-2     :     0.001059
      f+3     :    -0.000025
      f-3     :     0.000081
  6 O s       :     0.000199  s :     0.000199
      pz      :     0.020974  p :     0.021005
      px      :    -0.000092
      py      :     0.000123
      dz2     :     0.000002  d :    -0.000295
      dxz     :    -0.000002
      dyz     :    -0.000211
      dx2y2   :    -0.000033
      dxy     :    -0.000051
      f0      :    -0.000010  f :    -0.000035
      f+1     :    -0.000000
      f-1     :    -0.000006
      f+2     :    -0.000012
      f-2     :     0.000002
      f+3     :    -0.000006
      f-3     :    -0.000003
  7 N s       :     0.001472  s :     0.001472
      pz      :     0.078847  p :     0.080294
      px      :     0.001455
      py      :    -0.000008
      dz2     :    -0.000068  d :     0.007792
      dxz     :     0.000713
      dyz     :     0.007199
      dx2y2   :     0.000135
      dxy     :    -0.000187
      f0      :     0.000137  f :     0.000811
      f+1     :    -0.000034
      f-1     :    -0.000031
      f+2     :     0.000759
      f-2     :    -0.000021
      f+3     :     0.000005
      f-3     :    -0.000004
  8 C s       :     0.002221  s :     0.002221
      pz      :     0.158781  p :     0.160698
      px      :     0.000517
      py      :     0.001400
      dz2     :    -0.000410  d :     0.024034
      dxz     :     0.008104
      dyz     :     0.015825
      dx2y2   :     0.000097
      dxy     :     0.000419
      f0      :    -0.000010  f :     0.003421
      f+1     :    -0.000075
      f-1     :    -0.000124
      f+2     :     0.002580
      f-2     :     0.000889
      f+3     :     0.000159
      f-3     :     0.000001
  9 C s       :     0.002723  s :     0.002723
      pz      :     0.170271  p :     0.174506
      px      :     0.001207
      py      :     0.003029
      dz2     :    -0.000583  d :     0.013808
      dxz     :     0.016044
      dyz     :    -0.001172
      dx2y2   :     0.000106
      dxy     :    -0.000588
      f0      :    -0.000137  f :     0.001699
      f+1     :    -0.000097
      f-1     :    -0.000122
      f+2     :     0.001166
      f-2     :     0.000895
      f+3     :     0.000009
      f-3     :    -0.000016
 10 C s       :    -0.001363  s :    -0.001363
      pz      :     0.001650  p :    -0.003762
      px      :    -0.003024
      py      :    -0.002388
      dz2     :     0.000074  d :     0.035151
      dxz     :     0.024166
      dyz     :     0.009465
      dx2y2   :     0.000608
      dxy     :     0.000838
      f0      :     0.000375  f :     0.003700
      f+1     :     0.000019
      f-1     :     0.000009
      f+2     :     0.001471
      f-2     :     0.001629
      f+3     :     0.000086
      f-3     :     0.000111
 11 C s       :     0.003442  s :     0.003442
      pz      :     0.189630  p :     0.196963
      px      :     0.003402
      py      :     0.003932
      dz2     :    -0.000765  d :    -0.008323
      dxz     :    -0.001117
      dyz     :    -0.004624
      dx2y2   :    -0.000694
      dxy     :    -0.001122
      f0      :    -0.000455  f :    -0.001367
      f+1     :    -0.000129
      f-1     :    -0.000131
      f+2     :    -0.000216
      f-2     :    -0.000209
      f+3     :    -0.000146
      f-3     :    -0.000081
 12 C s       :    -0.002563  s :    -0.002563
      pz      :    -0.050744  p :    -0.057792
      px      :    -0.002465
      py      :    -0.004583
      dz2     :     0.000174  d :     0.036939
      dxz     :     0.001993
      dyz     :     0.033029
      dx2y2   :     0.000754
      dxy     :     0.000989
      f0      :     0.000509  f :     0.004217
      f+1     :     0.000039
      f-1     :     0.000052
      f+2     :     0.000524
      f-2     :     0.002849
      f+3     :     0.000118
      f-3     :     0.000125
 13 Brs       :    -0.000125  s :    -0.000125
      pz      :    -0.006712  p :    -0.004800
      px      :     0.002230
      py      :    -0.000318
      dz2     :    -0.000104  d :    -0.002997
      dxz     :    -0.002644
      dyz     :     0.000175
      dx2y2   :    -0.000237
      dxy     :    -0.000187
      f0      :    -0.000116  f :    -0.000383
      f+1     :    -0.000006
      f-1     :    -0.000002
      f+2     :    -0.000205
      f-2     :     0.000007
      f+3     :    -0.000031
      f-3     :    -0.000030
 14 C s       :     0.002777  s :     0.002777
      pz      :     0.156745  p :     0.162349
      px      :     0.002202
      py      :     0.003402
      dz2     :    -0.000593  d :    -0.002304
      dxz     :     0.002199
      dyz     :    -0.002869
      dx2y2   :    -0.000360
      dxy     :    -0.000683
      f0      :    -0.000379  f :    -0.000520
      f+1     :    -0.000095
      f-1     :    -0.000111
      f+2     :     0.000556
      f-2     :    -0.000367
      f+3     :    -0.000113
      f-3     :    -0.000011
 15 C s       :     0.000478  s :     0.000478
      pz      :     0.054559  p :     0.054115
      px      :    -0.001358
      py      :     0.000913
      dz2     :    -0.000194  d :     0.017082
      dxz     :     0.013713
      dyz     :     0.003000
      dx2y2   :     0.000499
      dxy     :     0.000065
      f0      :     0.000074  f :     0.001872
      f+1     :    -0.000015
      f-1     :    -0.000044
      f+2     :     0.001778
      f-2     :    -0.000020
      f+3     :     0.000011
      f-3     :     0.000088
 16 C s       :    -0.000225  s :    -0.000225
      pz      :     0.018610  p :     0.017083
      px      :    -0.001322
      py      :    -0.000205
      dz2     :    -0.000042  d :     0.006199
      dxz     :     0.004177
      dyz     :     0.002458
      dx2y2   :    -0.000207
      dxy     :    -0.000187
      f0      :     0.000069  f :     0.001574
      f+1     :     0.000002
      f-1     :    -0.000010
      f+2     :     0.001349
      f-2     :     0.000184
      f+3     :     0.000025
      f-3     :    -0.000045
 17 H s       :     0.000001  s :     0.000001
      pz      :     0.000000  p :    -0.000000
      px      :    -0.000001
      py      :     0.000001
      dz2     :    -0.000000  d :    -0.000000
      dxz     :    -0.000000
      dyz     :     0.000000
      dx2y2   :    -0.000000
      dxy     :    -0.000000
 18 H s       :    -0.000006  s :    -0.000006
      pz      :    -0.000001  p :    -0.000002
      px      :    -0.000001
      py      :    -0.000000
      dz2     :     0.000000  d :    -0.000000
      dxz     :     0.000000
      dyz     :     0.000000
      dx2y2   :    -0.000000
      dxy     :    -0.000000
 19 H s       :     0.000001  s :     0.000001
      pz      :     0.000000  p :    -0.000000
      px      :    -0.000001
      py      :     0.000001
      dz2     :    -0.000000  d :    -0.000000
      dxz     :     0.000000
      dyz     :     0.000000
      dx2y2   :    -0.000000
      dxy     :    -0.000000
 20 H s       :     0.000012  s :     0.000012
      pz      :    -0.000004  p :     0.000003
      px      :     0.000000
      py      :     0.000007
      dz2     :    -0.000000  d :     0.000006
      dxz     :     0.000001
      dyz     :     0.000001
      dx2y2   :     0.000004
      dxy     :     0.000001
 21 H s       :     0.000063  s :     0.000063
      pz      :     0.000004  p :     0.000001
      px      :     0.000001
      py      :    -0.000004
      dz2     :    -0.000000  d :     0.000000
      dxz     :     0.000001
      dyz     :     0.000000
      dx2y2   :    -0.000000
      dxy     :    -0.000000
 22 H s       :     0.000001  s :     0.000001
      pz      :     0.000005  p :     0.000003
      px      :    -0.000001
      py      :    -0.000001
      dz2     :     0.000001  d :     0.000002
      dxz     :     0.000000
      dyz     :     0.000000
      dx2y2   :    -0.000000
      dxy     :     0.000001
 23 H s       :     0.000063  s :     0.000063
      pz      :     0.000004  p :     0.000001
      px      :     0.000001
      py      :    -0.000004
      dz2     :    -0.000000  d :     0.000000
      dxz     :     0.000001
      dyz     :     0.000000
      dx2y2   :    -0.000000
      dxy     :    -0.000000
 24 H s       :     0.000012  s :     0.000012
      pz      :    -0.000004  p :     0.000003
      px      :     0.000000
      py      :     0.000007
      dz2     :    -0.000000  d :     0.000006
      dxz     :     0.000001
      dyz     :     0.000001
      dx2y2   :     0.000004
      dxy     :     0.000001
 25 H s       :     0.000001  s :     0.000001
      pz      :     0.000005  p :     0.000003
      px      :    -0.000001
      py      :    -0.000001
      dz2     :     0.000001  d :     0.000002
      dxz     :     0.000000
      dyz     :     0.000000
      dx2y2   :    -0.000000
      dxy     :     0.000001
 26 H s       :    -0.003500  s :    -0.003500
      pz      :     0.009229  p :     0.010185
      px      :     0.000807
      py      :     0.000149
      dz2     :     0.000008  d :     0.002336
      dxz     :     0.001842
      dyz     :     0.000324
      dx2y2   :     0.000075
      dxy     :     0.000087
 27 H s       :    -0.004070  s :    -0.004070
      pz      :     0.010431  p :     0.011582
      px      :     0.000113
      py      :     0.001038
      dz2     :     0.000008  d :     0.002642
      dxz     :     0.000300
      dyz     :     0.002121
      dx2y2   :     0.000111
      dxy     :     0.000102
 28 H s       :    -0.004404  s :    -0.004404
      pz      :     0.011238  p :     0.012637
      px      :     0.000550
      py      :     0.000849
      dz2     :     0.000010  d :     0.002896
      dxz     :     0.000925
      dyz     :     0.001687
      dx2y2   :     0.000124
      dxy     :     0.000149
 29 H s       :    -0.003542  s :    -0.003542
      pz      :     0.009658  p :     0.010753
      px      :     0.000277
      py      :     0.000818
      dz2     :     0.000006  d :     0.002380
      dxz     :     0.000499
      dyz     :     0.001657
      dx2y2   :     0.000099
      dxy     :     0.000119
 30 H s       :    -0.001193  s :    -0.001193
      pz      :     0.003284  p :     0.003492
      px      :     0.000035
      py      :     0.000174
      dz2     :     0.000001  d :     0.000751
      dxz     :     0.000371
      dyz     :     0.000344
      dx2y2   :    -0.000009
      dxy     :     0.000043


                      *****************************
                      * MAYER POPULATION ANALYSIS *
                      *****************************

  NA   - Mulliken gross atomic population
  ZA   - Total nuclear charge
  QA   - Mulliken gross atomic charge
  VA   - Mayer's total valence
  BVA  - Mayer's bonded valence
  FA   - Mayer's free valence

  ATOM       NA         ZA         QA         VA         BVA        FA
  0 C      6.3004     6.0000    -0.3004     3.8131     3.8131     0.0000
  1 C      5.9202     6.0000     0.0798     3.9546     3.9546     0.0000
  2 C      6.3212     6.0000    -0.3212     3.7989     3.7989     0.0000
  3 C      6.3211     6.0000    -0.3211     3.7991     3.7991     0.0000
  4 O      8.2996     8.0000    -0.2996     2.0936     2.0936     0.0000
  5 C      5.5108     6.0000     0.4892     4.1901     4.1900     0.0001
  6 O      8.3453     8.0000    -0.3453     2.1398     2.1392     0.0006
  7 N      7.0069     7.0000    -0.0069     3.3647     3.3544     0.0103
  8 C      5.9557     6.0000     0.0443     3.9207     3.8790     0.0416
  9 C      6.0656     6.0000    -0.0656     3.9715     3.9208     0.0507
 10 C      5.9888     6.0000     0.0112     3.9145     3.9115     0.0030
 11 C      6.0361     6.0000    -0.0361     3.8928     3.8338     0.0589
 12 C      6.0497     6.0000    -0.0497     4.0937     4.0878     0.0059
 13 Br    34.9380    35.0000     0.0620     1.2821     1.2820     0.0001
 14 C      6.0074     6.0000    -0.0074     3.8522     3.8115     0.0407
 15 C      6.0557     6.0000    -0.0557     3.9654     3.9586     0.0068
 16 C      6.0027     6.0000    -0.0027     4.0102     4.0086     0.0017
 17 H      0.8749     1.0000     0.1251     0.9939     0.9939    -0.0000
 18 H      0.8714     1.0000     0.1286     0.9966     0.9966     0.0000
 19 H      0.8749     1.0000     0.1251     0.9940     0.9940    -0.0000
 20 H      0.8588     1.0000     0.1412     0.9997     0.9997     0.0000
 21 H      0.8682     1.0000     0.1318     0.9936     0.9936     0.0000
 22 H      0.8768     1.0000     0.1232     0.9947     0.9947    -0.0000
 23 H      0.8681     1.0000     0.1319     0.9935     0.9935     0.0000
 24 H      0.8588     1.0000     0.1412     0.9997     0.9997     0.0000
 25 H      0.8767     1.0000     0.1233     0.9947     0.9947    -0.0000
 26 H      0.7884     1.0000     0.2116     0.9869     0.9869     0.0000
 27 H      0.8038     1.0000     0.1962     0.9864     0.9864     0.0000
 28 H      0.8249     1.0000     0.1751     0.9903     0.9902     0.0001
 29 H      0.8229     1.0000     0.1771     0.9865     0.9865     0.0000
 30 H      0.8060     1.0000     0.1940     1.0096     1.0096     0.0000

  Mayer bond orders larger than 0.100000
B(  0-C ,  1-C ) :   0.9866 B(  0-C , 17-H ) :   0.9753 B(  0-C , 18-H ) :   0.9703 
B(  0-C , 19-H ) :   0.9754 B(  1-C ,  2-C ) :   0.9914 B(  1-C ,  3-C ) :   0.9919 
B(  1-C ,  4-O ) :   0.7926 B(  2-C , 20-H ) :   0.9692 B(  2-C , 21-H ) :   0.9686 
B(  2-C , 22-H ) :   0.9733 B(  3-C , 23-H ) :   0.9686 B(  3-C , 24-H ) :   0.9692 
B(  3-C , 25-H ) :   0.9733 B(  4-O ,  5-C ) :   1.2252 B(  5-C ,  6-O ) :   1.9466 
B(  5-C ,  7-N ) :   0.9870 B(  7-N ,  8-C ) :   1.2708 B(  7-N , 16-C ) :   1.0471 
B(  8-C ,  9-C ) :   1.4631 B(  8-C , 26-H ) :   0.9285 B(  9-C , 10-C ) :   1.3097 
B(  9-C , 27-H ) :   0.9096 B( 10-C , 11-C ) :   1.2306 B( 10-C , 16-C ) :   1.2510 
B( 11-C , 12-C ) :   1.4343 B( 11-C , 28-H ) :   0.9179 B( 12-C , 13-Br) :   1.1942 
B( 12-C , 14-C ) :   1.3498 B( 14-C , 15-C ) :   1.3366 B( 14-C , 29-H ) :   0.9422 
B( 15-C , 16-C ) :   1.4913 B( 15-C , 30-H ) :   0.8928 


------------------
HIRSHFELD ANALYSIS
------------------

Total integrated alpha density =     74.999908425
Total integrated beta density  =     73.999907957

  ATOM     CHARGE      SPIN    
   0 C   -0.069137   -0.000010
   1 C    0.116192   -0.000013
   2 C   -0.074109    0.000203
   3 C   -0.074102    0.000203
   4 O   -0.122823    0.000594
   5 C    0.286955    0.002468
   6 O   -0.225771    0.021480
   7 N   -0.002509    0.095442
   8 C    0.122198    0.184577
   9 C    0.042447    0.195353
  10 C    0.011277    0.028234
  11 C    0.046163    0.195669
  12 C    0.035156   -0.023854
  13 Br   0.020103   -0.007883
  14 C    0.048022    0.165794
  15 C    0.030340    0.072888
  16 C    0.063226    0.026020
  17 H    0.032883    0.000004
  18 H    0.046816   -0.000009
  19 H    0.032883    0.000004
  20 H    0.031203    0.000059
  21 H    0.046799    0.000072
  22 H    0.031870    0.000006
  23 H    0.046804    0.000072
  24 H    0.031207    0.000059
  25 H    0.031871    0.000006
  26 H    0.093631    0.009424
  27 H    0.091369    0.010110
  28 H    0.078439    0.009750
  29 H    0.079583    0.009546
  30 H    0.071197    0.003732

  TOTAL   1.000184    1.000000

-------
TIMINGS
-------

Total SCF time: 0 days 0 hours 20 min 14 sec 

Total time                  ....    1214.567 sec
Sum of individual times     ....    1206.068 sec  ( 99.3%)

Fock matrix formation       ....    1166.000 sec  ( 96.0%)
  Split-RI-J                ....     107.893 sec  (  9.3% of F)
  Chain of spheres X        ....     892.803 sec  ( 76.6% of F)
  XC integration            ....     163.957 sec  ( 14.1% of F)
    Basis function eval.    ....       6.532 sec  (  4.0% of XC)
    Density eval.           ....      48.826 sec  ( 29.8% of XC)
    XC-Functional eval.     ....       1.241 sec  (  0.8% of XC)
    XC-Potential eval.      ....      69.804 sec  ( 42.6% of XC)
Diagonalization             ....       6.965 sec  (  0.6%)
Density matrix formation    ....       2.403 sec  (  0.2%)
Population analysis         ....       4.786 sec  (  0.4%)
Initial guess               ....       0.501 sec  (  0.0%)
Orbital Transformation      ....      20.307 sec  (  1.7%)
Orbital Orthonormalization  ....       0.000 sec  (  0.0%)
DIIS solution               ....       2.983 sec  (  0.2%)
Grid generation             ....       2.083 sec  (  0.2%)

Maximum memory used throughout the entire SCF-calculation: 164.7 MB

-------------------------   --------------------
FINAL SINGLE POINT ENERGY     -3282.773945006740
-------------------------   --------------------


                            ***************************************
                            *     ORCA property calculations      *
                            ***************************************

                                    ---------------------
                                    Active property flags
                                    ---------------------
   (+) Dipole Moment


------------------------------------------------------------------------------
                       ORCA ELECTRIC PROPERTIES CALCULATION
------------------------------------------------------------------------------

Dipole Moment Calculation                       ... on
Quadrupole Moment Calculation                   ... off
Polarizability Calculation                      ... off
GBWName                                         ... arbr_09_r2scan3c_wB97MV_ox.gbw
Electron density                                ... arbr_09_r2scan3c_wB97MV_ox.scfp
The origin for moment calculation is the CENTER OF MASS  = ( 0.572961, -0.017986 -0.000001)

-------------
DIPOLE MOMENT
-------------
                                X             Y             Z
Electronic contribution:     84.57002      -1.11329       0.00015
Nuclear contribution   :    -85.94398       2.69811      -0.00017
                        -----------------------------------------
Total Dipole Moment    :     -1.37396       1.58481      -0.00002
                        -----------------------------------------
Magnitude (a.u.)       :      2.09747
Magnitude (Debye)      :      5.33135



--------------------
Rotational spectrum 
--------------------
 
Rotational constants in cm-1:     0.044299     0.004255     0.003985 
Rotational constants in MHz :  1328.064381   127.561832   119.465966 

 Dipole components along the rotational axes: 
x,y,z [a.u.] :     1.385626     1.574623    -0.000023 
x,y,z [Debye]:     3.521982     4.002373    -0.000057 

 

Timings for individual modules:

Sum of individual times         ...     1216.014 sec (=  20.267 min)
GTO integral calculation        ...        1.144 sec (=   0.019 min)   0.1 %
SCF iterations                  ...     1214.870 sec (=  20.248 min)  99.9 %
                             ****ORCA TERMINATED NORMALLY****
TOTAL RUN TIME: 0 days 0 hours 20 minutes 16 seconds 879 msec
