
                                 *****************
                                 * O   R   C   A *
                                 *****************

                                            #,                                       
                                            ###                                      
                                            ####                                     
                                            #####                                    
                                            ######                                   
                                           ########,                                 
                                     ,,################,,,,,                         
                               ,,#################################,,                 
                          ,,##########################################,,             
                       ,#########################################, ''#####,          
                    ,#############################################,,   '####,        
                  ,##################################################,,,,####,       
                ,###########''''           ''''###############################       
              ,#####''   ,,,,##########,,,,          '''####'''          '####       
            ,##' ,,,,###########################,,,                        '##       
           ' ,,###''''                  '''############,,,                           
         ,,##''                                '''############,,,,        ,,,,,,###''
      ,#''                                            '''#######################'''  
     '                                                          ''''####''''         
             ,#######,   #######,   ,#######,      ##                                
            ,#'     '#,  ##    ##  ,#'     '#,    #''#        ######   ,####,        
            ##       ##  ##   ,#'  ##            #'  '#       #        #'  '#        
            ##       ##  #######   ##           ,######,      #####,   #    #        
            '#,     ,#'  ##    ##  '#,     ,#' ,#      #,         ##   #,  ,#        
             '#######'   ##     ##  '#######'  #'      '#     #####' # '####'        



                  #######################################################
                  #                        -***-                        #
                  #          Department of theory and spectroscopy      #
                  #    Directorship and core code : Frank Neese         #
                  #        Max Planck Institute fuer Kohlenforschung    #
                  #                Kaiser Wilhelm Platz 1               #
                  #                 D-45470 Muelheim/Ruhr               #
                  #                      Germany                        #
                  #                                                     #
                  #                  All rights reserved                #
                  #                        -***-                        #
                  #######################################################


                         Program Version 5.0.4 -  RELEASE  -


 With contributions from (in alphabetic order):
   Daniel Aravena         : Magnetic Suceptibility
   Michael Atanasov       : Ab Initio Ligand Field Theory (pilot matlab implementation)
   Alexander A. Auer      : GIAO ZORA, VPT2 properties, NMR spectrum
   Ute Becker             : Parallelization
   Giovanni Bistoni       : ED, misc. LED, open-shell LED, HFLD
   Martin Brehm           : Molecular dynamics
   Dmytro Bykov           : SCF Hessian
   Vijay G. Chilkuri      : MRCI spin determinant printing, contributions to CSF-ICE
   Dipayan Datta          : RHF DLPNO-CCSD density
   Achintya Kumar Dutta   : EOM-CC, STEOM-CC
   Dmitry Ganyushin       : Spin-Orbit,Spin-Spin,Magnetic field MRCI
   Miquel Garcia          : C-PCM and meta-GGA Hessian, CC/C-PCM, Gaussian charge scheme
   Yang Guo               : DLPNO-NEVPT2, F12-NEVPT2, CIM, IAO-localization
   Andreas Hansen         : Spin unrestricted coupled pair/coupled cluster methods
   Benjamin Helmich-Paris : MC-RPA, TRAH-SCF, COSX integrals
   Lee Huntington         : MR-EOM, pCC
   Robert Izsak           : Overlap fitted RIJCOSX, COSX-SCS-MP3, EOM
   Marcus Kettner         : VPT2
   Christian Kollmar      : KDIIS, OOCD, Brueckner-CCSD(T), CCSD density, CASPT2, CASPT2-K
   Simone Kossmann        : Meta GGA functionals, TD-DFT gradient, OOMP2, MP2 Hessian
   Martin Krupicka        : Initial AUTO-CI
   Lucas Lang             : DCDCAS
   Marvin Lechner         : AUTO-CI (C++ implementation), FIC-MRCC
   Dagmar Lenk            : GEPOL surface, SMD
   Dimitrios Liakos       : Extrapolation schemes; Compound Job, initial MDCI parallelization
   Dimitrios Manganas     : Further ROCIS development; embedding schemes
   Dimitrios Pantazis     : SARC Basis sets
   Anastasios Papadopoulos: AUTO-CI, single reference methods and gradients
   Taras Petrenko         : DFT Hessian,TD-DFT gradient, ASA, ECA, R-Raman, ABS, FL, XAS/XES, NRVS
   Peter Pinski           : DLPNO-MP2, DLPNO-MP2 Gradient
   Christoph Reimann      : Effective Core Potentials
   Marius Retegan         : Local ZFS, SOC
   Christoph Riplinger    : Optimizer, TS searches, QM/MM, DLPNO-CCSD(T), (RO)-DLPNO pert. Triples
   Tobias Risthaus        : Range-separated hybrids, TD-DFT gradient, RPA, STAB
   Michael Roemelt        : Original ROCIS implementation
   Masaaki Saitow         : Open-shell DLPNO-CCSD energy and density
   Barbara Sandhoefer     : DKH picture change effects
   Avijit Sen             : IP-ROCIS
   Kantharuban Sivalingam : CASSCF convergence, NEVPT2, FIC-MRCI
   Bernardo de Souza      : ESD, SOC TD-DFT
   Georgi Stoychev        : AutoAux, RI-MP2 NMR, DLPNO-MP2 response
   Willem Van den Heuvel  : Paramagnetic NMR
   Boris Wezisla          : Elementary symmetry handling
   Frank Wennmohs         : Technical directorship


 We gratefully acknowledge several colleagues who have allowed us to
 interface, adapt or use parts of their codes:
   Stefan Grimme, W. Hujo, H. Kruse, P. Pracht,  : VdW corrections, initial TS optimization,
                  C. Bannwarth, S. Ehlert          DFT functionals, gCP, sTDA/sTD-DF
   Ed Valeev, F. Pavosevic, A. Kumar             : LibInt (2-el integral package), F12 methods
   Garnet Chan, S. Sharma, J. Yang, R. Olivares  : DMRG
   Ulf Ekstrom                                   : XCFun DFT Library
   Mihaly Kallay                                 : mrcc  (arbitrary order and MRCC methods)
   Jiri Pittner, Ondrej Demel                    : Mk-CCSD
   Frank Weinhold                                : gennbo (NPA and NBO analysis)
   Christopher J. Cramer and Donald G. Truhlar   : smd solvation model
   Lars Goerigk                                  : TD-DFT with DH, B97 family of functionals
   V. Asgeirsson, H. Jonsson                     : NEB implementation
   FAccTs GmbH                                   : IRC, NEB, NEB-TS, DLPNO-Multilevel, CI-OPT
                                                   MM, QMMM, 2- and 3-layer-ONIOM, Crystal-QMMM,
                                                   LR-CPCM, SF, NACMEs, symmetry and pop. for TD-DFT,
                                                   nearIR, NL-DFT gradient (VV10), updates on ESD,
                                                   ML-optimized integration grids
   S Lehtola, MJT Oliveira, MAL Marques          : LibXC Library
   Liviu Ungur et al                             : ANISO software


 Your calculation uses the libint2 library for the computation of 2-el integrals
 For citations please refer to: http://libint.valeyev.net

 Your ORCA version has been built with support for libXC version: 5.1.0
 For citations please refer to: https://tddft.org/programs/libxc/

 This ORCA versions uses:
   CBLAS   interface :  Fast vector & matrix operations
   LAPACKE interface :  Fast linear algebra routines
   SCALAPACK package :  Parallel linear algebra routines
   Shared memory     :  Shared parallel matrices
   BLAS/LAPACK       :  OpenBLAS 0.3.15  USE64BITINT DYNAMIC_ARCH NO_AFFINITY SkylakeX SINGLE_THREADED
        Core in use  :  SkylakeX
   Copyright (c) 2011-2014, The OpenBLAS Project


Your calculation utilizes the DFT-NL dispersion correction.
Cite in your paper:
Vydrov, O. A.; Van Voorhis, T. J. Chem. Phys. 2010, 133, 244103
Hujo, W.; Grimme, S. J. Chem. Theory Comput. 2011, 7, 3866 
   

================================================================================

----- Orbital basis set information -----
Your calculation utilizes the basis: def2-TZVPP
   F. Weigend and R. Ahlrichs, Phys. Chem. Chem. Phys. 7, 3297 (2005).

----- AuxJ basis set information -----
Your calculation utilizes the auxiliary basis: def2/J
   F. Weigend, Phys. Chem. Chem. Phys. 8, 1057 (2006).

================================================================================
                                        WARNINGS
                       Please study these warnings very carefully!
================================================================================

Using LibXC functional ID 531 : wB97M-V exchange-correlation functional
[ 1]  N. Mardirossian and M. Head-Gordon, J. Chem. Phys. 144, 214110 (2016)
Using LibXC functional ID 531 : wB97M-V exchange-correlation functional
[ 1]  N. Mardirossian and M. Head-Gordon, J. Chem. Phys. 144, 214110 (2016)

WARNING: B97M-V or wB97M-V functional requested.
  ===> : libXC variant has now been activated.
         Any manually given DFX/HFX/RangeSep scaling parameters are IGNORED!

Your calculation utilizes LibXC
 by S Lehtola, C Steigemann, MJT Oliveira & MAL Marques
Please cite in your paper:
 S Lehtola, C Steigemann, MJT Oliveira & MAL Marques, SoftwareX, 7, (2018), 1.
   


WARNING: your system is open-shell and RHF/RKS was chosen
  ===> : WILL SWITCH to UHF/UKS


INFO   : the flag for use of the SHARK integral package has been found!

================================================================================
                                       INPUT FILE
================================================================================
NAME = arbr_14_r2scan3c_wB97MV_red.inp
|  1> %PAL NPROCS 16 END
|  2> %maxcore 4000
|  3> # arbr_14_r2scan3c.out
|  4> ! wB97m-v def2-TZVPP def2/J RIJCOSX Hirshfeld
|  5> * xyz -1 2
|  6>   Br        1.77666        -0.00639         0.00000
|  7>    C       -0.12749        -0.01338        -0.00003
|  8>    C       -0.79353         1.20717        -0.00001
|  9>    C       -2.17626         1.17083         0.00000
| 10>    C       -2.82223        -0.05811         0.00001
| 11>    C       -2.04683        -1.20524         0.00000
| 12>    N       -0.71336        -1.18552        -0.00001
| 13>    H       -0.24318         2.13620        -0.00000
| 14>    H       -2.74214         2.09356         0.00001
| 15>    H       -3.90087        -0.12767         0.00002
| 16>    H       -2.50524        -2.18727         0.00001
| 17> *
| 18> 
| 19>                          ****END OF INPUT****
================================================================================

                       ****************************
                       * Single Point Calculation *
                       ****************************

---------------------------------
CARTESIAN COORDINATES (ANGSTROEM)
---------------------------------
  Br     1.776660   -0.006390    0.000000
  C     -0.127490   -0.013380   -0.000030
  C     -0.793530    1.207170   -0.000010
  C     -2.176260    1.170830    0.000000
  C     -2.822230   -0.058110    0.000010
  C     -2.046830   -1.205240    0.000000
  N     -0.713360   -1.185520   -0.000010
  H     -0.243180    2.136200   -0.000000
  H     -2.742140    2.093560    0.000010
  H     -3.900870   -0.127670    0.000020
  H     -2.505240   -2.187270    0.000010

----------------------------
CARTESIAN COORDINATES (A.U.)
----------------------------
  NO LB      ZA    FRAG     MASS         X           Y           Z
   0 Br   35.0000    0    79.900    3.357401   -0.012075    0.000000
   1 C     6.0000    0    12.011   -0.240921   -0.025285   -0.000057
   2 C     6.0000    0    12.011   -1.499554    2.281221   -0.000019
   3 C     6.0000    0    12.011   -4.112535    2.212548    0.000000
   4 C     6.0000    0    12.011   -5.333242   -0.109812    0.000019
   5 C     6.0000    0    12.011   -3.867948   -2.277574    0.000000
   6 N     7.0000    0    14.007   -1.348055   -2.240308   -0.000019
   7 H     1.0000    0     1.008   -0.459544    4.036833   -0.000000
   8 H     1.0000    0     1.008   -5.181894    3.956255    0.000019
   9 H     1.0000    0     1.008   -7.371576   -0.241261    0.000038
  10 H     1.0000    0     1.008   -4.734217   -4.133341    0.000019

--------------------------------
INTERNAL COORDINATES (ANGSTROEM)
--------------------------------
 Br     0   0   0     0.000000000000     0.00000000     0.00000000
 C      1   0   0     1.904162830091     0.00000000     0.00000000
 C      2   1   0     1.390450137366   118.41045819     0.00000000
 C      3   2   1     1.383207449590   117.11532260   180.00151546
 C      4   3   2     1.388369822706   119.23330873     0.00000000
 C      5   4   3     1.384612724555   118.21551414     0.00000000
 N      2   1   3     1.310402929217   116.76755742   180.00286005
 H      3   2   1     1.079806400935   120.73705009     0.00000000
 H      4   3   2     1.082428208890   120.01395838   180.00034178
 H      5   4   3     1.080880586975   121.41766140   179.99987465
 H      6   5   4     1.083753961515   120.92026986   179.99982624

---------------------------
INTERNAL COORDINATES (A.U.)
---------------------------
 Br     0   0   0     0.000000000000     0.00000000     0.00000000
 C      1   0   0     3.598346263264     0.00000000     0.00000000
 C      2   1   0     2.627569962494   118.41045819     0.00000000
 C      3   2   1     2.613883266124   117.11532260   180.00151546
 C      4   3   2     2.623638737515   119.23330873     0.00000000
 C      5   4   3     2.616538850952   118.21551414     0.00000000
 N      2   1   3     2.476302661308   116.76755742   180.00286005
 H      3   2   1     2.040538375422   120.73705009     0.00000000
 H      4   3   2     2.045492874432   120.01395838   180.00034178
 H      5   4   3     2.042568292855   121.41766140   179.99987465
 H      6   5   4     2.047998183816   120.92026986   179.99982624

---------------------
BASIS SET INFORMATION
---------------------
There are 4 groups of distinct atoms

 Group   1 Type Br  : 17s13p8d1f contracted to 6s5p4d1f pattern {842111/64111/5111/1}
 Group   2 Type C   : 11s6p2d1f contracted to 5s3p2d1f pattern {62111/411/11/1}
 Group   3 Type N   : 11s6p2d1f contracted to 5s3p2d1f pattern {62111/411/11/1}
 Group   4 Type H   : 5s2p1d contracted to 3s2p1d pattern {311/11/1}

Atom   0Br   basis set group =>   1
Atom   1C    basis set group =>   2
Atom   2C    basis set group =>   2
Atom   3C    basis set group =>   2
Atom   4C    basis set group =>   2
Atom   5C    basis set group =>   2
Atom   6N    basis set group =>   3
Atom   7H    basis set group =>   4
Atom   8H    basis set group =>   4
Atom   9H    basis set group =>   4
Atom  10H    basis set group =>   4
---------------------------------
AUXILIARY/J BASIS SET INFORMATION
---------------------------------
There are 4 groups of distinct atoms

 Group   1 Type Br  : 19s5p5d3f1g contracted to 8s4p3d2f1g pattern {121111111/2111/311/21/1}
 Group   2 Type C   : 12s5p4d2f1g contracted to 6s4p3d1f1g pattern {711111/2111/211/2/1}
 Group   3 Type N   : 12s5p4d2f1g contracted to 6s4p3d1f1g pattern {711111/2111/211/2/1}
 Group   4 Type H   : 5s2p1d contracted to 3s1p1d pattern {311/2/1}

Atom   0Br   basis set group =>   1
Atom   1C    basis set group =>   2
Atom   2C    basis set group =>   2
Atom   3C    basis set group =>   2
Atom   4C    basis set group =>   2
Atom   5C    basis set group =>   2
Atom   6N    basis set group =>   3
Atom   7H    basis set group =>   4
Atom   8H    basis set group =>   4
Atom   9H    basis set group =>   4
Atom  10H    basis set group =>   4


           ************************************************************
           *        Program running with 16 parallel MPI-processes    *
           *              working on a common directory               *
           ************************************************************
------------------------------------------------------------------------------
                           ORCA GTO INTEGRAL CALCULATION
                           -- RI-GTO INTEGRALS CHOSEN --
------------------------------------------------------------------------------
------------------------------------------------------------------------------
                   ___                                                        
                  /   \      - P O W E R E D   B Y -                         
                 /     \                                                     
                 |  |  |   _    _      __       _____    __    __             
                 |  |  |  | |  | |    /  \     |  _  \  |  |  /  |          
                  \  \/   | |  | |   /    \    | | | |  |  | /  /          
                 / \  \   | |__| |  /  /\  \   | |_| |  |  |/  /          
                |  |  |   |  __  | /  /__\  \  |    /   |      \           
                |  |  |   | |  | | |   __   |  |    \   |  |\   \          
                \     /   | |  | | |  |  |  |  | |\  \  |  | \   \       
                 \___/    |_|  |_| |__|  |__|  |_| \__\ |__|  \__/        
                                                                              
                      - O R C A' S   B I G   F R I E N D -                    
                                      &                                       
                       - I N T E G R A L  F E E D E R -                       
                                                                              
 v1 FN, 2020, v2 2021                                                         
------------------------------------------------------------------------------


Reading SHARK input file arbr_14_r2scan3c_wB97MV_red.SHARKINP.tmp ... ok
----------------------
SHARK INTEGRAL PACKAGE
----------------------

Number of atoms                             ...     11
Number of basis functions                   ...    290
Number of shells                            ...    106
Maximum angular momentum                    ...      3
Integral batch strategy                     ... SHARK/LIBINT Hybrid
RI-J (if used) integral strategy            ... SPLIT-RIJ (Revised 2003 algorithm where possible)
Printlevel                                  ...      1
Contraction scheme used                     ... SEGMENTED contraction
Coulomb Range Separation                    ... NOT USED
Exchange Range Separation                   ... Long Range
   Mu parameter                             ...  0.300000
   Scaling (regular/separated)              ...  0.150000  0.850000
Finite Nucleus Model                        ... NOT USED
Auxiliary Coulomb fitting basis             ... AVAILABLE
   # of basis functions in Aux-J            ...    396
   # of shells in Aux-J                     ...    128
   Maximum angular momentum in Aux-J        ...      4
Auxiliary J/K fitting basis                 ... NOT available
Auxiliary Correlation fitting basis         ... NOT available
Auxiliary 'external' fitting basis          ... NOT available
Integral threshold                          ...     1.000000e-10
Primitive cut-off                           ...     1.000000e-11
Primitive pair pre-selection threshold      ...     1.000000e-11

Calculating pre-screening integrals         ... done (  0.1 sec) Dimension = 106
Organizing shell pair data                  ... done (  0.1 sec)
Shell pair information
Total number of shell pairs                 ...      5671
Shell pairs after pre-screening             ...      5159
Total number of primitive shell pairs       ...     18546
Primitive shell pairs kept                  ...     12562
          la=0 lb=0:   1019 shell pairs
          la=1 lb=0:   1365 shell pairs
          la=1 lb=1:    470 shell pairs
          la=2 lb=0:    852 shell pairs
          la=2 lb=1:    573 shell pairs
          la=2 lb=2:    193 shell pairs
          la=3 lb=0:    315 shell pairs
          la=3 lb=1:    208 shell pairs
          la=3 lb=2:    136 shell pairs
          la=3 lb=3:     28 shell pairs

Calculating one electron integrals          ... done (  0.0 sec)
Calculating RI/J V-Matrix + Cholesky decomp.... done (  0.0 sec)
Calculating Nuclear repulsion               ... done (  0.0 sec) ENN=    438.414931333890 Eh

SHARK setup successfully completed in   0.3 seconds

Maximum memory used throughout the entire GTOINT-calculation: 22.4 MB


           ************************************************************
           *        Program running with 16 parallel MPI-processes    *
           *              working on a common directory               *
           ************************************************************
-------------------------------------------------------------------------------
                                 ORCA SCF
-------------------------------------------------------------------------------

------------
SCF SETTINGS
------------
Hamiltonian:
 Density Functional     Method          .... DFT(GTOs)
  Functional kind                       .... Exchange-Correlation
  Functional name                       .... wB97M-V exchange-correlation functional
  Functional family                     .... Hybrid MGGA
  Functional refs                              
    [ 0] N. Mardirossian and M. Head-Gordon, J. Chem. Phys. 144, 214110 (2016)
  Fraction of HF Exchange (short range) .... 0.1500
  Fraction of HF Exchange (long range)  .... 1.0000
  Range separation parameter mu         .... 0.3000
  Functional external parameters         .... 0
   Density functional embedding theory  .... OFF
 Long-range corrected/Screened/Range-Separated Hybrid DFT is turned on
   Amount of maximum screened exact exchange              ....  0.850000
   Range separation parameter mu (erf(mu*r12)/r12)        ....  0.300000
   NL short-range parameter             ....  6.000000
   NL long-range parameter              ....  0.010000
 RI-approximation to the Coulomb term is turned on
   Number of AuxJ basis functions       .... 396
   RIJ-COSX (HFX calculated with COS-X)).... on


General Settings:
 Integral files         IntName         .... arbr_14_r2scan3c_wB97MV_red
 Hartree-Fock type      HFTyp           .... UHF
 Total Charge           Charge          ....   -1
 Multiplicity           Mult            ....    2
 Number of Electrons    NEL             ....   77
 Basis Dimension        Dim             ....  290
 Nuclear Repulsion      ENuc            ....    438.4149313339 Eh

Convergence Acceleration:
 DIIS                   CNVDIIS         .... on
   Start iteration      DIISMaxIt       ....    12
   Startup error        DIISStart       ....  0.200000
   # of expansion vecs  DIISMaxEq       ....     5
   Bias factor          DIISBfac        ....   1.050
   Max. coefficient     DIISMaxC        ....  10.000
 Trust-Rad. Augm. Hess. CNVTRAH         .... auto
   Auto Start mean grad. ratio tolernc. ....  1.125000
   Auto Start start iteration           ....    20
   Auto Start num. interpolation iter.  ....    10
   Max. Number of Micro iterations      ....    16
   Max. Number of Macro iterations      .... Maxiter - #DIIS iter
   Number of Davidson start vectors     ....     2
   Converg. threshold I  (grad. norm)   ....   5.000e-05
   Converg. threshold II (energy diff.) ....   1.000e-06
   Grad. Scal. Fac. for Micro threshold ....   0.100
   Minimum threshold for Micro iter.    ....   0.010
   NR start threshold (gradient norm)   ....   0.001
   Initial trust radius                 ....   0.400
   Minimum AH scaling param. (alpha)    ....   1.000
   Maximum AH scaling param. (alpha)    .... 1000.000
   Orbital update algorithm             .... Taylor
   White noise on init. David. guess    .... on
   Maximum white noise                  ....   0.010
   Quad. conv. algorithm                .... NR
 SOSCF                  CNVSOSCF        .... off
 Level Shifting         CNVShift        .... on
   Level shift para.    LevelShift      ....    0.2500
   Turn off err/grad.   ShiftErr        ....    0.0010
 Zerner damping         CNVZerner       .... off
 Static damping         CNVDamp         .... on
   Fraction old density DampFac         ....    0.7000
   Max. Damping (<1)    DampMax         ....    0.9800
   Min. Damping (>=0)   DampMin         ....    0.0000
   Turn off err/grad.   DampErr         ....    0.1000
 Fernandez-Rico         CNVRico         .... off

SCF Procedure:
 Maximum # iterations   MaxIter         ....   125
 SCF integral mode      SCFMode         .... Direct
   Integral package                     .... SHARK and LIBINT hybrid scheme
 Reset frequency        DirectResetFreq ....    20
 Integral Threshold     Thresh          ....  1.000e-10 Eh
 Primitive CutOff       TCut            ....  1.000e-11 Eh

Convergence Tolerance:
 Convergence Check Mode ConvCheckMode   .... Total+1el-Energy
 Convergence forced     ConvForced      .... 0
 Energy Change          TolE            ....  1.000e-06 Eh
 1-El. energy change                    ....  1.000e-03 Eh
 DIIS Error             TolErr          ....  1.000e-06


Diagonalization of the overlap matrix:
Smallest eigenvalue                        ... 3.960e-05
Time for diagonalization                   ...    0.011 sec
Threshold for overlap eigenvalues          ... 1.000e-08
Number of eigenvalues below threshold      ... 0
Time for construction of square roots      ...    0.009 sec
Total time needed                          ...    0.021 sec

Time for model grid setup =    0.059 sec

------------------------------
INITIAL GUESS: MODEL POTENTIAL
------------------------------
Loading Hartree-Fock densities                     ... done
Calculating cut-offs                               ... done
Initializing the effective Hamiltonian             ... done
Setting up the integral package (SHARK)            ... done
Starting the Coulomb interaction                   ... done (   0.0 sec)
Reading the grid                                   ... done
Mapping shells                                     ... done
Starting the XC term evaluation                    ... done (   0.0 sec)
  promolecular density results
     # of electrons  =     75.997773846
     EX              =   -122.571491626
     EC              =     -3.082399660
     EX+EC           =   -125.653891286
Transforming the Hamiltonian                       ... done (   0.0 sec)
Diagonalizing the Hamiltonian                      ... done (   0.0 sec)
Back transforming the eigenvectors                 ... done (   0.0 sec)
Now organizing SCF variables                       ... done
                      ------------------
                      INITIAL GUESS DONE (   0.1 sec)
                      ------------------
-------------------
DFT GRID GENERATION
-------------------

General Integration Accuracy     IntAcc      ... 4.388
Radial Grid Type                 RadialGrid  ... OptM3 with GC (2021)
Angular Grid (max. ang.)         AngularGrid ... 4 (Lebedev-302)
Angular grid pruning method      GridPruning ... 4 (adaptive)
Weight generation scheme         WeightScheme... Becke
Basis function cutoff            BFCut       ... 1.0000e-10
Integration weight cutoff        WCut        ... 1.0000e-14
Angular grids for H and He will be reduced by one unit
Partially contracted basis set               ... off
Rotationally invariant grid construction     ... off

Total number of grid points                  ...    60368
Total number of batches                      ...      949
Average number of points per batch           ...       63
Average number of grid points per atom       ...     5488
Time for grid setup =    0.300 sec

--------------------
COSX GRID GENERATION
--------------------

GRIDX 1
-------
General Integration Accuracy     IntAcc      ... 3.816
Radial Grid Type                 RadialGrid  ... OptM3 with GC (2021)
Angular Grid (max. ang.)         AngularGrid ... 1 (Lebedev-50)
Angular grid pruning method      GridPruning ... 4 (adaptive)
Weight generation scheme         WeightScheme... Becke
Basis function cutoff            BFCut       ... 1.0000e-10
Integration weight cutoff        WCut        ... 1.0000e-14
Angular grids for H and He will be reduced by one unit
Partially contracted basis set               ... on
Rotationally invariant grid construction     ... off

Total number of grid points                  ...     7498
Total number of batches                      ...      121
Average number of points per batch           ...       61
Average number of grid points per atom       ...      682
UseSFitting                                  ... on

GRIDX 2
-------
General Integration Accuracy     IntAcc      ... 4.020
Radial Grid Type                 RadialGrid  ... OptM3 with GC (2021)
Angular Grid (max. ang.)         AngularGrid ... 2 (Lebedev-110)
Angular grid pruning method      GridPruning ... 4 (adaptive)
Weight generation scheme         WeightScheme... Becke
Basis function cutoff            BFCut       ... 1.0000e-10
Integration weight cutoff        WCut        ... 1.0000e-14
Angular grids for H and He will be reduced by one unit
Partially contracted basis set               ... on
Rotationally invariant grid construction     ... off

Total number of grid points                  ...    16633
Total number of batches                      ...      263
Average number of points per batch           ...       63
Average number of grid points per atom       ...     1512
UseSFitting                                  ... on

GRIDX 3
-------
General Integration Accuracy     IntAcc      ... 4.338
Radial Grid Type                 RadialGrid  ... OptM3 with GC (2021)
Angular Grid (max. ang.)         AngularGrid ... 3 (Lebedev-194)
Angular grid pruning method      GridPruning ... 4 (adaptive)
Weight generation scheme         WeightScheme... Becke
Basis function cutoff            BFCut       ... 1.0000e-10
Integration weight cutoff        WCut        ... 1.0000e-14
Angular grids for H and He will be reduced by one unit
Partially contracted basis set               ... on
Rotationally invariant grid construction     ... off

Total number of grid points                  ...    36919
Total number of batches                      ...      582
Average number of points per batch           ...       63
Average number of grid points per atom       ...     3356
UseSFitting                                  ... on

Time for X-Grid setup             =    0.242 sec

--------------
SCF ITERATIONS
--------------
ITER       Energy         Delta-E        Max-DP      RMS-DP      [F,P]     Damp
               ***  Starting incremental Fock matrix formation  ***
  0  -2821.6412330719   0.000000000000 0.06701956  0.00064718  0.1352649 0.7000
  1  -2821.7797995920  -0.138566520146 0.06532185  0.00061502  0.0746144 0.7000
                               ***Turning on DIIS***
  2  -2821.8474458261  -0.067646234072 0.13203843  0.00134544  0.0347074 0.0000
  3  -2821.9537660128  -0.106320186679 0.03583364  0.00039328  0.0359971 0.0000
  4  -2821.9744657841  -0.020699771290 0.00771401  0.00015725  0.0054156 0.0000
  5  -2821.9753808646  -0.000915080536 0.00371090  0.00008275  0.0038515 0.0000
  6  -2821.9755799336  -0.000199068947 0.00183097  0.00004256  0.0021166 0.0000
  7  -2821.9756573390  -0.000077405448 0.00356115  0.00004423  0.0008512 0.0000
               *** Restarting incremental Fock matrix formation ***
                                   *** Resetting DIIS ***
  8  -2821.9756832529  -0.000025913923 0.00170987  0.00002711  0.0003900 0.0000
  9  -2821.9756975080  -0.000014255099 0.00120492  0.00001053  0.0004142 0.0000
 10  -2821.9757064557  -0.000008947712 0.00234036  0.00002157  0.0002917 0.0000
 11  -2821.9757239351  -0.000017479363 0.00244124  0.00002245  0.0002781 0.0000
 12  -2821.9757405684  -0.000016633312 0.00313551  0.00003029  0.0002802 0.0000
 13  -2821.9757608834  -0.000020315010 0.00559317  0.00005305  0.0002254 0.0000
 14  -2821.9757903208  -0.000029437347 0.00963986  0.00009342  0.0002343 0.0000
 15  -2821.9758225796  -0.000032258853 0.00251230  0.00002507  0.0001589 0.0000
 16  -2821.9758272764  -0.000004696755 0.00393275  0.00003940  0.0000957 0.0000
 17  -2821.9758308057  -0.000003529338 0.00080656  0.00000737  0.0000708 0.0000
 18  -2821.9758310303  -0.000000224574 0.00039857  0.00000373  0.0000247 0.0000
                 **** Energy Check signals convergence ****

               *****************************************************
               *                     SUCCESS                       *
               *           SCF CONVERGED AFTER  19 CYCLES          *
               *****************************************************

Old exchange energy                            =    -29.002691005 Eh
New exchange energy                            =    -29.002683805 Eh
Exchange energy change after final integration =      0.000007199 Eh
Total energy after final integration           =  -2821.975823844 Eh
Final COS-X integration done in                =     2.272 sec

------------------
NL GRID GENERATION
------------------

General Integration Accuracy     IntAcc      ... 4.004
Radial Grid Type                 RadialGrid  ... OptM3 with GC (2021)
Angular Grid (max. ang.)         AngularGrid ... 2 (Lebedev-110)
Angular grid pruning method      GridPruning ... 4 (adaptive)
Weight generation scheme         WeightScheme... Becke
Basis function cutoff            BFCut       ... 1.0000e-10
Integration weight cutoff        WCut        ... 1.0000e-14
Angular grids for H and He will be reduced by one unit
Partially contracted basis set               ... off
Rotationally invariant grid construction     ... off

Total number of grid points                  ...    21372
Total number of batches                      ...      340
Average number of points per batch           ...       62
Average number of grid points per atom       ...     1943
Final grid set up in    0.1 sec

-------------------------------------------------------------------------------
                    post-SCF DFT-NL dispersion correction                      
-------------------------------------------------------------------------------

SCF Energy:   -2821.975823844 
NL    Energy:  0.303044200 
SC+NL Energy: -2821.672779644 
NL done in:    0.2 sec
-------------------------------------------------------------------------------

----------------
TOTAL SCF ENERGY
----------------

Total Energy       :        -2821.67277964 Eh          -76781.61984 eV

Components:
Nuclear Repulsion  :          438.41493133 Eh           11929.87678 eV
Electronic Energy  :        -3260.08771098 Eh          -88711.49662 eV
One Electron Energy:        -4801.88322602 Eh         -130665.88551 eV
Two Electron Energy:         1541.79551504 Eh           41954.38888 eV
Max COSX asymmetry :            0.00000107 Eh               0.00003 eV

Virial components:
Potential Energy   :        -5640.04768046 Eh         -153473.49983 eV
Kinetic Energy     :         2818.37490082 Eh           76691.87999 eV
Virial Ratio       :            2.00117013


DFT components:
N(Alpha)           :       39.000032383953 electrons
N(Beta)            :       38.000025275524 electrons
N(Total)           :       77.000057659476 electrons
NL Energy, E(C,NL) :        0.303044200233 Eh       
E(XC)              :      -97.987443957083 Eh       
DFET-embed. en.    :        0.000000000000 Eh       

---------------
SCF CONVERGENCE
---------------

  Last Energy change         ...   -1.3465e-08  Tolerance :   1.0000e-06
  Last MAX-Density change    ...    0.0000e+00  Tolerance :   1.0000e-05
  Last RMS-Density change    ...    0.0000e+00  Tolerance :   1.0000e-06
  Last DIIS Error            ...    1.0550e-05  Tolerance :   1.0000e-06

             **** THE GBW FILE WAS UPDATED (arbr_14_r2scan3c_wB97MV_red.gbw) ****
             **** DENSITY arbr_14_r2scan3c_wB97MV_red.scfp WAS UPDATED ****
             **** ENERGY FILE WAS UPDATED (arbr_14_r2scan3c_wB97MV_red.en.tmp) ****
----------------------
UHF SPIN CONTAMINATION
----------------------

Warning: in a DFT calculation there is little theoretical justification to 
         calculate <S**2> as in Hartree-Fock theory. We will do it anyways
         but you should keep in mind that the values have only limited relevance

Expectation value of <S**2>     :     0.760988
Ideal value S*(S+1) for S=0.5   :     0.750000
Deviation                       :     0.010988

             **** THE GBW FILE WAS UPDATED (arbr_14_r2scan3c_wB97MV_red.gbw) ****
             **** DENSITY arbr_14_r2scan3c_wB97MV_red.scfp WAS UPDATED ****
----------------
ORBITAL ENERGIES
----------------
                 SPIN UP ORBITALS
  NO   OCC          E(Eh)            E(eV) 
   0   1.0000    -483.337266    -13152.2757 
   1   1.0000     -62.642941     -1704.6011 
   2   1.0000     -56.329102     -1532.7928 
   3   1.0000     -56.327525     -1532.7499 
   4   1.0000     -56.327505     -1532.7493 
   5   1.0000     -14.283164      -388.6646 
   6   1.0000     -10.238688      -278.6089 
   7   1.0000     -10.181011      -277.0394 
   8   1.0000     -10.164326      -276.5854 
   9   1.0000     -10.162012      -276.5224 
  10   1.0000     -10.140149      -275.9275 
  11   1.0000      -8.726616      -237.4633 
  12   1.0000      -6.511118      -177.1765 
  13   1.0000      -6.502502      -176.9421 
  14   1.0000      -6.502318      -176.9371 
  15   1.0000      -2.592422       -70.5434 
  16   1.0000      -2.589929       -70.4755 
  17   1.0000      -2.589773       -70.4713 
  18   1.0000      -2.582755       -70.2803 
  19   1.0000      -2.582754       -70.2803 
  20   1.0000      -0.888877       -24.1876 
  21   1.0000      -0.758618       -20.6431 
  22   1.0000      -0.736766       -20.0484 
  23   1.0000      -0.674090       -18.3429 
  24   1.0000      -0.564511       -15.3611 
  25   1.0000      -0.541436       -14.7332 
  26   1.0000      -0.447565       -12.1789 
  27   1.0000      -0.403636       -10.9835 
  28   1.0000      -0.388134       -10.5617 
  29   1.0000      -0.344822        -9.3831 
  30   1.0000      -0.343184        -9.3385 
  31   1.0000      -0.314372        -8.5545 
  32   1.0000      -0.277754        -7.5581 
  33   1.0000      -0.250881        -6.8268 
  34   1.0000      -0.225813        -6.1447 
  35   1.0000      -0.209968        -5.7135 
  36   1.0000      -0.173314        -4.7161 
  37   1.0000      -0.170369        -4.6360 
  38   1.0000       0.017054         0.4641 
  39   0.0000       0.240847         6.5538 
  40   0.0000       0.249254         6.7825 
  41   0.0000       0.271840         7.3971 
  42   0.0000       0.285317         7.7639 
  43   0.0000       0.299106         8.1391 
  44   0.0000       0.310825         8.4580 
  45   0.0000       0.336206         9.1486 
  46   0.0000       0.375965        10.2305 
  47   0.0000       0.376023        10.2321 
  48   0.0000       0.407717        11.0945 
  49   0.0000       0.427731        11.6391 
  50   0.0000       0.437509        11.9052 
  51   0.0000       0.440545        11.9878 
  52   0.0000       0.455595        12.3974 
  53   0.0000       0.468271        12.7423 
  54   0.0000       0.472707        12.8630 
  55   0.0000       0.478513        13.0210 
  56   0.0000       0.480153        13.0656 
  57   0.0000       0.509435        13.8624 
  58   0.0000       0.510766        13.8987 
  59   0.0000       0.527410        14.3515 
  60   0.0000       0.532200        14.4819 
  61   0.0000       0.556932        15.1549 
  62   0.0000       0.570748        15.5308 
  63   0.0000       0.571690        15.5565 
  64   0.0000       0.598715        16.2919 
  65   0.0000       0.600493        16.3403 
  66   0.0000       0.619310        16.8523 
  67   0.0000       0.633157        17.2291 
  68   0.0000       0.635629        17.2963 
  69   0.0000       0.646915        17.6034 
  70   0.0000       0.656083        17.8529 
  71   0.0000       0.668694        18.1961 
  72   0.0000       0.690113        18.7789 
  73   0.0000       0.704472        19.1697 
  74   0.0000       0.731380        19.9019 
  75   0.0000       0.739207        20.1148 
  76   0.0000       0.764747        20.8098 
  77   0.0000       0.764778        20.8107 
  78   0.0000       0.791345        21.5336 
  79   0.0000       0.814325        22.1589 
  80   0.0000       0.815275        22.1848 
  81   0.0000       0.855228        23.2719 
  82   0.0000       0.875370        23.8200 
  83   0.0000       0.886716        24.1288 
  84   0.0000       0.905494        24.6397 
  85   0.0000       0.926322        25.2065 
  86   0.0000       0.935456        25.4551 
  87   0.0000       0.948447        25.8086 
  88   0.0000       0.972113        26.4525 
  89   0.0000       0.979635        26.6572 
  90   0.0000       1.009275        27.4638 
  91   0.0000       1.021262        27.7899 
  92   0.0000       1.073487        29.2111 
  93   0.0000       1.082777        29.4639 
  94   0.0000       1.105425        30.0801 
  95   0.0000       1.110169        30.2092 
  96   0.0000       1.168960        31.8090 
  97   0.0000       1.210494        32.9392 
  98   0.0000       1.228611        33.4322 
  99   0.0000       1.230675        33.4884 
 100   0.0000       1.253467        34.1086 
 101   0.0000       1.269975        34.5578 
 102   0.0000       1.284377        34.9497 
 103   0.0000       1.294746        35.2318 
 104   0.0000       1.338064        36.4106 
 105   0.0000       1.360176        37.0123 
 106   0.0000       1.379394        37.5352 
 107   0.0000       1.388324        37.7782 
 108   0.0000       1.419083        38.6152 
 109   0.0000       1.448367        39.4121 
 110   0.0000       1.463899        39.8347 
 111   0.0000       1.474781        40.1308 
 112   0.0000       1.478115        40.2216 
 113   0.0000       1.508393        41.0455 
 114   0.0000       1.530318        41.6421 
 115   0.0000       1.549158        42.1547 
 116   0.0000       1.573220        42.8095 
 117   0.0000       1.598227        43.4900 
 118   0.0000       1.606537        43.7161 
 119   0.0000       1.622820        44.1592 
 120   0.0000       1.626640        44.2631 
 121   0.0000       1.642861        44.7045 
 122   0.0000       1.658336        45.1256 
 123   0.0000       1.667397        45.3722 
 124   0.0000       1.690461        45.9998 
 125   0.0000       1.695454        46.1357 
 126   0.0000       1.726085        46.9692 
 127   0.0000       1.747827        47.5608 
 128   0.0000       1.755564        47.7713 
 129   0.0000       1.773664        48.2638 
 130   0.0000       1.787739        48.6468 
 131   0.0000       1.798418        48.9374 
 132   0.0000       1.799930        48.9786 
 133   0.0000       1.816442        49.4279 
 134   0.0000       1.830993        49.8238 
 135   0.0000       1.845631        50.2222 
 136   0.0000       1.854920        50.4750 
 137   0.0000       1.880613        51.1741 
 138   0.0000       1.904205        51.8161 
 139   0.0000       1.912570        52.0437 
 140   0.0000       1.944854        52.9222 
 141   0.0000       1.960448        53.3465 
 142   0.0000       1.962407        53.3998 
 143   0.0000       1.989110        54.1264 
 144   0.0000       2.004714        54.5510 
 145   0.0000       2.017895        54.9097 
 146   0.0000       2.044199        55.6255 
 147   0.0000       2.097995        57.0893 
 148   0.0000       2.099305        57.1250 
 149   0.0000       2.124763        57.8178 
 150   0.0000       2.143344        58.3234 
 151   0.0000       2.187182        59.5162 
 152   0.0000       2.203550        59.9617 
 153   0.0000       2.223098        60.4936 
 154   0.0000       2.266618        61.6778 
 155   0.0000       2.309420        62.8425 
 156   0.0000       2.388588        64.9968 
 157   0.0000       2.430422        66.1351 
 158   0.0000       2.481557        67.5266 
 159   0.0000       2.506443        68.2038 
 160   0.0000       2.549529        69.3762 
 161   0.0000       2.615981        71.1845 
 162   0.0000       2.644285        71.9547 
 163   0.0000       2.664946        72.5169 
 164   0.0000       2.674975        72.7898 
 165   0.0000       2.710197        73.7482 
 166   0.0000       2.799155        76.1689 
 167   0.0000       2.805280        76.3355 
 168   0.0000       2.872076        78.1532 
 169   0.0000       2.915481        79.3343 
 170   0.0000       2.948720        80.2388 
 171   0.0000       2.951835        80.3235 
 172   0.0000       2.960341        80.5550 
 173   0.0000       2.982260        81.1514 
 174   0.0000       3.012502        81.9743 
 175   0.0000       3.024320        82.2959 
 176   0.0000       3.036875        82.6376 
 177   0.0000       3.060725        83.2866 
 178   0.0000       3.072348        83.6028 
 179   0.0000       3.141472        85.4838 
 180   0.0000       3.172597        86.3308 
 181   0.0000       3.183726        86.6336 
 182   0.0000       3.223327        87.7112 
 183   0.0000       3.240731        88.1848 
 184   0.0000       3.259664        88.7000 
 185   0.0000       3.271106        89.0113 
 186   0.0000       3.296553        89.7038 
 187   0.0000       3.308868        90.0389 
 188   0.0000       3.324203        90.4562 
 189   0.0000       3.371260        91.7366 
 190   0.0000       3.381558        92.0169 
 191   0.0000       3.386636        92.1551 
 192   0.0000       3.401481        92.5590 
 193   0.0000       3.405626        92.6718 
 194   0.0000       3.424549        93.1867 
 195   0.0000       3.444171        93.7206 
 196   0.0000       3.460559        94.1666 
 197   0.0000       3.511794        95.5608 
 198   0.0000       3.522674        95.8568 
 199   0.0000       3.533070        96.1397 
 200   0.0000       3.539475        96.3140 
 201   0.0000       3.595328        97.8338 
 202   0.0000       3.611888        98.2845 
 203   0.0000       3.638107        98.9979 
 204   0.0000       3.641328        99.0856 
 205   0.0000       3.657730        99.5319 
 206   0.0000       3.676371       100.0391 
 207   0.0000       3.694466       100.5315 
 208   0.0000       3.718424       101.1835 
 209   0.0000       3.755339       102.1880 
 210   0.0000       3.779460       102.8443 
 211   0.0000       3.789875       103.1277 
 212   0.0000       3.840491       104.5051 
 213   0.0000       3.899287       106.1050 
 214   0.0000       3.930542       106.9555 
 215   0.0000       3.934646       107.0672 
 216   0.0000       3.983585       108.3989 
 217   0.0000       3.985396       108.4481 
 218   0.0000       4.062231       110.5389 
 219   0.0000       4.068150       110.7000 
 220   0.0000       4.071755       110.7981 
 221   0.0000       4.083800       111.1259 
 222   0.0000       4.097830       111.5076 
 223   0.0000       4.113294       111.9284 
 224   0.0000       4.120837       112.1337 
 225   0.0000       4.129113       112.3589 
 226   0.0000       4.153622       113.0258 
 227   0.0000       4.224175       114.9456 
 228   0.0000       4.266078       116.0859 
 229   0.0000       4.272169       116.2516 
 230   0.0000       4.276300       116.3640 
 231   0.0000       4.295340       116.8821 
 232   0.0000       4.303721       117.1102 
 233   0.0000       4.354543       118.4931 
 234   0.0000       4.388071       119.4055 
 235   0.0000       4.409178       119.9798 
 236   0.0000       4.426645       120.4551 
 237   0.0000       4.448677       121.0547 
 238   0.0000       4.455881       121.2507 
 239   0.0000       4.527974       123.2124 
 240   0.0000       4.537632       123.4752 
 241   0.0000       4.574304       124.4731 
 242   0.0000       4.594638       125.0264 
 243   0.0000       4.607548       125.3778 
 244   0.0000       4.632213       126.0489 
 245   0.0000       4.675592       127.2293 
 246   0.0000       4.686148       127.5166 
 247   0.0000       4.728145       128.6594 
 248   0.0000       4.742132       129.0400 
 249   0.0000       4.781859       130.1210 
 250   0.0000       4.797406       130.5440 
 251   0.0000       4.853057       132.0584 
 252   0.0000       4.905530       133.4863 
 253   0.0000       4.935171       134.2928 
 254   0.0000       4.968180       135.1911 
 255   0.0000       5.001122       136.0875 
 256   0.0000       5.030029       136.8741 
 257   0.0000       5.126262       139.4927 
 258   0.0000       5.168785       140.6498 
 259   0.0000       5.172228       140.7435 
 260   0.0000       5.196942       141.4160 
 261   0.0000       5.212852       141.8489 
 262   0.0000       5.260175       143.1366 
 263   0.0000       5.266507       143.3089 
 264   0.0000       5.338666       145.2725 
 265   0.0000       5.355176       145.7218 
 266   0.0000       5.432758       147.8329 
 267   0.0000       5.440477       148.0429 
 268   0.0000       5.444909       148.1635 
 269   0.0000       5.505705       149.8178 
 270   0.0000       5.564155       151.4084 
 271   0.0000       5.600885       152.4078 
 272   0.0000       5.636793       153.3849 
 273   0.0000       5.650376       153.7545 
 274   0.0000       5.789894       157.5510 
 275   0.0000       5.835002       158.7785 
 276   0.0000       5.924361       161.2101 
 277   0.0000       6.016308       163.7121 
 278   0.0000       6.079555       165.4331 
 279   0.0000       6.199101       168.6861 
 280   0.0000       6.316178       171.8719 
 281   0.0000       6.359394       173.0479 
 282   0.0000       6.866980       186.8600 
 283   0.0000       8.013894       218.0691 
 284   0.0000      23.219228       631.8273 
 285   0.0000      23.508704       639.7044 
 286   0.0000      23.652808       643.6256 
 287   0.0000      23.818455       648.1331 
 288   0.0000      24.200862       658.5389 
 289   0.0000      33.102846       900.7742 

                 SPIN DOWN ORBITALS
  NO   OCC          E(Eh)            E(eV) 
   0   1.0000    -483.337277    -13152.2759 
   1   1.0000     -62.642936     -1704.6010 
   2   1.0000     -56.329129     -1532.7935 
   3   1.0000     -56.327529     -1532.7500 
   4   1.0000     -56.327479     -1532.7486 
   5   1.0000     -14.275948      -388.4683 
   6   1.0000     -10.238392      -278.6008 
   7   1.0000     -10.178912      -276.9823 
   8   1.0000     -10.165063      -276.6054 
   9   1.0000     -10.161156      -276.4991 
  10   1.0000     -10.133816      -275.7551 
  11   1.0000      -8.726624      -237.4635 
  12   1.0000      -6.511169      -177.1779 
  13   1.0000      -6.502467      -176.9411 
  14   1.0000      -6.502327      -176.9373 
  15   1.0000      -2.592458       -70.5444 
  16   1.0000      -2.589916       -70.4752 
  17   1.0000      -2.589811       -70.4723 
  18   1.0000      -2.582739       -70.2799 
  19   1.0000      -2.582728       -70.2796 
  20   1.0000      -0.880167       -23.9506 
  21   1.0000      -0.756628       -20.5889 
  22   1.0000      -0.728003       -19.8100 
  23   1.0000      -0.670439       -18.2436 
  24   1.0000      -0.556588       -15.1455 
  25   1.0000      -0.533334       -14.5128 
  26   1.0000      -0.444184       -12.0869 
  27   1.0000      -0.397929       -10.8282 
  28   1.0000      -0.384733       -10.4691 
  29   1.0000      -0.341677        -9.2975 
  30   1.0000      -0.328093        -8.9279 
  31   1.0000      -0.308610        -8.3977 
  32   1.0000      -0.274265        -7.4631 
  33   1.0000      -0.243551        -6.6274 
  34   1.0000      -0.225298        -6.1307 
  35   1.0000      -0.170629        -4.6431 
  36   1.0000      -0.163992        -4.4624 
  37   1.0000      -0.153135        -4.1670 
  38   0.0000       0.242707         6.6044 
  39   0.0000       0.250319         6.8115 
  40   0.0000       0.254068         6.9136 
  41   0.0000       0.272443         7.4135 
  42   0.0000       0.285866         7.7788 
  43   0.0000       0.299805         8.1581 
  44   0.0000       0.311699         8.4818 
  45   0.0000       0.337002         9.1703 
  46   0.0000       0.376829        10.2540 
  47   0.0000       0.404744        11.0136 
  48   0.0000       0.407766        11.0959 
  49   0.0000       0.427461        11.6318 
  50   0.0000       0.438289        11.9265 
  51   0.0000       0.440895        11.9974 
  52   0.0000       0.454981        12.3807 
  53   0.0000       0.468840        12.7578 
  54   0.0000       0.474103        12.9010 
  55   0.0000       0.478662        13.0250 
  56   0.0000       0.482491        13.1293 
  57   0.0000       0.510979        13.9045 
  58   0.0000       0.513732        13.9794 
  59   0.0000       0.528744        14.3878 
  60   0.0000       0.537340        14.6218 
  61   0.0000       0.557690        15.1755 
  62   0.0000       0.574308        15.6277 
  63   0.0000       0.574480        15.6324 
  64   0.0000       0.602898        16.4057 
  65   0.0000       0.604059        16.4373 
  66   0.0000       0.621960        16.9244 
  67   0.0000       0.635480        17.2923 
  68   0.0000       0.638018        17.3614 
  69   0.0000       0.647887        17.6299 
  70   0.0000       0.657070        17.8798 
  71   0.0000       0.672260        18.2931 
  72   0.0000       0.691892        18.8273 
  73   0.0000       0.708661        19.2836 
  74   0.0000       0.733635        19.9632 
  75   0.0000       0.741117        20.1668 
  76   0.0000       0.767172        20.8758 
  77   0.0000       0.774170        21.0662 
  78   0.0000       0.794597        21.6221 
  79   0.0000       0.817451        22.2440 
  80   0.0000       0.820877        22.3372 
  81   0.0000       0.856977        23.3195 
  82   0.0000       0.876504        23.8509 
  83   0.0000       0.887942        24.1621 
  84   0.0000       0.907011        24.6810 
  85   0.0000       0.927718        25.2445 
  86   0.0000       0.951021        25.8786 
  87   0.0000       0.954354        25.9693 
  88   0.0000       0.977295        26.5935 
  89   0.0000       0.980243        26.6738 
  90   0.0000       1.015065        27.6213 
  91   0.0000       1.025082        27.8939 
  92   0.0000       1.077177        29.3115 
  93   0.0000       1.089767        29.6541 
  94   0.0000       1.107161        30.1274 
  95   0.0000       1.116204        30.3735 
  96   0.0000       1.173752        31.9394 
  97   0.0000       1.212214        32.9860 
  98   0.0000       1.231173        33.5019 
  99   0.0000       1.237270        33.6678 
 100   0.0000       1.261806        34.3355 
 101   0.0000       1.272111        34.6159 
 102   0.0000       1.286502        35.0075 
 103   0.0000       1.298096        35.3230 
 104   0.0000       1.342829        36.5402 
 105   0.0000       1.362694        37.0808 
 106   0.0000       1.383617        37.6501 
 107   0.0000       1.390595        37.8400 
 108   0.0000       1.421519        38.6815 
 109   0.0000       1.450818        39.4788 
 110   0.0000       1.466305        39.9002 
 111   0.0000       1.478617        40.2352 
 112   0.0000       1.482035        40.3282 
 113   0.0000       1.516229        41.2587 
 114   0.0000       1.533052        41.7165 
 115   0.0000       1.553961        42.2854 
 116   0.0000       1.576994        42.9122 
 117   0.0000       1.601991        43.5924 
 118   0.0000       1.609467        43.7958 
 119   0.0000       1.627362        44.2828 
 120   0.0000       1.629718        44.3469 
 121   0.0000       1.654757        45.0282 
 122   0.0000       1.660149        45.1750 
 123   0.0000       1.669346        45.4252 
 124   0.0000       1.692824        46.0641 
 125   0.0000       1.710018        46.5320 
 126   0.0000       1.727891        47.0183 
 127   0.0000       1.754843        47.7517 
 128   0.0000       1.762101        47.9492 
 129   0.0000       1.775776        48.3213 
 130   0.0000       1.790451        48.7206 
 131   0.0000       1.803161        49.0665 
 132   0.0000       1.804986        49.1162 
 133   0.0000       1.826129        49.6915 
 134   0.0000       1.833535        49.8930 
 135   0.0000       1.850509        50.3549 
 136   0.0000       1.861068        50.6422 
 137   0.0000       1.894995        51.5654 
 138   0.0000       1.905805        51.8596 
 139   0.0000       1.916675        52.1554 
 140   0.0000       1.948593        53.0239 
 141   0.0000       1.964081        53.4454 
 142   0.0000       1.966293        53.5055 
 143   0.0000       1.993430        54.2440 
 144   0.0000       2.008837        54.6632 
 145   0.0000       2.021696        55.0131 
 146   0.0000       2.046804        55.6964 
 147   0.0000       2.101728        57.1909 
 148   0.0000       2.110428        57.4277 
 149   0.0000       2.129962        57.9592 
 150   0.0000       2.147959        58.4489 
 151   0.0000       2.192342        59.6567 
 152   0.0000       2.207280        60.0631 
 153   0.0000       2.234932        60.8156 
 154   0.0000       2.274503        61.8924 
 155   0.0000       2.316182        63.0265 
 156   0.0000       2.397207        65.2313 
 157   0.0000       2.434692        66.2513 
 158   0.0000       2.487220        67.6807 
 159   0.0000       2.513777        68.4034 
 160   0.0000       2.558029        69.6075 
 161   0.0000       2.626170        71.4617 
 162   0.0000       2.660057        72.3838 
 163   0.0000       2.680474        72.9394 
 164   0.0000       2.687412        73.1282 
 165   0.0000       2.716157        73.9104 
 166   0.0000       2.809600        76.4531 
 167   0.0000       2.816447        76.6394 
 168   0.0000       2.879222        78.3476 
 169   0.0000       2.927395        79.6585 
 170   0.0000       2.952411        80.3392 
 171   0.0000       2.965670        80.7000 
 172   0.0000       2.973870        80.9231 
 173   0.0000       2.988124        81.3110 
 174   0.0000       3.019851        82.1743 
 175   0.0000       3.032193        82.5102 
 176   0.0000       3.043308        82.8126 
 177   0.0000       3.067937        83.4828 
 178   0.0000       3.083448        83.9049 
 179   0.0000       3.148527        85.6758 
 180   0.0000       3.186531        86.7099 
 181   0.0000       3.196875        86.9914 
 182   0.0000       3.232096        87.9498 
 183   0.0000       3.248670        88.4008 
 184   0.0000       3.270258        88.9882 
 185   0.0000       3.278693        89.2178 
 186   0.0000       3.306105        89.9637 
 187   0.0000       3.320077        90.3439 
 188   0.0000       3.333086        90.6979 
 189   0.0000       3.379368        91.9573 
 190   0.0000       3.394437        92.3673 
 191   0.0000       3.394550        92.3704 
 192   0.0000       3.413210        92.8782 
 193   0.0000       3.421720        93.1097 
 194   0.0000       3.443665        93.7069 
 195   0.0000       3.450552        93.8943 
 196   0.0000       3.467071        94.3438 
 197   0.0000       3.517001        95.7025 
 198   0.0000       3.526827        95.9698 
 199   0.0000       3.538851        96.2970 
 200   0.0000       3.545361        96.4742 
 201   0.0000       3.606074        98.1263 
 202   0.0000       3.620245        98.5119 
 203   0.0000       3.649081        99.2965 
 204   0.0000       3.649859        99.3177 
 205   0.0000       3.668505        99.8251 
 206   0.0000       3.687620       100.3452 
 207   0.0000       3.705231       100.8245 
 208   0.0000       3.724923       101.3603 
 209   0.0000       3.761766       102.3629 
 210   0.0000       3.789572       103.1195 
 211   0.0000       3.799324       103.3849 
 212   0.0000       3.845788       104.6492 
 213   0.0000       3.905463       106.2731 
 214   0.0000       3.935672       107.0951 
 215   0.0000       3.942393       107.2780 
 216   0.0000       3.991407       108.6117 
 217   0.0000       3.993149       108.6591 
 218   0.0000       4.072083       110.8070 
 219   0.0000       4.076131       110.9172 
 220   0.0000       4.077246       110.9475 
 221   0.0000       4.092680       111.3675 
 222   0.0000       4.105710       111.7220 
 223   0.0000       4.118655       112.0743 
 224   0.0000       4.128930       112.3539 
 225   0.0000       4.134752       112.5123 
 226   0.0000       4.161815       113.2487 
 227   0.0000       4.229906       115.1016 
 228   0.0000       4.272443       116.2591 
 229   0.0000       4.272967       116.2733 
 230   0.0000       4.283738       116.5664 
 231   0.0000       4.300630       117.0261 
 232   0.0000       4.309130       117.2574 
 233   0.0000       4.359476       118.6274 
 234   0.0000       4.393730       119.5595 
 235   0.0000       4.417497       120.2062 
 236   0.0000       4.441236       120.8522 
 237   0.0000       4.453372       121.1824 
 238   0.0000       4.462550       121.4322 
 239   0.0000       4.532865       123.3455 
 240   0.0000       4.543070       123.6232 
 241   0.0000       4.579364       124.6108 
 242   0.0000       4.599299       125.1533 
 243   0.0000       4.627489       125.9204 
 244   0.0000       4.640255       126.2678 
 245   0.0000       4.681496       127.3900 
 246   0.0000       4.699959       127.8924 
 247   0.0000       4.743074       129.0656 
 248   0.0000       4.749661       129.2449 
 249   0.0000       4.790462       130.3551 
 250   0.0000       4.808593       130.8485 
 251   0.0000       4.858636       132.2102 
 252   0.0000       4.922194       133.9397 
 253   0.0000       4.944314       134.5416 
 254   0.0000       4.977163       135.4355 
 255   0.0000       5.008082       136.2768 
 256   0.0000       5.046729       137.3285 
 257   0.0000       5.143183       139.9531 
 258   0.0000       5.177532       140.8878 
 259   0.0000       5.202326       141.5625 
 260   0.0000       5.210709       141.7906 
 261   0.0000       5.223740       142.1452 
 262   0.0000       5.280537       143.6907 
 263   0.0000       5.289022       143.9216 
 264   0.0000       5.353994       145.6896 
 265   0.0000       5.366763       146.0371 
 266   0.0000       5.447879       148.2443 
 267   0.0000       5.457704       148.5117 
 268   0.0000       5.462771       148.6496 
 269   0.0000       5.517597       150.1415 
 270   0.0000       5.579185       151.8173 
 271   0.0000       5.618420       152.8850 
 272   0.0000       5.650893       153.7686 
 273   0.0000       5.669858       154.2847 
 274   0.0000       5.801870       157.8769 
 275   0.0000       5.847712       159.1243 
 276   0.0000       5.939826       161.6309 
 277   0.0000       6.027545       164.0178 
 278   0.0000       6.090929       165.7426 
 279   0.0000       6.209155       168.9597 
 280   0.0000       6.327939       172.1920 
 281   0.0000       6.369513       173.3233 
 282   0.0000       6.874949       187.0769 
 283   0.0000       8.014048       218.0733 
 284   0.0000      23.220730       631.8682 
 285   0.0000      23.511151       639.7709 
 286   0.0000      23.654212       643.6638 
 287   0.0000      23.821469       648.2151 
 288   0.0000      24.204978       658.6509 
 289   0.0000      33.108950       900.9403 

                    ********************************
                    * MULLIKEN POPULATION ANALYSIS *
                    ********************************

--------------------------------------------
MULLIKEN ATOMIC CHARGES AND SPIN POPULATIONS
--------------------------------------------
   0 Br:   -0.210658    0.003355
   1 C :    0.092454    0.040157
   2 C :   -0.217173    0.074010
   3 C :   -0.256173    0.457586
   4 C :   -0.142890   -0.025951
   5 C :   -0.107460    0.163074
   6 N :   -0.349712    0.322186
   7 H :    0.056621   -0.005788
   8 H :    0.037793   -0.018755
   9 H :    0.049577   -0.001105
  10 H :    0.047620   -0.008769
Sum of atomic charges         :   -1.0000000
Sum of atomic spin populations:    1.0000000

-----------------------------------------------------
MULLIKEN REDUCED ORBITAL CHARGES AND SPIN POPULATIONS
-----------------------------------------------------
CHARGE
  0 Brs       :     7.861296  s :     7.861296
      pz      :     5.964439  p :    17.290625
      px      :     5.324990
      py      :     6.001196
      dz2     :     2.005873  d :    10.051866
      dxz     :     2.020876
      dyz     :     2.002802
      dx2y2   :     2.016900
      dxy     :     2.005415
      f0      :     0.000783  f :     0.006871
      f+1     :     0.001293
      f-1     :     0.000082
      f+2     :     0.001156
      f-2     :     0.000159
      f+3     :     0.002346
      f-3     :     0.001051
  1 C s       :     3.162902  s :     3.162902
      pz      :     0.995251  p :     2.536840
      px      :     0.725664
      py      :     0.815925
      dz2     :     0.005818  d :     0.194796
      dxz     :     0.019712
      dyz     :     0.053847
      dx2y2   :     0.071050
      dxy     :     0.044370
      f0      :     0.002275  f :     0.013008
      f+1     :     0.001071
      f-1     :     0.001027
      f+2     :     0.000887
      f-2     :     0.001563
      f+3     :     0.001871
      f-3     :     0.004314
  2 C s       :     3.210046  s :     3.210046
      pz      :     1.093683  p :     2.900378
      px      :     0.910289
      py      :     0.896406
      dz2     :     0.006281  d :     0.099062
      dxz     :     0.029955
      dyz     :     0.010290
      dx2y2   :     0.013415
      dxy     :     0.039122
      f0      :     0.001533  f :     0.007686
      f+1     :     0.000648
      f-1     :     0.000655
      f+2     :     0.001152
      f-2     :     0.000462
      f+3     :     0.001032
      f-3     :     0.002206
  3 C s       :     3.221042  s :     3.221042
      pz      :     1.203415  p :     2.948116
      px      :     0.862335
      py      :     0.882365
      dz2     :     0.004822  d :     0.079439
      dxz     :     0.018141
      dyz     :     0.010889
      dx2y2   :     0.020571
      dxy     :     0.025016
      f0      :     0.001623  f :     0.007576
      f+1     :     0.000667
      f-1     :     0.000670
      f+2     :     0.000962
      f-2     :     0.000398
      f+3     :     0.000996
      f-3     :     0.002259
  4 C s       :     3.206134  s :     3.206134
      pz      :     1.016143  p :     2.830296
      px      :     0.921140
      py      :     0.893014
      dz2     :     0.005579  d :     0.098965
      dxz     :     0.004513
      dyz     :     0.038347
      dx2y2   :     0.035629
      dxy     :     0.014898
      f0      :     0.001452  f :     0.007495
      f+1     :     0.000624
      f-1     :     0.000597
      f+2     :     0.000241
      f-2     :     0.001347
      f+3     :     0.001034
      f-3     :     0.002199
  5 C s       :     3.171262  s :     3.171262
      pz      :     1.053980  p :     2.805053
      px      :     0.837439
      py      :     0.913635
      dz2     :     0.003431  d :     0.120425
      dxz     :     0.037009
      dyz     :     0.009494
      dx2y2   :     0.032497
      dxy     :     0.037993
      f0      :     0.001769  f :     0.010719
      f+1     :     0.001030
      f-1     :     0.000638
      f+2     :     0.001548
      f-2     :     0.000573
      f+3     :     0.001592
      f-3     :     0.003570
  6 N s       :     3.455573  s :     3.455573
      pz      :     1.309350  p :     3.828668
      px      :     1.138704
      py      :     1.380614
      dz2     :     0.006776  d :     0.061384
      dxz     :     0.011124
      dyz     :     0.010071
      dx2y2   :     0.018277
      dxy     :     0.015135
      f0      :     0.000749  f :     0.004088
      f+1     :     0.000450
      f-1     :     0.000339
      f+2     :     0.000521
      f-2     :     0.000311
      f+3     :     0.000814
      f-3     :     0.000905
  7 H s       :     0.907838  s :     0.907838
      pz      :     0.013973  p :     0.033046
      px      :     0.008672
      py      :     0.010401
      dz2     :     0.000132  d :     0.002494
      dxz     :     0.000199
      dyz     :     0.000709
      dx2y2   :     0.000885
      dxy     :     0.000569
  8 H s       :     0.923435  s :     0.923435
      pz      :     0.019607  p :     0.036219
      px      :     0.008144
      py      :     0.008468
      dz2     :     0.000133  d :     0.002553
      dxz     :     0.000302
      dyz     :     0.000827
      dx2y2   :     0.000792
      dxy     :     0.000498
  9 H s       :     0.918050  s :     0.918050
      pz      :     0.013005  p :     0.030049
      px      :     0.008896
      py      :     0.008148
      dz2     :     0.000116  d :     0.002324
      dxz     :     0.000787
      dyz     :     0.000040
      dx2y2   :     0.000428
      dxy     :     0.000952
 10 H s       :     0.919350  s :     0.919350
      pz      :     0.014814  p :     0.030555
      px      :     0.006665
      py      :     0.009075
      dz2     :     0.000151  d :     0.002475
      dxz     :     0.000132
      dyz     :     0.000810
      dx2y2   :     0.000723
      dxy     :     0.000659

SPIN
  0 Brs       :     0.000252  s :     0.000252
      pz      :     0.001780  p :    -0.003253
      px      :    -0.005156
      py      :     0.000123
      dz2     :    -0.000014  d :     0.006123
      dxz     :     0.004036
      dyz     :     0.002215
      dx2y2   :     0.000110
      dxy     :    -0.000225
      f0      :     0.000056  f :     0.000233
      f+1     :    -0.000007
      f-1     :    -0.000003
      f+2     :     0.000082
      f-2     :     0.000108
      f+3     :     0.000007
      f-3     :    -0.000010
  1 C s       :     0.000458  s :     0.000458
      pz      :     0.025415  p :     0.021745
      px      :     0.000249
      py      :    -0.003918
      dz2     :    -0.000076  d :     0.017640
      dxz     :     0.000173
      dyz     :     0.018599
      dx2y2   :    -0.000966
      dxy     :    -0.000089
      f0      :    -0.000012  f :     0.000314
      f+1     :    -0.000023
      f-1     :    -0.000032
      f+2     :     0.000100
      f-2     :     0.000277
      f+3     :    -0.000001
      f-3     :     0.000005
  2 C s       :    -0.002426  s :    -0.002426
      pz      :     0.067165  p :     0.057875
      px      :    -0.010019
      py      :     0.000729
      dz2     :     0.000153  d :     0.018119
      dxz     :     0.015974
      dyz     :     0.001118
      dx2y2   :     0.000214
      dxy     :     0.000659
      f0      :    -0.000008  f :     0.000441
      f+1     :    -0.000037
      f-1     :    -0.000030
      f+2     :     0.000425
      f-2     :     0.000045
      f+3     :     0.000003
      f-3     :     0.000044
  3 C s       :     0.023077  s :     0.023077
      pz      :     0.404610  p :     0.431287
      px      :     0.012662
      py      :     0.014016
      dz2     :    -0.000818  d :     0.003836
      dxz     :     0.001149
      dyz     :     0.000221
      dx2y2   :     0.000992
      dxy     :     0.002292
      f0      :    -0.000267  f :    -0.000614
      f+1     :    -0.000167
      f-1     :    -0.000161
      f+2     :     0.000043
      f-2     :    -0.000031
      f+3     :    -0.000079
      f-3     :     0.000048
  4 C s       :     0.001259  s :     0.001259
      pz      :    -0.031606  p :    -0.048990
      px      :    -0.004335
      py      :    -0.013049
      dz2     :     0.000406  d :     0.021108
      dxz     :     0.000087
      dyz     :     0.020655
      dx2y2   :    -0.000165
      dxy     :     0.000124
      f0      :     0.000075  f :     0.000672
      f+1     :     0.000004
      f-1     :     0.000003
      f+2     :     0.000060
      f-2     :     0.000462
      f+3     :     0.000018
      f-3     :     0.000051
  5 C s       :     0.003213  s :     0.003213
      pz      :     0.147215  p :     0.149648
      px      :    -0.003951
      py      :     0.006385
      dz2     :    -0.000328  d :     0.010089
      dxz     :     0.011828
      dyz     :    -0.000305
      dx2y2   :    -0.000661
      dxy     :    -0.000444
      f0      :    -0.000079  f :     0.000123
      f+1     :    -0.000095
      f-1     :    -0.000065
      f+2     :     0.000380
      f-2     :    -0.000009
      f+3     :    -0.000023
      f-3     :     0.000013
  6 N s       :     0.021597  s :     0.021597
      pz      :     0.292697  p :     0.300916
      px      :     0.005860
      py      :     0.002359
      dz2     :     0.000022  d :    -0.000053
      dxz     :     0.000389
      dyz     :    -0.000999
      dx2y2   :     0.000266
      dxy     :     0.000269
      f0      :    -0.000154  f :    -0.000274
      f+1     :    -0.000086
      f-1     :    -0.000067
      f+2     :     0.000038
      f-2     :    -0.000022
      f+3     :    -0.000006
      f-3     :     0.000023
  7 H s       :    -0.006827  s :    -0.006827
      pz      :     0.001574  p :     0.000925
      px      :     0.000046
      py      :    -0.000696
      dz2     :    -0.000010  d :     0.000114
      dxz     :    -0.000013
      dyz     :     0.000142
      dx2y2   :    -0.000012
      dxy     :     0.000005
  8 H s       :    -0.028048  s :    -0.028048
      pz      :     0.009294  p :     0.008710
      px      :    -0.000052
      py      :    -0.000531
      dz2     :    -0.000029  d :     0.000583
      dxz     :     0.000137
      dyz     :     0.000431
      dx2y2   :     0.000046
      dxy     :    -0.000002
  9 H s       :    -0.000313  s :    -0.000313
      pz      :    -0.000321  p :    -0.000775
      px      :    -0.000319
      py      :    -0.000136
      dz2     :    -0.000003  d :    -0.000017
      dxz     :    -0.000019
      dyz     :     0.000026
      dx2y2   :    -0.000007
      dxy     :    -0.000013
 10 H s       :    -0.012570  s :    -0.012570
      pz      :     0.004549  p :     0.003598
      px      :    -0.000069
      py      :    -0.000882
      dz2     :    -0.000013  d :     0.000203
      dxz     :    -0.000001
      dyz     :     0.000217
      dx2y2   :    -0.000008
      dxy     :     0.000008


                     *******************************
                     * LOEWDIN POPULATION ANALYSIS *
                     *******************************

-------------------------------------------
LOEWDIN ATOMIC CHARGES AND SPIN POPULATIONS
-------------------------------------------
   0 Br:    0.207086    0.006802
   1 C :   -0.517195    0.079436
   2 C :   -0.148766    0.100267
   3 C :   -0.170081    0.307375
   4 C :   -0.103564    0.043191
   5 C :   -0.221361    0.150574
   6 N :    0.034147    0.258941
   7 H :   -0.014062    0.007076
   8 H :   -0.032268    0.036029
   9 H :   -0.010680   -0.001247
  10 H :   -0.023256    0.011556

----------------------------------------------------
LOEWDIN REDUCED ORBITAL CHARGES AND SPIN POPULATIONS
----------------------------------------------------
CHARGE
  0 Brs       :     7.577163  s :     7.577163
      pz      :     5.895375  p :    17.075437
      px      :     5.286407
      py      :     5.893656
      dz2     :     2.015601  d :    10.126181
      dxz     :     2.042878
      dyz     :     2.003777
      dx2y2   :     2.039537
      dxy     :     2.024388
      f0      :     0.001597  f :     0.014134
      f+1     :     0.002492
      f-1     :     0.000198
      f+2     :     0.002452
      f-2     :     0.000184
      f+3     :     0.004419
      f-3     :     0.002793
  1 C s       :     2.790487  s :     2.790487
      pz      :     0.934412  p :     2.941212
      px      :     0.927006
      py      :     1.079794
      dz2     :     0.043891  d :     0.708229
      dxz     :     0.065456
      dyz     :     0.154208
      dx2y2   :     0.279390
      dxy     :     0.165284
      f0      :     0.005543  f :     0.077267
      f+1     :     0.004591
      f-1     :     0.006236
      f+2     :     0.005554
      f-2     :     0.012278
      f+3     :     0.012265
      f-3     :     0.030802
  2 C s       :     2.724338  s :     2.724338
      pz      :     0.935920  p :     2.953093
      px      :     1.030785
      py      :     0.986388
      dz2     :     0.027065  d :     0.425231
      dxz     :     0.099285
      dyz     :     0.031673
      dx2y2   :     0.111188
      dxy     :     0.156020
      f0      :     0.003377  f :     0.046104
      f+1     :     0.003801
      f-1     :     0.003736
      f+2     :     0.008040
      f-2     :     0.003844
      f+3     :     0.008555
      f-3     :     0.014750
  3 C s       :     2.712302  s :     2.712302
      pz      :     1.022870  p :     3.005206
      px      :     1.000264
      py      :     0.982072
      dz2     :     0.025750  d :     0.405975
      dxz     :     0.068580
      dyz     :     0.039089
      dx2y2   :     0.120717
      dxy     :     0.151840
      f0      :     0.005126  f :     0.046597
      f+1     :     0.003846
      f-1     :     0.003540
      f+2     :     0.006712
      f-2     :     0.002988
      f+3     :     0.008277
      f-3     :     0.016109
  4 C s       :     2.724806  s :     2.724806
      pz      :     0.886016  p :     2.904470
      px      :     0.979655
      py      :     1.038800
      dz2     :     0.025797  d :     0.429443
      dxz     :     0.015021
      dyz     :     0.123986
      dx2y2   :     0.158043
      dxy     :     0.106596
      f0      :     0.002602  f :     0.044845
      f+1     :     0.003342
      f-1     :     0.003718
      f+2     :     0.001952
      f-2     :     0.009806
      f+3     :     0.008208
      f-3     :     0.015216
  5 C s       :     2.729591  s :     2.729591
      pz      :     0.925417  p :     2.891951
      px      :     0.964484
      py      :     1.002051
      dz2     :     0.031535  d :     0.534155
      dxz     :     0.119416
      dyz     :     0.026893
      dx2y2   :     0.158410
      dxy     :     0.197902
      f0      :     0.004869  f :     0.065664
      f+1     :     0.005870
      f-1     :     0.003494
      f+2     :     0.010947
      f-2     :     0.003905
      f+3     :     0.011444
      f-3     :     0.025135
  6 N s       :     3.011798  s :     3.011798
      pz      :     1.184698  p :     3.717275
      px      :     1.201004
      py      :     1.331572
      dz2     :     0.017604  d :     0.217122
      dxz     :     0.039591
      dyz     :     0.026373
      dx2y2   :     0.067024
      dxy     :     0.066531
      f0      :     0.002298  f :     0.019658
      f+1     :     0.001860
      f-1     :     0.001270
      f+2     :     0.002922
      f-2     :     0.001310
      f+3     :     0.003901
      f-3     :     0.006098
  7 H s       :     0.827620  s :     0.827620
      pz      :     0.053570  p :     0.156481
      px      :     0.043991
      py      :     0.058919
      dz2     :     0.002620  d :     0.029961
      dxz     :     0.002318
      dyz     :     0.007270
      dx2y2   :     0.009277
      dxy     :     0.008476
  8 H s       :     0.831829  s :     0.831829
      pz      :     0.070333  p :     0.170275
      px      :     0.043144
      py      :     0.056798
      dz2     :     0.002540  d :     0.030164
      dxz     :     0.002835
      dyz     :     0.007742
      dx2y2   :     0.008876
      dxy     :     0.008172
  9 H s       :     0.830025  s :     0.830025
      pz      :     0.047152  p :     0.151435
      px      :     0.067462
      py      :     0.036821
      dz2     :     0.002589  d :     0.029221
      dxz     :     0.008590
      dyz     :     0.000156
      dx2y2   :     0.008282
      dxy     :     0.009603
 10 H s       :     0.843370  s :     0.843370
      pz      :     0.051511  p :     0.150561
      px      :     0.035377
      py      :     0.063673
      dz2     :     0.002632  d :     0.029324
      dxz     :     0.001469
      dyz     :     0.007815
      dx2y2   :     0.008604
      dxy     :     0.008804

SPIN
  0 Brs       :    -0.000171  s :    -0.000171
      pz      :     0.002764  p :    -0.001606
      px      :    -0.004006
      py      :    -0.000365
      dz2     :    -0.000110  d :     0.008188
      dxz     :     0.005464
      dyz     :     0.003030
      dx2y2   :     0.000107
      dxy     :    -0.000303
      f0      :     0.000102  f :     0.000392
      f+1     :    -0.000009
      f-1     :    -0.000004
      f+2     :     0.000161
      f-2     :     0.000143
      f+3     :     0.000021
      f-3     :    -0.000022
  1 C s       :    -0.000873  s :    -0.000873
      pz      :     0.022817  p :     0.020370
      px      :     0.000671
      py      :    -0.003119
      dz2     :     0.000101  d :     0.054978
      dxz     :     0.001459
      dyz     :     0.053300
      dx2y2   :    -0.000200
      dxy     :     0.000317
      f0      :     0.001130  f :     0.004961
      f+1     :    -0.000009
      f-1     :    -0.000010
      f+2     :     0.000719
      f-2     :     0.002907
      f+3     :     0.000106
      f-3     :     0.000116
  2 C s       :    -0.000200  s :    -0.000200
      pz      :     0.046432  p :     0.044291
      px      :    -0.002202
      py      :     0.000060
      dz2     :    -0.000119  d :     0.051952
      dxz     :     0.050129
      dyz     :     0.000930
      dx2y2   :     0.000305
      dxy     :     0.000708
      f0      :     0.001047  f :     0.004224
      f+1     :    -0.000037
      f-1     :    -0.000027
      f+2     :     0.002851
      f-2     :     0.000244
      f+3     :     0.000045
      f-3     :     0.000101
  3 C s       :     0.005243  s :     0.005243
      pz      :     0.282010  p :     0.292459
      px      :     0.005180
      py      :     0.005269
      dz2     :    -0.000791  d :     0.008372
      dxz     :     0.006325
      dyz     :     0.004373
      dx2y2   :    -0.000903
      dxy     :    -0.000632
      f0      :     0.002068  f :     0.001301
      f+1     :    -0.000195
      f-1     :    -0.000192
      f+2     :     0.000035
      f-2     :    -0.000189
      f+3     :    -0.000194
      f-3     :    -0.000031
  4 C s       :    -0.001602  s :    -0.001602
      pz      :    -0.019059  p :    -0.024910
      px      :    -0.001325
      py      :    -0.004526
      dz2     :     0.000052  d :     0.064910
      dxz     :     0.001469
      dyz     :     0.061799
      dx2y2   :     0.000757
      dxy     :     0.000834
      f0      :     0.000686  f :     0.004794
      f+1     :     0.000017
      f-1     :     0.000010
      f+2     :     0.000478
      f-2     :     0.003359
      f+3     :     0.000114
      f-3     :     0.000130
  5 C s       :     0.001191  s :     0.001191
      pz      :     0.108170  p :     0.107949
      px      :    -0.001816
      py      :     0.001595
      dz2     :    -0.000093  d :     0.036999
      dxz     :     0.039939
      dyz     :    -0.002134
      dx2y2   :    -0.000015
      dxy     :    -0.000698
      f0      :     0.001669  f :     0.004435
      f+1     :    -0.000068
      f-1     :    -0.000065
      f+2     :     0.002946
      f-2     :    -0.000162
      f+3     :     0.000080
      f-3     :     0.000035
  6 N s       :     0.005375  s :     0.005375
      pz      :     0.237196  p :     0.244123
      px      :     0.003718
      py      :     0.003209
      dz2     :     0.000058  d :     0.008481
      dxz     :     0.005173
      dyz     :     0.003272
      dx2y2   :    -0.000141
      dxy     :     0.000119
      f0      :     0.000846  f :     0.000962
      f+1     :    -0.000090
      f-1     :    -0.000060
      f+2     :     0.000182
      f-2     :     0.000100
      f+3     :    -0.000030
      f-3     :     0.000014
  7 H s       :    -0.001652  s :    -0.001652
      pz      :     0.007891  p :     0.007853
      px      :    -0.000269
      py      :     0.000231
      dz2     :    -0.000007  d :     0.000876
      dxz     :    -0.000047
      dyz     :     0.000928
      dx2y2   :    -0.000002
      dxy     :     0.000005
  8 H s       :    -0.007356  s :    -0.007356
      pz      :     0.036706  p :     0.038708
      px      :     0.000652
      py      :     0.001349
      dz2     :    -0.000018  d :     0.004677
      dxz     :     0.001068
      dyz     :     0.003225
      dx2y2   :     0.000201
      dxy     :     0.000201
  9 H s       :    -0.000016  s :    -0.000016
      pz      :    -0.000253  p :    -0.000971
      px      :    -0.000230
      py      :    -0.000489
      dz2     :    -0.000005  d :    -0.000261
      dxz     :    -0.000217
      dyz     :     0.000083
      dx2y2   :    -0.000012
      dxy     :    -0.000111
 10 H s       :    -0.003355  s :    -0.003355
      pz      :     0.012811  p :     0.013202
      px      :    -0.000167
      py      :     0.000558
      dz2     :    -0.000009  d :     0.001709
      dxz     :     0.000037
      dyz     :     0.001585
      dx2y2   :     0.000060
      dxy     :     0.000035


                      *****************************
                      * MAYER POPULATION ANALYSIS *
                      *****************************

  NA   - Mulliken gross atomic population
  ZA   - Total nuclear charge
  QA   - Mulliken gross atomic charge
  VA   - Mayer's total valence
  BVA  - Mayer's bonded valence
  FA   - Mayer's free valence

  ATOM       NA         ZA         QA         VA         BVA        FA
  0 Br    35.2107    35.0000    -0.2107     1.0724     1.0722     0.0002
  1 C      5.9075     6.0000     0.0925     4.1337     4.1280     0.0057
  2 C      6.2172     6.0000    -0.2172     3.8821     3.8703     0.0118
  3 C      6.2562     6.0000    -0.2562     3.6702     3.4927     0.1775
  4 C      6.1429     6.0000    -0.1429     3.8502     3.8459     0.0044
  5 C      6.1075     6.0000    -0.1075     4.0732     4.0436     0.0296
  6 N      7.3497     7.0000    -0.3497     3.0063     2.9158     0.0906
  7 H      0.9434     1.0000     0.0566     1.0147     1.0146     0.0001
  8 H      0.9622     1.0000     0.0378     1.0123     1.0114     0.0009
  9 H      0.9504     1.0000     0.0496     1.0014     1.0014     0.0000
 10 H      0.9524     1.0000     0.0476     1.0053     1.0051     0.0002

  Mayer bond orders larger than 0.100000
B(  0-Br,  1-C ) :   0.9564 B(  1-C ,  2-C ) :   1.5773 B(  1-C ,  6-N ) :   1.4947 
B(  2-C ,  3-C ) :   1.1618 B(  2-C ,  7-H ) :   0.9821 B(  3-C ,  4-C ) :   1.2292 
B(  3-C ,  8-H ) :   1.0239 B(  4-C ,  5-C ) :   1.5863 B(  4-C ,  9-H ) :   0.9888 
B(  5-C ,  6-N ) :   1.3157 B(  5-C , 10-H ) :   1.0157 


------------------
HIRSHFELD ANALYSIS
------------------

Total integrated alpha density =     39.000032386
Total integrated beta density  =     38.000025276

  ATOM     CHARGE      SPIN    
   0 Br  -0.226333    0.014712
   1 C    0.035500    0.069579
   2 C   -0.118883    0.095802
   3 C   -0.161706    0.303671
   4 C   -0.103851    0.040571
   5 C   -0.058077    0.142756
   6 N   -0.315758    0.265564
   7 H   -0.003955    0.010110
   8 H   -0.028457    0.037530
   9 H   -0.003757    0.004187
  10 H   -0.014780    0.015526

  TOTAL  -1.000058    1.000007

-------
TIMINGS
-------

Total SCF time: 0 days 0 hours 0 min 29 sec 

Total time                  ....      29.817 sec
Sum of individual times     ....      29.242 sec  ( 98.1%)

Fock matrix formation       ....      27.024 sec  ( 90.6%)
  Split-RI-J                ....       1.404 sec  (  5.2% of F)
  Chain of spheres X        ....      18.961 sec  ( 70.2% of F)
  XC integration            ....       6.386 sec  ( 23.6% of F)
    Basis function eval.    ....       0.409 sec  (  6.4% of XC)
    Density eval.           ....       1.873 sec  ( 29.3% of XC)
    XC-Functional eval.     ....       0.258 sec  (  4.0% of XC)
    XC-Potential eval.      ....       3.092 sec  ( 48.4% of XC)
Diagonalization             ....       0.694 sec  (  2.3%)
Density matrix formation    ....       0.036 sec  (  0.1%)
Population analysis         ....       0.390 sec  (  1.3%)
Initial guess               ....       0.085 sec  (  0.3%)
Orbital Transformation      ....       0.000 sec  (  0.0%)
Orbital Orthonormalization  ....       0.000 sec  (  0.0%)
DIIS solution               ....       0.359 sec  (  1.2%)
Grid generation             ....       0.653 sec  (  2.2%)

Maximum memory used throughout the entire SCF-calculation: 78.2 MB

-------------------------   --------------------
FINAL SINGLE POINT ENERGY     -2821.672779644190
-------------------------   --------------------


                            ***************************************
                            *     ORCA property calculations      *
                            ***************************************

                                    ---------------------
                                    Active property flags
                                    ---------------------
   (+) Dipole Moment


------------------------------------------------------------------------------
                       ORCA ELECTRIC PROPERTIES CALCULATION
------------------------------------------------------------------------------

Dipole Moment Calculation                       ... on
Quadrupole Moment Calculation                   ... off
Polarizability Calculation                      ... off
GBWName                                         ... arbr_14_r2scan3c_wB97MV_red.gbw
Electron density                                ... arbr_14_r2scan3c_wB97MV_red.scfp
The origin for moment calculation is the CENTER OF MASS  = ( 0.320701, -0.023427 -0.000006)

-------------
DIPOLE MOMENT
-------------
                                X             Y             Z
Electronic contribution:     25.76777      -1.33743      -0.00001
Nuclear contribution   :    -24.37310       1.78073       0.00002
                        -----------------------------------------
Total Dipole Moment    :      1.39467       0.44329       0.00002
                        -----------------------------------------
Magnitude (a.u.)       :      1.46342
Magnitude (Debye)      :      3.71972



--------------------
Rotational spectrum 
--------------------
 
Rotational constants in cm-1:     0.198373     0.034075     0.029080 
Rotational constants in MHz :  5947.064147  1021.547128   871.795837 

 Dipole components along the rotational axes: 
x,y,z [a.u.] :    -1.395203     0.441603     0.000016 
x,y,z [Debye]:    -3.546324     1.122465     0.000040 

 

Timings for individual modules:

Sum of individual times         ...       30.694 sec (=   0.512 min)
GTO integral calculation        ...        0.595 sec (=   0.010 min)   1.9 %
SCF iterations                  ...       30.099 sec (=   0.502 min)  98.1 %
                             ****ORCA TERMINATED NORMALLY****
TOTAL RUN TIME: 0 days 0 hours 0 minutes 31 seconds 98 msec
