
                                 *****************
                                 * O   R   C   A *
                                 *****************

                                            #,                                       
                                            ###                                      
                                            ####                                     
                                            #####                                    
                                            ######                                   
                                           ########,                                 
                                     ,,################,,,,,                         
                               ,,#################################,,                 
                          ,,##########################################,,             
                       ,#########################################, ''#####,          
                    ,#############################################,,   '####,        
                  ,##################################################,,,,####,       
                ,###########''''           ''''###############################       
              ,#####''   ,,,,##########,,,,          '''####'''          '####       
            ,##' ,,,,###########################,,,                        '##       
           ' ,,###''''                  '''############,,,                           
         ,,##''                                '''############,,,,        ,,,,,,###''
      ,#''                                            '''#######################'''  
     '                                                          ''''####''''         
             ,#######,   #######,   ,#######,      ##                                
            ,#'     '#,  ##    ##  ,#'     '#,    #''#        ######   ,####,        
            ##       ##  ##   ,#'  ##            #'  '#       #        #'  '#        
            ##       ##  #######   ##           ,######,      #####,   #    #        
            '#,     ,#'  ##    ##  '#,     ,#' ,#      #,         ##   #,  ,#        
             '#######'   ##     ##  '#######'  #'      '#     #####' # '####'        



                  #######################################################
                  #                        -***-                        #
                  #          Department of theory and spectroscopy      #
                  #    Directorship and core code : Frank Neese         #
                  #        Max Planck Institute fuer Kohlenforschung    #
                  #                Kaiser Wilhelm Platz 1               #
                  #                 D-45470 Muelheim/Ruhr               #
                  #                      Germany                        #
                  #                                                     #
                  #                  All rights reserved                #
                  #                        -***-                        #
                  #######################################################


                         Program Version 5.0.4 -  RELEASE  -


 With contributions from (in alphabetic order):
   Daniel Aravena         : Magnetic Suceptibility
   Michael Atanasov       : Ab Initio Ligand Field Theory (pilot matlab implementation)
   Alexander A. Auer      : GIAO ZORA, VPT2 properties, NMR spectrum
   Ute Becker             : Parallelization
   Giovanni Bistoni       : ED, misc. LED, open-shell LED, HFLD
   Martin Brehm           : Molecular dynamics
   Dmytro Bykov           : SCF Hessian
   Vijay G. Chilkuri      : MRCI spin determinant printing, contributions to CSF-ICE
   Dipayan Datta          : RHF DLPNO-CCSD density
   Achintya Kumar Dutta   : EOM-CC, STEOM-CC
   Dmitry Ganyushin       : Spin-Orbit,Spin-Spin,Magnetic field MRCI
   Miquel Garcia          : C-PCM and meta-GGA Hessian, CC/C-PCM, Gaussian charge scheme
   Yang Guo               : DLPNO-NEVPT2, F12-NEVPT2, CIM, IAO-localization
   Andreas Hansen         : Spin unrestricted coupled pair/coupled cluster methods
   Benjamin Helmich-Paris : MC-RPA, TRAH-SCF, COSX integrals
   Lee Huntington         : MR-EOM, pCC
   Robert Izsak           : Overlap fitted RIJCOSX, COSX-SCS-MP3, EOM
   Marcus Kettner         : VPT2
   Christian Kollmar      : KDIIS, OOCD, Brueckner-CCSD(T), CCSD density, CASPT2, CASPT2-K
   Simone Kossmann        : Meta GGA functionals, TD-DFT gradient, OOMP2, MP2 Hessian
   Martin Krupicka        : Initial AUTO-CI
   Lucas Lang             : DCDCAS
   Marvin Lechner         : AUTO-CI (C++ implementation), FIC-MRCC
   Dagmar Lenk            : GEPOL surface, SMD
   Dimitrios Liakos       : Extrapolation schemes; Compound Job, initial MDCI parallelization
   Dimitrios Manganas     : Further ROCIS development; embedding schemes
   Dimitrios Pantazis     : SARC Basis sets
   Anastasios Papadopoulos: AUTO-CI, single reference methods and gradients
   Taras Petrenko         : DFT Hessian,TD-DFT gradient, ASA, ECA, R-Raman, ABS, FL, XAS/XES, NRVS
   Peter Pinski           : DLPNO-MP2, DLPNO-MP2 Gradient
   Christoph Reimann      : Effective Core Potentials
   Marius Retegan         : Local ZFS, SOC
   Christoph Riplinger    : Optimizer, TS searches, QM/MM, DLPNO-CCSD(T), (RO)-DLPNO pert. Triples
   Tobias Risthaus        : Range-separated hybrids, TD-DFT gradient, RPA, STAB
   Michael Roemelt        : Original ROCIS implementation
   Masaaki Saitow         : Open-shell DLPNO-CCSD energy and density
   Barbara Sandhoefer     : DKH picture change effects
   Avijit Sen             : IP-ROCIS
   Kantharuban Sivalingam : CASSCF convergence, NEVPT2, FIC-MRCI
   Bernardo de Souza      : ESD, SOC TD-DFT
   Georgi Stoychev        : AutoAux, RI-MP2 NMR, DLPNO-MP2 response
   Willem Van den Heuvel  : Paramagnetic NMR
   Boris Wezisla          : Elementary symmetry handling
   Frank Wennmohs         : Technical directorship


 We gratefully acknowledge several colleagues who have allowed us to
 interface, adapt or use parts of their codes:
   Stefan Grimme, W. Hujo, H. Kruse, P. Pracht,  : VdW corrections, initial TS optimization,
                  C. Bannwarth, S. Ehlert          DFT functionals, gCP, sTDA/sTD-DF
   Ed Valeev, F. Pavosevic, A. Kumar             : LibInt (2-el integral package), F12 methods
   Garnet Chan, S. Sharma, J. Yang, R. Olivares  : DMRG
   Ulf Ekstrom                                   : XCFun DFT Library
   Mihaly Kallay                                 : mrcc  (arbitrary order and MRCC methods)
   Jiri Pittner, Ondrej Demel                    : Mk-CCSD
   Frank Weinhold                                : gennbo (NPA and NBO analysis)
   Christopher J. Cramer and Donald G. Truhlar   : smd solvation model
   Lars Goerigk                                  : TD-DFT with DH, B97 family of functionals
   V. Asgeirsson, H. Jonsson                     : NEB implementation
   FAccTs GmbH                                   : IRC, NEB, NEB-TS, DLPNO-Multilevel, CI-OPT
                                                   MM, QMMM, 2- and 3-layer-ONIOM, Crystal-QMMM,
                                                   LR-CPCM, SF, NACMEs, symmetry and pop. for TD-DFT,
                                                   nearIR, NL-DFT gradient (VV10), updates on ESD,
                                                   ML-optimized integration grids
   S Lehtola, MJT Oliveira, MAL Marques          : LibXC Library
   Liviu Ungur et al                             : ANISO software


 Your calculation uses the libint2 library for the computation of 2-el integrals
 For citations please refer to: http://libint.valeyev.net

 Your ORCA version has been built with support for libXC version: 5.1.0
 For citations please refer to: https://tddft.org/programs/libxc/

 This ORCA versions uses:
   CBLAS   interface :  Fast vector & matrix operations
   LAPACKE interface :  Fast linear algebra routines
   SCALAPACK package :  Parallel linear algebra routines
   Shared memory     :  Shared parallel matrices
   BLAS/LAPACK       :  OpenBLAS 0.3.15  USE64BITINT DYNAMIC_ARCH NO_AFFINITY SkylakeX SINGLE_THREADED
        Core in use  :  SkylakeX
   Copyright (c) 2011-2014, The OpenBLAS Project


Your calculation utilizes the DFT-NL dispersion correction.
Cite in your paper:
Vydrov, O. A.; Van Voorhis, T. J. Chem. Phys. 2010, 133, 244103
Hujo, W.; Grimme, S. J. Chem. Theory Comput. 2011, 7, 3866 
   

================================================================================

----- Orbital basis set information -----
Your calculation utilizes the basis: def2-TZVPP
   F. Weigend and R. Ahlrichs, Phys. Chem. Chem. Phys. 7, 3297 (2005).

----- AuxJ basis set information -----
Your calculation utilizes the auxiliary basis: def2/J
   F. Weigend, Phys. Chem. Chem. Phys. 8, 1057 (2006).

================================================================================
                                        WARNINGS
                       Please study these warnings very carefully!
================================================================================

WARNING: Old DensityContainer found on disk!
         Will remove this file - 
         If you want to keep old densities, please start your calculation with a different basename. 

Using LibXC functional ID 531 : wB97M-V exchange-correlation functional
[ 1]  N. Mardirossian and M. Head-Gordon, J. Chem. Phys. 144, 214110 (2016)
Using LibXC functional ID 531 : wB97M-V exchange-correlation functional
[ 1]  N. Mardirossian and M. Head-Gordon, J. Chem. Phys. 144, 214110 (2016)

WARNING: B97M-V or wB97M-V functional requested.
  ===> : libXC variant has now been activated.
         Any manually given DFX/HFX/RangeSep scaling parameters are IGNORED!

Your calculation utilizes LibXC
 by S Lehtola, C Steigemann, MJT Oliveira & MAL Marques
Please cite in your paper:
 S Lehtola, C Steigemann, MJT Oliveira & MAL Marques, SoftwareX, 7, (2018), 1.
   


WARNING: your system is open-shell and RHF/RKS was chosen
  ===> : WILL SWITCH to UHF/UKS


INFO   : the flag for use of the SHARK integral package has been found!

================================================================================
                                       INPUT FILE
================================================================================
NAME = arbr_25_r2scan3c_wB97MV_ox.inp
|  1> %PAL NPROCS 16 END
|  2> %maxcore 4000
|  3> # arbr_25_r2scan3c.out
|  4> ! wB97m-v def2-TZVPP def2/J RIJCOSX Hirshfeld
|  5> * xyz 1 2
|  6>    C        4.13046        -1.21366         1.26421
|  7>    C        4.15994        -0.36640         0.00008
|  8>    C        5.37245         0.55124         0.00026
|  9>    C        4.13088        -1.21371        -1.26403
| 10>    O        3.04484         0.57506        -0.00013
| 11>    C        1.78171         0.13486        -0.00032
| 12>    O        1.42897        -1.01723        -0.00018
| 13>    N        0.94353         1.22026        -0.00019
| 14>    C       -0.44767         1.23457        -0.00009
| 15>    C       -1.22990         0.07583        -0.00009
| 16>    C       -2.59771         0.25673         0.00001
| 17>   Br       -3.72753        -1.25802         0.00003
| 18>    C       -3.15735         1.52490         0.00011
| 19>    C       -2.27624         2.59264         0.00009
| 20>    N       -0.95556         2.46342        -0.00000
| 21>    H        5.04955        -1.79844         1.32047
| 22>    H        3.28172        -1.89278         1.26730
| 23>    H        4.08007        -0.57131         2.14455
| 24>    H        6.28538        -0.04412         0.00042
| 25>    H        5.36850         1.18656        -0.88558
| 26>    H        5.36821         1.18659         0.88609
| 27>    H        5.05000        -1.79849        -1.31996
| 28>    H        3.28215        -1.89283        -1.26738
| 29>    H        4.08078        -0.57139        -2.14441
| 30>    H        1.36971         2.13474        -0.00017
| 31>    H       -0.77780        -0.90151        -0.00016
| 32>    H       -4.22622         1.67456         0.00018
| 33>    H       -2.65418         3.60884         0.00016
| 34> *
| 35> 
| 36>                          ****END OF INPUT****
================================================================================

                       ****************************
                       * Single Point Calculation *
                       ****************************

---------------------------------
CARTESIAN COORDINATES (ANGSTROEM)
---------------------------------
  C      4.130460   -1.213660    1.264210
  C      4.159940   -0.366400    0.000080
  C      5.372450    0.551240    0.000260
  C      4.130880   -1.213710   -1.264030
  O      3.044840    0.575060   -0.000130
  C      1.781710    0.134860   -0.000320
  O      1.428970   -1.017230   -0.000180
  N      0.943530    1.220260   -0.000190
  C     -0.447670    1.234570   -0.000090
  C     -1.229900    0.075830   -0.000090
  C     -2.597710    0.256730    0.000010
  Br    -3.727530   -1.258020    0.000030
  C     -3.157350    1.524900    0.000110
  C     -2.276240    2.592640    0.000090
  N     -0.955560    2.463420   -0.000000
  H      5.049550   -1.798440    1.320470
  H      3.281720   -1.892780    1.267300
  H      4.080070   -0.571310    2.144550
  H      6.285380   -0.044120    0.000420
  H      5.368500    1.186560   -0.885580
  H      5.368210    1.186590    0.886090
  H      5.050000   -1.798490   -1.319960
  H      3.282150   -1.892830   -1.267380
  H      4.080780   -0.571390   -2.144410
  H      1.369710    2.134740   -0.000170
  H     -0.777800   -0.901510   -0.000160
  H     -4.226220    1.674560    0.000180
  H     -2.654180    3.608840    0.000160

----------------------------
CARTESIAN COORDINATES (A.U.)
----------------------------
  NO LB      ZA    FRAG     MASS         X           Y           Z
   0 C     6.0000    0    12.011    7.805438   -2.293485    2.389011
   1 C     6.0000    0    12.011    7.861147   -0.692396    0.000151
   2 C     6.0000    0    12.011   10.152459    1.041693    0.000491
   3 C     6.0000    0    12.011    7.806232   -2.293580   -2.388671
   4 O     8.0000    0    15.999    5.753914    1.086706   -0.000246
   5 C     6.0000    0    12.011    3.366944    0.254848   -0.000605
   6 O     8.0000    0    15.999    2.700362   -1.922286   -0.000340
   7 N     7.0000    0    14.007    1.783013    2.305957   -0.000359
   8 C     6.0000    0    12.011   -0.845974    2.332999   -0.000170
   9 C     6.0000    0    12.011   -2.324174    0.143298   -0.000170
  10 C     6.0000    0    12.011   -4.908960    0.485149    0.000019
  11 Br   35.0000    0    79.900   -7.044011   -2.377313    0.000057
  12 C     6.0000    0    12.011   -5.966527    2.881643    0.000208
  13 C     6.0000    0    12.011   -4.301470    4.899380    0.000170
  14 N     7.0000    0    14.007   -1.805747    4.655189   -0.000000
  15 H     1.0000    0     1.008    9.542267   -3.398559    2.495327
  16 H     1.0000    0     1.008    6.201552   -3.576836    2.394850
  17 H     1.0000    0     1.008    7.710215   -1.079619    4.052612
  18 H     1.0000    0     1.008   11.877647   -0.083375    0.000794
  19 H     1.0000    0     1.008   10.144995    2.242273   -1.673504
  20 H     1.0000    0     1.008   10.144447    2.242330    1.674467
  21 H     1.0000    0     1.008    9.543117   -3.398654   -2.494363
  22 H     1.0000    0     1.008    6.202365   -3.576930   -2.395001
  23 H     1.0000    0     1.008    7.711557   -1.079771   -4.052348
  24 H     1.0000    0     1.008    2.588377    4.034074   -0.000321
  25 H     1.0000    0     1.008   -1.469829   -1.703607   -0.000302
  26 H     1.0000    0     1.008   -7.986398    3.164460    0.000340
  27 H     1.0000    0     1.008   -5.015673    6.819719    0.000302

--------------------------------
INTERNAL COORDINATES (ANGSTROEM)
--------------------------------
 C      0   0   0     0.000000000000     0.00000000     0.00000000
 C      1   0   0     1.522085160200     0.00000000     0.00000000
 C      2   1   0     1.520606360009   110.56462186     0.00000000
 C      2   1   3     1.522088306177   112.30391624   124.01453212
 O      2   1   3     1.459381713501   110.14618711   247.17671738
 C      5   2   1     1.337637272582   120.61275267   297.79332692
 O      6   5   2     1.204880448551   126.23663747     0.00000000
 N      6   5   2     1.371363879246   108.46303372   179.98679227
 C      8   6   5     1.391273598578   128.26577677   180.01135440
 C      9   8   6     1.398056565558   123.43275592     0.00000000
 C     10   9   8     1.379720629729   116.48814242   180.00029501
 Br    11  10   9     1.889698599063   119.18453711   180.00044457
 C     11  10   9     1.386164524326   121.34568056     0.00000000
 C     13  11  10     1.384349500704   116.65846279     0.00000000
 N     14  13  11     1.326986615946   123.94156439     0.00000000
 H      1   2   3     1.090806703362   108.96149388   301.48680504
 H      1   2   3     1.087001890569   111.42329082   181.38932350
 H      1   2   3     1.090940507177   110.08030044    60.03682434
 H      3   2   1     1.089905840016   109.77113182    62.50400327
 H      3   2   1     1.090119080881   110.40879594   182.38971645
 H      3   2   1     1.090129528542   110.40839992   302.61882385
 H      4   2   1     1.090815010760   108.96116109   294.49836060
 H      4   2   1     1.086994852702   111.42360572    54.59596829
 H      4   2   1     1.090941765999   110.08011058   175.94850392
 H      8   6   5     1.008911821320   117.33636897     0.00000000
 H     10   9   8     1.076841627399   121.15349870     0.00000000
 H     13  11  10     1.079296621601   121.78230584   179.99946573
 H     14  13  11     1.084205279686   120.06927959   179.99971308

---------------------------
INTERNAL COORDINATES (A.U.)
---------------------------
 C      0   0   0     0.000000000000     0.00000000     0.00000000
 C      1   0   0     2.876324105283     0.00000000     0.00000000
 C      2   1   0     2.873529577916   110.56462186     0.00000000
 C      2   1   3     2.876330050318   112.30391624   124.01453212
 O      2   1   3     2.757831763369   110.14618711   247.17671738
 C      5   2   1     2.527768111705   120.61275267   297.79332692
 O      6   5   2     2.276894071877   126.23663747     0.00000000
 N      6   5   2     2.591502161726   108.46303372   179.98679227
 C      8   6   5     2.629126078667   128.26577677   180.01135440
 C      9   8   6     2.641944028635   123.43275592     0.00000000
 C     10   9   8     2.607294131509   116.48814242   180.00029501
 Br    11  10   9     3.571012827883   119.18453711   180.00044457
 C     11  10   9     2.619471327533   121.34568056     0.00000000
 C     13  11  10     2.616041429962   116.65846279     0.00000000
 N     14  13  11     2.507641287517   123.94156439     0.00000000
 H      1   2   3     2.061325934400   108.96149388   301.48680504
 H      1   2   3     2.054135880230   111.42329082   181.38932350
 H      1   2   3     2.061578786966   110.08030044    60.03682434
 H      3   2   1     2.059623549391   109.77113182    62.50400327
 H      3   2   1     2.060026516226   110.40879594   182.38971645
 H      3   2   1     2.060046259446   110.40839992   302.61882385
 H      4   2   1     2.061341633107   108.96116109   294.49836060
 H      4   2   1     2.054122580588   111.42360572    54.59596829
 H      4   2   1     2.061581165794   110.08011058   175.94850392
 H      8   6   5     1.906567035571   117.33636897     0.00000000
 H     10   9   8     2.034935765391   121.15349870     0.00000000
 H     13  11  10     2.039575032093   121.78230584   179.99946573
 H     14  13  11     2.048851051559   120.06927959   179.99971308

---------------------
BASIS SET INFORMATION
---------------------
There are 5 groups of distinct atoms

 Group   1 Type C   : 11s6p2d1f contracted to 5s3p2d1f pattern {62111/411/11/1}
 Group   2 Type O   : 11s6p2d1f contracted to 5s3p2d1f pattern {62111/411/11/1}
 Group   3 Type N   : 11s6p2d1f contracted to 5s3p2d1f pattern {62111/411/11/1}
 Group   4 Type Br  : 17s13p8d1f contracted to 6s5p4d1f pattern {842111/64111/5111/1}
 Group   5 Type H   : 5s2p1d contracted to 3s2p1d pattern {311/11/1}

Atom   0C    basis set group =>   1
Atom   1C    basis set group =>   1
Atom   2C    basis set group =>   1
Atom   3C    basis set group =>   1
Atom   4O    basis set group =>   2
Atom   5C    basis set group =>   1
Atom   6O    basis set group =>   2
Atom   7N    basis set group =>   3
Atom   8C    basis set group =>   1
Atom   9C    basis set group =>   1
Atom  10C    basis set group =>   1
Atom  11Br   basis set group =>   4
Atom  12C    basis set group =>   1
Atom  13C    basis set group =>   1
Atom  14N    basis set group =>   3
Atom  15H    basis set group =>   5
Atom  16H    basis set group =>   5
Atom  17H    basis set group =>   5
Atom  18H    basis set group =>   5
Atom  19H    basis set group =>   5
Atom  20H    basis set group =>   5
Atom  21H    basis set group =>   5
Atom  22H    basis set group =>   5
Atom  23H    basis set group =>   5
Atom  24H    basis set group =>   5
Atom  25H    basis set group =>   5
Atom  26H    basis set group =>   5
Atom  27H    basis set group =>   5
---------------------------------
AUXILIARY/J BASIS SET INFORMATION
---------------------------------
There are 5 groups of distinct atoms

 Group   1 Type C   : 12s5p4d2f1g contracted to 6s4p3d1f1g pattern {711111/2111/211/2/1}
 Group   2 Type O   : 12s5p4d2f1g contracted to 6s4p3d1f1g pattern {711111/2111/211/2/1}
 Group   3 Type N   : 12s5p4d2f1g contracted to 6s4p3d1f1g pattern {711111/2111/211/2/1}
 Group   4 Type Br  : 19s5p5d3f1g contracted to 8s4p3d2f1g pattern {121111111/2111/311/21/1}
 Group   5 Type H   : 5s2p1d contracted to 3s1p1d pattern {311/2/1}

Atom   0C    basis set group =>   1
Atom   1C    basis set group =>   1
Atom   2C    basis set group =>   1
Atom   3C    basis set group =>   1
Atom   4O    basis set group =>   2
Atom   5C    basis set group =>   1
Atom   6O    basis set group =>   2
Atom   7N    basis set group =>   3
Atom   8C    basis set group =>   1
Atom   9C    basis set group =>   1
Atom  10C    basis set group =>   1
Atom  11Br   basis set group =>   4
Atom  12C    basis set group =>   1
Atom  13C    basis set group =>   1
Atom  14N    basis set group =>   3
Atom  15H    basis set group =>   5
Atom  16H    basis set group =>   5
Atom  17H    basis set group =>   5
Atom  18H    basis set group =>   5
Atom  19H    basis set group =>   5
Atom  20H    basis set group =>   5
Atom  21H    basis set group =>   5
Atom  22H    basis set group =>   5
Atom  23H    basis set group =>   5
Atom  24H    basis set group =>   5
Atom  25H    basis set group =>   5
Atom  26H    basis set group =>   5
Atom  27H    basis set group =>   5


           ************************************************************
           *        Program running with 16 parallel MPI-processes    *
           *              working on a common directory               *
           ************************************************************
------------------------------------------------------------------------------
                           ORCA GTO INTEGRAL CALCULATION
                           -- RI-GTO INTEGRALS CHOSEN --
------------------------------------------------------------------------------
------------------------------------------------------------------------------
                   ___                                                        
                  /   \      - P O W E R E D   B Y -                         
                 /     \                                                     
                 |  |  |   _    _      __       _____    __    __             
                 |  |  |  | |  | |    /  \     |  _  \  |  |  /  |          
                  \  \/   | |  | |   /    \    | | | |  |  | /  /          
                 / \  \   | |__| |  /  /\  \   | |_| |  |  |/  /          
                |  |  |   |  __  | /  /__\  \  |    /   |      \           
                |  |  |   | |  | | |   __   |  |    \   |  |\   \          
                \     /   | |  | | |  |  |  |  | |\  \  |  | \   \       
                 \___/    |_|  |_| |__|  |__|  |_| \__\ |__|  \__/        
                                                                              
                      - O R C A' S   B I G   F R I E N D -                    
                                      &                                       
                       - I N T E G R A L  F E E D E R -                       
                                                                              
 v1 FN, 2020, v2 2021                                                         
------------------------------------------------------------------------------


Reading SHARK input file arbr_25_r2scan3c_wB97MV_ox.SHARKINP.tmp ... ok
----------------------
SHARK INTEGRAL PACKAGE
----------------------

Number of atoms                             ...     28
Number of basis functions                   ...    664
Number of shells                            ...    248
Maximum angular momentum                    ...      3
Integral batch strategy                     ... SHARK/LIBINT Hybrid
RI-J (if used) integral strategy            ... SPLIT-RIJ (Revised 2003 algorithm where possible)
Printlevel                                  ...      1
Contraction scheme used                     ... SEGMENTED contraction
Coulomb Range Separation                    ... NOT USED
Exchange Range Separation                   ... Long Range
   Mu parameter                             ...  0.300000
   Scaling (regular/separated)              ...  0.150000  0.850000
Finite Nucleus Model                        ... NOT USED
Auxiliary Coulomb fitting basis             ... AVAILABLE
   # of basis functions in Aux-J            ...    887
   # of shells in Aux-J                     ...    293
   Maximum angular momentum in Aux-J        ...      4
Auxiliary J/K fitting basis                 ... NOT available
Auxiliary Correlation fitting basis         ... NOT available
Auxiliary 'external' fitting basis          ... NOT available
Integral threshold                          ...     1.000000e-10
Primitive cut-off                           ...     1.000000e-11
Primitive pair pre-selection threshold      ...     1.000000e-11

Calculating pre-screening integrals         ... done (  0.1 sec) Dimension = 248
Organizing shell pair data                  ... done (  0.2 sec)
Shell pair information
Total number of shell pairs                 ...     30876
Shell pairs after pre-screening             ...     21532
Total number of primitive shell pairs       ...     90089
Primitive shell pairs kept                  ...     43618
          la=0 lb=0:   4651 shell pairs
          la=1 lb=0:   6093 shell pairs
          la=1 lb=1:   2041 shell pairs
          la=2 lb=0:   3410 shell pairs
          la=2 lb=1:   2267 shell pairs
          la=2 lb=2:    642 shell pairs
          la=3 lb=0:   1171 shell pairs
          la=3 lb=1:    759 shell pairs
          la=3 lb=2:    417 shell pairs
          la=3 lb=3:     81 shell pairs

Calculating one electron integrals          ... done (  0.0 sec)
Calculating RI/J V-Matrix + Cholesky decomp.... done (  0.0 sec)
Calculating Nuclear repulsion               ... done (  0.0 sec) ENN=   1280.317545123008 Eh

SHARK setup successfully completed in   0.6 seconds

Maximum memory used throughout the entire GTOINT-calculation: 36.8 MB


           ************************************************************
           *        Program running with 16 parallel MPI-processes    *
           *              working on a common directory               *
           ************************************************************
-------------------------------------------------------------------------------
                                 ORCA SCF
-------------------------------------------------------------------------------

------------
SCF SETTINGS
------------
Hamiltonian:
 Density Functional     Method          .... DFT(GTOs)
  Functional kind                       .... Exchange-Correlation
  Functional name                       .... wB97M-V exchange-correlation functional
  Functional family                     .... Hybrid MGGA
  Functional refs                              
    [ 0] N. Mardirossian and M. Head-Gordon, J. Chem. Phys. 144, 214110 (2016)
  Fraction of HF Exchange (short range) .... 0.1500
  Fraction of HF Exchange (long range)  .... 1.0000
  Range separation parameter mu         .... 0.3000
  Functional external parameters         .... 0
   Density functional embedding theory  .... OFF
 Long-range corrected/Screened/Range-Separated Hybrid DFT is turned on
   Amount of maximum screened exact exchange              ....  0.850000
   Range separation parameter mu (erf(mu*r12)/r12)        ....  0.300000
   NL short-range parameter             ....  6.000000
   NL long-range parameter              ....  0.010000
 RI-approximation to the Coulomb term is turned on
   Number of AuxJ basis functions       .... 887
   RIJ-COSX (HFX calculated with COS-X)).... on


General Settings:
 Integral files         IntName         .... arbr_25_r2scan3c_wB97MV_ox
 Hartree-Fock type      HFTyp           .... UHF
 Total Charge           Charge          ....    1
 Multiplicity           Mult            ....    2
 Number of Electrons    NEL             ....  137
 Basis Dimension        Dim             ....  664
 Nuclear Repulsion      ENuc            ....   1280.3175451230 Eh

Convergence Acceleration:
 DIIS                   CNVDIIS         .... on
   Start iteration      DIISMaxIt       ....    12
   Startup error        DIISStart       ....  0.200000
   # of expansion vecs  DIISMaxEq       ....     5
   Bias factor          DIISBfac        ....   1.050
   Max. coefficient     DIISMaxC        ....  10.000
 Trust-Rad. Augm. Hess. CNVTRAH         .... auto
   Auto Start mean grad. ratio tolernc. ....  1.125000
   Auto Start start iteration           ....    20
   Auto Start num. interpolation iter.  ....    10
   Max. Number of Micro iterations      ....    16
   Max. Number of Macro iterations      .... Maxiter - #DIIS iter
   Number of Davidson start vectors     ....     2
   Converg. threshold I  (grad. norm)   ....   5.000e-05
   Converg. threshold II (energy diff.) ....   1.000e-06
   Grad. Scal. Fac. for Micro threshold ....   0.100
   Minimum threshold for Micro iter.    ....   0.010
   NR start threshold (gradient norm)   ....   0.001
   Initial trust radius                 ....   0.400
   Minimum AH scaling param. (alpha)    ....   1.000
   Maximum AH scaling param. (alpha)    .... 1000.000
   Orbital update algorithm             .... Taylor
   White noise on init. David. guess    .... on
   Maximum white noise                  ....   0.010
   Quad. conv. algorithm                .... NR
 SOSCF                  CNVSOSCF        .... off
 Level Shifting         CNVShift        .... on
   Level shift para.    LevelShift      ....    0.2500
   Turn off err/grad.   ShiftErr        ....    0.0010
 Zerner damping         CNVZerner       .... off
 Static damping         CNVDamp         .... on
   Fraction old density DampFac         ....    0.7000
   Max. Damping (<1)    DampMax         ....    0.9800
   Min. Damping (>=0)   DampMin         ....    0.0000
   Turn off err/grad.   DampErr         ....    0.1000
 Fernandez-Rico         CNVRico         .... off

SCF Procedure:
 Maximum # iterations   MaxIter         ....   125
 SCF integral mode      SCFMode         .... Direct
   Integral package                     .... SHARK and LIBINT hybrid scheme
 Reset frequency        DirectResetFreq ....    20
 Integral Threshold     Thresh          ....  1.000e-10 Eh
 Primitive CutOff       TCut            ....  1.000e-11 Eh

Convergence Tolerance:
 Convergence Check Mode ConvCheckMode   .... Total+1el-Energy
 Convergence forced     ConvForced      .... 0
 Energy Change          TolE            ....  1.000e-06 Eh
 1-El. energy change                    ....  1.000e-03 Eh
 DIIS Error             TolErr          ....  1.000e-06


Diagonalization of the overlap matrix:
Smallest eigenvalue                        ... 2.509e-05
Time for diagonalization                   ...    0.071 sec
Threshold for overlap eigenvalues          ... 1.000e-08
Number of eigenvalues below threshold      ... 0
Time for construction of square roots      ...    0.039 sec
Total time needed                          ...    0.112 sec

Time for model grid setup =    0.142 sec

------------------------------
INITIAL GUESS: MODEL POTENTIAL
------------------------------
Loading Hartree-Fock densities                     ... done
Calculating cut-offs                               ... done
Initializing the effective Hamiltonian             ... done
Setting up the integral package (SHARK)            ... done
Starting the Coulomb interaction                   ... done (   0.1 sec)
Reading the grid                                   ... done
Mapping shells                                     ... done
Starting the XC term evaluation                    ... done (   0.1 sec)
  promolecular density results
     # of electrons  =    137.992976113
     EX              =   -173.733304662
     EC              =     -5.183021184
     EX+EC           =   -178.916325846
Transforming the Hamiltonian                       ... done (   0.0 sec)
Diagonalizing the Hamiltonian                      ... done (   0.1 sec)
Back transforming the eigenvectors                 ... done (   0.0 sec)
Now organizing SCF variables                       ... done
                      ------------------
                      INITIAL GUESS DONE (   0.5 sec)
                      ------------------
-------------------
DFT GRID GENERATION
-------------------

General Integration Accuracy     IntAcc      ... 4.388
Radial Grid Type                 RadialGrid  ... OptM3 with GC (2021)
Angular Grid (max. ang.)         AngularGrid ... 4 (Lebedev-302)
Angular grid pruning method      GridPruning ... 4 (adaptive)
Weight generation scheme         WeightScheme... Becke
Basis function cutoff            BFCut       ... 1.0000e-10
Integration weight cutoff        WCut        ... 1.0000e-14
Angular grids for H and He will be reduced by one unit
Partially contracted basis set               ... off
Rotationally invariant grid construction     ... off

Total number of grid points                  ...   136826
Total number of batches                      ...     2153
Average number of points per batch           ...       63
Average number of grid points per atom       ...     4887
Time for grid setup =    0.655 sec

--------------------
COSX GRID GENERATION
--------------------

GRIDX 1
-------
General Integration Accuracy     IntAcc      ... 3.816
Radial Grid Type                 RadialGrid  ... OptM3 with GC (2021)
Angular Grid (max. ang.)         AngularGrid ... 1 (Lebedev-50)
Angular grid pruning method      GridPruning ... 4 (adaptive)
Weight generation scheme         WeightScheme... Becke
Basis function cutoff            BFCut       ... 1.0000e-10
Integration weight cutoff        WCut        ... 1.0000e-14
Angular grids for H and He will be reduced by one unit
Partially contracted basis set               ... on
Rotationally invariant grid construction     ... off

Total number of grid points                  ...    17242
Total number of batches                      ...      286
Average number of points per batch           ...       60
Average number of grid points per atom       ...      616
UseSFitting                                  ... on

GRIDX 2
-------
General Integration Accuracy     IntAcc      ... 4.020
Radial Grid Type                 RadialGrid  ... OptM3 with GC (2021)
Angular Grid (max. ang.)         AngularGrid ... 2 (Lebedev-110)
Angular grid pruning method      GridPruning ... 4 (adaptive)
Weight generation scheme         WeightScheme... Becke
Basis function cutoff            BFCut       ... 1.0000e-10
Integration weight cutoff        WCut        ... 1.0000e-14
Angular grids for H and He will be reduced by one unit
Partially contracted basis set               ... on
Rotationally invariant grid construction     ... off

Total number of grid points                  ...    37246
Total number of batches                      ...      596
Average number of points per batch           ...       62
Average number of grid points per atom       ...     1330
UseSFitting                                  ... on

GRIDX 3
-------
General Integration Accuracy     IntAcc      ... 4.338
Radial Grid Type                 RadialGrid  ... OptM3 with GC (2021)
Angular Grid (max. ang.)         AngularGrid ... 3 (Lebedev-194)
Angular grid pruning method      GridPruning ... 4 (adaptive)
Weight generation scheme         WeightScheme... Becke
Basis function cutoff            BFCut       ... 1.0000e-10
Integration weight cutoff        WCut        ... 1.0000e-14
Angular grids for H and He will be reduced by one unit
Partially contracted basis set               ... on
Rotationally invariant grid construction     ... off

Total number of grid points                  ...    81811
Total number of batches                      ...     1294
Average number of points per batch           ...       63
Average number of grid points per atom       ...     2922
UseSFitting                                  ... on

Time for X-Grid setup             =    0.740 sec

--------------
SCF ITERATIONS
--------------
ITER       Energy         Delta-E        Max-DP      RMS-DP      [F,P]     Damp
               ***  Starting incremental Fock matrix formation  ***
  0  -3222.5793699890   0.000000000000 0.02975814  0.00032338  0.1439837 0.7000
  1  -3222.7924083097  -0.213038320750 0.02408976  0.00025747  0.0712478 0.7000
                               ***Turning on DIIS***
  2  -3222.8964168136  -0.104008503869 0.05043577  0.00052997  0.0282206 0.0000
  3  -3223.0599981606  -0.163581346977 0.03035102  0.00017833  0.0325557 0.0000
  4  -3223.0915702597  -0.031572099172 0.00736799  0.00007448  0.0052758 0.0000
  5  -3223.0934390894  -0.001868829687 0.00432775  0.00003914  0.0060495 0.0000
  6  -3223.0943814617  -0.000942372256 0.00536806  0.00002928  0.0053565 0.0000
  7  -3223.0950917517  -0.000710289990 0.00627562  0.00002656  0.0047995 0.0000
  8  -3223.0957678978  -0.000676146093 0.00603145  0.00002366  0.0042129 0.0000
  9  -3223.0963831272  -0.000615229476 0.00528572  0.00002062  0.0037934 0.0000
 10  -3223.0969376673  -0.000554540037 0.00375025  0.00001502  0.0035667 0.0000
 11  -3223.0973720084  -0.000434341081 0.00141022  0.00000674  0.0033539 0.0000
 12  -3223.0975667702  -0.000194761833 0.00041226  0.00000366  0.0031607 0.0000
 13  -3223.0975999797  -0.000033209550 0.00042833  0.00000220  0.0029761 0.0000
 14  -3223.0976568256  -0.000056845863 0.00121713  0.00000552  0.0029227 0.0000
 15  -3223.0978113762  -0.000154550618 0.00130475  0.00000617  0.0029361 0.0000
 16  -3223.0979915939  -0.000180217656 0.00080913  0.00000549  0.0029807 0.0000
 17  -3223.0981583772  -0.000166783317 0.00303316  0.00001809  0.0031233 0.0000
 18  -3223.0986878703  -0.000529493105 0.00278012  0.00001451  0.0034505 0.0000
 19  -3223.0991726056  -0.000484735337 0.00064102  0.00000444  0.0034903 0.0000
               *** Restarting incremental Fock matrix formation ***
                                   *** Resetting DIIS ***

 WARNING: the maximum gradient error descreased on average only by a factor   1.0
          during the last 20 iterations

                      *** Initiating the TRAH-SCF procedure ***


TRAH GRIDX
----------

General Integration Accuracy     IntAcc      ... 3.067
Radial Grid Type                 RadialGrid  ... OptM3 with GC (2021)
Angular Grid (max. ang.)         AngularGrid ... 1 (Lebedev-50)
Angular grid pruning method      GridPruning ... 4 (adaptive)
Weight generation scheme         WeightScheme... Becke
Basis function cutoff            BFCut       ... 1.0000e-10
Integration weight cutoff        WCut        ... 1.0000e-14
Angular grids for H and He will be reduced by one unit
Partially contracted basis set               ... on
Rotationally invariant grid construction     ... off

Total number of grid points                  ...     9256
Total number of batches                      ...      157
Average number of points per batch           ...       58
Average number of grid points per atom       ...      331


TRAH GRID
---------

General Integration Accuracy     IntAcc      ... 3.467
Radial Grid Type                 RadialGrid  ... OptM3 with GC (2021)
Angular Grid (max. ang.)         AngularGrid ... 1 (Lebedev-50)
Angular grid pruning method      GridPruning ... 4 (adaptive)
Weight generation scheme         WeightScheme... Becke
Basis function cutoff            BFCut       ... 1.0000e-10
Integration weight cutoff        WCut        ... 1.0000e-14
Angular grids for H and He will be reduced by one unit
Partially contracted basis set               ... off
Rotationally invariant grid construction     ... off

Total number of grid points                  ...    22484
Total number of batches                      ...      364
Average number of points per batch           ...       61
Average number of grid points per atom       ...      803

 --------------------------------------------------------------------------------------------
   Iter.        energy            ||Error||_2        Shift      TRadius  Mac/Mic        Rej.
 --------------------------------------------------------------------------------------------
    0      -3223.099268046621     1.305681e-02                     0.400 (TRAH MAcro)   No
    0     dE    -3.023374e-04     4.615897e-02    -3.0218e-04      0.023 (TRAH MIcro)
    0     dE    -1.071636e-02     1.011984e-01    -3.9257e-02      0.400 (TRAH MIcro)
    0     dE    -1.211235e-02     1.439473e-02    -4.7716e-02      0.400 (TRAH MIcro)
    0     dE    -1.224917e-02     1.216452e-02    -4.8566e-02      0.400 (TRAH MIcro)
    0     dE    -1.233595e-02     6.082493e-03    -4.9248e-02      0.400 (TRAH MIcro)
    0     dE    -1.235301e-02     3.325280e-03    -4.9427e-02      0.400 (TRAH MIcro)
    0     dE    -1.235737e-02     1.108905e-03    -4.9489e-02      0.400 (TRAH MIcro)
    1      -3223.110084401723     3.324715e-02                     0.480 (TRAH MAcro)   No
    1     dE    -5.709411e-04     5.740429e-02    -5.7077e-04      0.017 (TRAH MIcro)
    1     dE    -1.097341e-02     1.241890e-01    -1.0450e-02      0.480 (TRAH MIcro)
    1     dE    -1.474977e-02     2.657630e-02    -3.1364e-02      0.463 (TRAH MIcro)
    1     dE    -1.544427e-02     1.263617e-02    -3.2046e-02      0.475 (TRAH MIcro)
    1     dE    -1.558358e-02     7.014701e-03    -3.2189e-02      0.477 (TRAH MIcro)
    1     dE    -1.559134e-02     2.441236e-03    -3.2221e-02      0.477 (TRAH MIcro)
    2      -3223.123827368698     4.166442e-02                     0.576 (TRAH MAcro)   No
    2     dE    -7.326543e-04     1.381824e-01    -7.3243e-04      0.018 (TRAH MIcro)
    2     dE    -2.751271e-03     1.469887e-01    -2.7082e-03      0.126 (TRAH MIcro)
    2     dE    -4.717991e-03     9.828720e-02    -4.4062e-03      0.266 (TRAH MIcro)
    2     dE    -5.494663e-03     2.307019e-02    -4.9723e-03      0.324 (TRAH MIcro)
    2     dE    -5.645181e-03     1.734059e-02    -5.0734e-03      0.336 (TRAH MIcro)
    2     dE    -5.690187e-03     3.073335e-03    -5.1037e-03      0.339 (TRAH MIcro)
    3      -3223.129459057728     1.896729e-02                     0.691 (TRAH MAcro)   No
    3     dE    -7.615250e-05     1.333079e-01    -7.6151e-05      0.004 (TRAH MIcro)
    3     dE    -2.735322e-04     2.477027e-02    -2.7344e-04      0.018 (TRAH MIcro)
    3     dE    -3.567017e-04     8.070459e-03    -3.5629e-04      0.034 (TRAH MIcro)
    3     dE    -3.851022e-04     6.362897e-03    -3.8440e-04      0.043 (TRAH MIcro)
    3     dE    -4.030400e-04     3.178082e-03    -4.0202e-04      0.050 (TRAH MIcro)
    3     dE    -4.121065e-04     3.057861e-03    -4.1083e-04      0.056 (TRAH MIcro)
    3     dE    -4.157231e-04     1.389982e-03    -4.1432e-04      0.058 (TRAH MIcro)
    4      -3223.129889833667     1.555699e-03                     0.829 (TRAH MAcro)   No
    4     dE    -1.562937e-08     2.147653e-03    -1.5749e-08      0.000 (TRAH MIcro)
    4     dE    -1.669029e-06     1.292196e-03    -1.6690e-06      0.002 (TRAH MIcro)
    4     dE    -3.283786e-06     1.049044e-03    -3.2837e-06      0.006 (TRAH MIcro)
    4     dE    -4.017312e-06     6.868819e-04    -4.0171e-06      0.008 (TRAH MIcro)
    4     dE    -4.580070e-06     5.018675e-04    -4.5796e-06      0.010 (TRAH MIcro)
    4     dE    -4.715153e-06     1.999910e-04    -4.7147e-06      0.010 (TRAH MIcro)
    4     dE    -4.746065e-06     1.202171e-04    -4.7456e-06      0.010 (TRAH MIcro)
    5      -3223.129894632545     1.320674e-04                           (NR   MAcro)
    5     dE    -1.051542e-08     6.147020e-05                           (NR   MIcro)
    5     dE    -1.602933e-08     5.557781e-05                           (NR   MIcro)
    5     dE    -1.850986e-08     2.934083e-05                           (NR   MIcro)
    5     dE    -1.916700e-08     2.011629e-05                           (NR   MIcro)
    5     dE    -1.945685e-08     1.200981e-05                           (NR   MIcro)
    5     dE    -1.954738e-08     7.942807e-06                           (NR   MIcro)
    5     dE    -1.962091e-08     5.300009e-06                           (NR   MIcro)
    5     dE    -1.964241e-08     3.851106e-06                           (NR   MIcro)
    6      -3223.129894652363     4.033323e-06                           (NR   MAcro)

               *****************************************************
               *                     SUCCESS                       *
               *           SCF CONVERGED AFTER  68 CYCLES          *
               *****************************************************

Old exchange energy                            =    -44.823429593 Eh
New exchange energy                            =    -44.823418357 Eh
Exchange energy change after final integration =      0.000011236 Eh
Total energy after final integration           =  -3223.129883417 Eh
Final COS-X integration done in                =    12.458 sec

------------------
NL GRID GENERATION
------------------

General Integration Accuracy     IntAcc      ... 4.004
Radial Grid Type                 RadialGrid  ... OptM3 with GC (2021)
Angular Grid (max. ang.)         AngularGrid ... 2 (Lebedev-110)
Angular grid pruning method      GridPruning ... 4 (adaptive)
Weight generation scheme         WeightScheme... Becke
Basis function cutoff            BFCut       ... 1.0000e-10
Integration weight cutoff        WCut        ... 1.0000e-14
Angular grids for H and He will be reduced by one unit
Partially contracted basis set               ... off
Rotationally invariant grid construction     ... off

Total number of grid points                  ...    44957
Total number of batches                      ...      715
Average number of points per batch           ...       62
Average number of grid points per atom       ...     1606
Final grid set up in    0.1 sec

-------------------------------------------------------------------------------
                    post-SCF DFT-NL dispersion correction                      
-------------------------------------------------------------------------------

SCF Energy:   -3223.129883417 
NL    Energy:  0.529735462 
SC+NL Energy: -3222.600147955 
NL done in:    0.6 sec
-------------------------------------------------------------------------------

----------------
TOTAL SCF ENERGY
----------------

Total Energy       :        -3222.60014795 Eh          -87691.40817 eV

Components:
Nuclear Repulsion  :         1280.31754512 Eh           34839.21159 eV
Electronic Energy  :        -4502.91769308 Eh         -122530.61976 eV
One Electron Energy:        -6987.26934718 Eh         -190133.26513 eV
Two Electron Energy:         2484.35165410 Eh           67602.64536 eV
Max COSX asymmetry :            0.00000129 Eh               0.00003 eV

Virial components:
Potential Energy   :        -6440.49953253 Eh         -175254.90207 eV
Kinetic Energy     :         3217.89938458 Eh           87563.49390 eV
Virial Ratio       :            2.00146082


DFT components:
N(Alpha)           :       69.000068043840 electrons
N(Beta)            :       68.000059030084 electrons
N(Total)           :      137.000127073924 electrons
NL Energy, E(C,NL) :        0.529735462332 Eh       
E(XC)              :     -136.201449131839 Eh       
DFET-embed. en.    :        0.000000000000 Eh       

---------------
SCF CONVERGENCE
---------------

  Last Energy change         ...   -1.9819e-08  Tolerance :   1.0000e-06
  Last Orbital Gradient      ...    4.0333e-06  Tolerance :   5.0000e-05
  Last Orbital Rotation      ...    3.4454e-04

             **** THE GBW FILE WAS UPDATED (arbr_25_r2scan3c_wB97MV_ox.gbw) ****
             **** DENSITY arbr_25_r2scan3c_wB97MV_ox.scfp WAS UPDATED ****
             **** ENERGY FILE WAS UPDATED (arbr_25_r2scan3c_wB97MV_ox.en.tmp) ****
----------------------
UHF SPIN CONTAMINATION
----------------------

Warning: in a DFT calculation there is little theoretical justification to 
         calculate <S**2> as in Hartree-Fock theory. We will do it anyways
         but you should keep in mind that the values have only limited relevance

Expectation value of <S**2>     :     0.779209
Ideal value S*(S+1) for S=0.5   :     0.750000
Deviation                       :     0.029209

             **** THE GBW FILE WAS UPDATED (arbr_25_r2scan3c_wB97MV_ox.gbw) ****
             **** DENSITY arbr_25_r2scan3c_wB97MV_ox.scfp WAS UPDATED ****
----------------
ORBITAL ENERGIES
----------------
                 SPIN UP ORBITALS
  NO   OCC          E(Eh)            E(eV) 
   0   1.0000    -483.664047    -13161.1678 
   1   1.0000     -62.968753     -1713.4669 
   2   1.0000     -56.655600     -1541.6772 
   3   1.0000     -56.652978     -1541.6059 
   4   1.0000     -56.652975     -1541.6058 
   5   1.0000     -19.526235      -531.3359 
   6   1.0000     -19.483750      -530.1798 
   7   1.0000     -14.779906      -402.1817 
   8   1.0000     -14.707707      -400.2171 
   9   1.0000     -10.675761      -290.5022 
  10   1.0000     -10.653214      -289.8887 
  11   1.0000     -10.602403      -288.5061 
  12   1.0000     -10.591315      -288.2043 
  13   1.0000     -10.575556      -287.7755 
  14   1.0000     -10.570306      -287.6327 
  15   1.0000     -10.536704      -286.7183 
  16   1.0000     -10.440405      -284.0978 
  17   1.0000     -10.440400      -284.0977 
  18   1.0000     -10.439546      -284.0745 
  19   1.0000      -9.051700      -246.3093 
  20   1.0000      -6.838807      -186.0934 
  21   1.0000      -6.826381      -185.7553 
  22   1.0000      -6.825644      -185.7352 
  23   1.0000      -2.919525       -79.4443 
  24   1.0000      -2.916052       -79.3498 
  25   1.0000      -2.915522       -79.3354 
  26   1.0000      -2.905551       -79.0641 
  27   1.0000      -2.905535       -79.0636 
  28   1.0000      -1.411770       -38.4162 
  29   1.0000      -1.324886       -36.0520 
  30   1.0000      -1.313916       -35.7535 
  31   1.0000      -1.256347       -34.1869 
  32   1.0000      -1.160561       -31.5805 
  33   1.0000      -1.105292       -30.0765 
  34   1.0000      -1.059456       -28.8293 
  35   1.0000      -1.057541       -28.7772 
  36   1.0000      -0.987219       -26.8636 
  37   1.0000      -0.946956       -25.7680 
  38   1.0000      -0.927859       -25.2483 
  39   1.0000      -0.927170       -25.2296 
  40   1.0000      -0.907140       -24.6845 
  41   1.0000      -0.864600       -23.5270 
  42   1.0000      -0.827551       -22.5188 
  43   1.0000      -0.807297       -21.9677 
  44   1.0000      -0.800568       -21.7846 
  45   1.0000      -0.784891       -21.3580 
  46   1.0000      -0.763371       -20.7724 
  47   1.0000      -0.745575       -20.2881 
  48   1.0000      -0.733769       -19.9669 
  49   1.0000      -0.720825       -19.6146 
  50   1.0000      -0.695054       -18.9134 
  51   1.0000      -0.684079       -18.6147 
  52   1.0000      -0.678847       -18.4724 
  53   1.0000      -0.661244       -17.9934 
  54   1.0000      -0.648171       -17.6376 
  55   1.0000      -0.642455       -17.4821 
  56   1.0000      -0.613570       -16.6961 
  57   1.0000      -0.608127       -16.5480 
  58   1.0000      -0.598718       -16.2919 
  59   1.0000      -0.586927       -15.9711 
  60   1.0000      -0.581413       -15.8210 
  61   1.0000      -0.574163       -15.6238 
  62   1.0000      -0.572815       -15.5871 
  63   1.0000      -0.571583       -15.5536 
  64   1.0000      -0.548695       -14.9308 
  65   1.0000      -0.541406       -14.7324 
  66   1.0000      -0.532213       -14.4822 
  67   1.0000      -0.531417       -14.4606 
  68   1.0000      -0.523573       -14.2471 
  69   0.0000      -0.145884        -3.9697 
  70   0.0000      -0.142382        -3.8744 
  71   0.0000      -0.074877        -2.0375 
  72   0.0000      -0.043275        -1.1776 
  73   0.0000      -0.031148        -0.8476 
  74   0.0000      -0.008306        -0.2260 
  75   0.0000      -0.004914        -0.1337 
  76   0.0000       0.003715         0.1011 
  77   0.0000       0.020376         0.5545 
  78   0.0000       0.030330         0.8253 
  79   0.0000       0.034810         0.9472 
  80   0.0000       0.037871         1.0305 
  81   0.0000       0.040323         1.0972 
  82   0.0000       0.044346         1.2067 
  83   0.0000       0.060913         1.6575 
  84   0.0000       0.069817         1.8998 
  85   0.0000       0.071899         1.9565 
  86   0.0000       0.078508         2.1363 
  87   0.0000       0.090576         2.4647 
  88   0.0000       0.093565         2.5460 
  89   0.0000       0.094308         2.5662 
  90   0.0000       0.105302         2.8654 
  91   0.0000       0.115415         3.1406 
  92   0.0000       0.119065         3.2399 
  93   0.0000       0.125071         3.4033 
  94   0.0000       0.129364         3.5202 
  95   0.0000       0.129800         3.5320 
  96   0.0000       0.131915         3.5896 
  97   0.0000       0.140191         3.8148 
  98   0.0000       0.144415         3.9297 
  99   0.0000       0.145501         3.9593 
 100   0.0000       0.154223         4.1966 
 101   0.0000       0.156045         4.2462 
 102   0.0000       0.160561         4.3691 
 103   0.0000       0.168714         4.5909 
 104   0.0000       0.173438         4.7195 
 105   0.0000       0.176952         4.8151 
 106   0.0000       0.186761         5.0820 
 107   0.0000       0.202596         5.5129 
 108   0.0000       0.207335         5.6419 
 109   0.0000       0.215552         5.8655 
 110   0.0000       0.222995         6.0680 
 111   0.0000       0.226629         6.1669 
 112   0.0000       0.229774         6.2525 
 113   0.0000       0.232445         6.3251 
 114   0.0000       0.242623         6.6021 
 115   0.0000       0.252023         6.8579 
 116   0.0000       0.256153         6.9703 
 117   0.0000       0.264552         7.1988 
 118   0.0000       0.270247         7.3538 
 119   0.0000       0.273585         7.4446 
 120   0.0000       0.286248         7.7892 
 121   0.0000       0.289341         7.8734 
 122   0.0000       0.294030         8.0010 
 123   0.0000       0.295717         8.0469 
 124   0.0000       0.299410         8.1474 
 125   0.0000       0.310889         8.4597 
 126   0.0000       0.322813         8.7842 
 127   0.0000       0.325655         8.8615 
 128   0.0000       0.330223         8.9858 
 129   0.0000       0.337595         9.1864 
 130   0.0000       0.341807         9.3010 
 131   0.0000       0.357663         9.7325 
 132   0.0000       0.364179         9.9098 
 133   0.0000       0.381213        10.3733 
 134   0.0000       0.382404        10.4057 
 135   0.0000       0.386116        10.5067 
 136   0.0000       0.386698        10.5226 
 137   0.0000       0.390401        10.6233 
 138   0.0000       0.395276        10.7560 
 139   0.0000       0.402070        10.9409 
 140   0.0000       0.410849        11.1798 
 141   0.0000       0.417784        11.3685 
 142   0.0000       0.422836        11.5059 
 143   0.0000       0.426496        11.6055 
 144   0.0000       0.428359        11.6562 
 145   0.0000       0.433622        11.7995 
 146   0.0000       0.445312        12.1176 
 147   0.0000       0.447106        12.1664 
 148   0.0000       0.448883        12.2147 
 149   0.0000       0.456736        12.4284 
 150   0.0000       0.463683        12.6175 
 151   0.0000       0.474305        12.9065 
 152   0.0000       0.477324        12.9886 
 153   0.0000       0.483048        13.1444 
 154   0.0000       0.484533        13.1848 
 155   0.0000       0.508394        13.8341 
 156   0.0000       0.511789        13.9265 
 157   0.0000       0.521272        14.1845 
 158   0.0000       0.522720        14.2239 
 159   0.0000       0.531478        14.4622 
 160   0.0000       0.538432        14.6515 
 161   0.0000       0.547027        14.8854 
 162   0.0000       0.548142        14.9157 
 163   0.0000       0.560737        15.2584 
 164   0.0000       0.580203        15.7881 
 165   0.0000       0.583128        15.8677 
 166   0.0000       0.597741        16.2653 
 167   0.0000       0.603212        16.4142 
 168   0.0000       0.609201        16.5772 
 169   0.0000       0.613245        16.6872 
 170   0.0000       0.617031        16.7903 
 171   0.0000       0.634705        17.2712 
 172   0.0000       0.643989        17.5238 
 173   0.0000       0.657275        17.8854 
 174   0.0000       0.660372        17.9696 
 175   0.0000       0.672604        18.3025 
 176   0.0000       0.686041        18.6681 
 177   0.0000       0.693212        18.8632 
 178   0.0000       0.701470        19.0880 
 179   0.0000       0.703258        19.1366 
 180   0.0000       0.721204        19.6250 
 181   0.0000       0.724022        19.7016 
 182   0.0000       0.740135        20.1401 
 183   0.0000       0.753278        20.4977 
 184   0.0000       0.754675        20.5357 
 185   0.0000       0.763686        20.7809 
 186   0.0000       0.769974        20.9521 
 187   0.0000       0.788022        21.4432 
 188   0.0000       0.788258        21.4496 
 189   0.0000       0.802933        21.8489 
 190   0.0000       0.816728        22.2243 
 191   0.0000       0.827080        22.5060 
 192   0.0000       0.828824        22.5535 
 193   0.0000       0.860879        23.4257 
 194   0.0000       0.875664        23.8280 
 195   0.0000       0.882658        24.0184 
 196   0.0000       0.887457        24.1489 
 197   0.0000       0.896924        24.4066 
 198   0.0000       0.898476        24.4488 
 199   0.0000       0.906040        24.6546 
 200   0.0000       0.909686        24.7538 
 201   0.0000       0.916706        24.9448 
 202   0.0000       0.919292        25.0152 
 203   0.0000       0.942157        25.6374 
 204   0.0000       0.945683        25.7333 
 205   0.0000       0.948484        25.8096 
 206   0.0000       0.971536        26.4368 
 207   0.0000       0.971577        26.4379 
 208   0.0000       0.980790        26.6887 
 209   0.0000       0.984319        26.7847 
 210   0.0000       0.996547        27.1174 
 211   0.0000       1.009204        27.4618 
 212   0.0000       1.016684        27.6654 
 213   0.0000       1.023007        27.8374 
 214   0.0000       1.023427        27.8489 
 215   0.0000       1.037946        28.2439 
 216   0.0000       1.066779        29.0285 
 217   0.0000       1.069415        29.1003 
 218   0.0000       1.077870        29.3303 
 219   0.0000       1.078730        29.3537 
 220   0.0000       1.093735        29.7621 
 221   0.0000       1.097048        29.8522 
 222   0.0000       1.125288        30.6207 
 223   0.0000       1.131899        30.8005 
 224   0.0000       1.138172        30.9712 
 225   0.0000       1.142980        31.1021 
 226   0.0000       1.150045        31.2943 
 227   0.0000       1.159424        31.5495 
 228   0.0000       1.160863        31.5887 
 229   0.0000       1.171305        31.8728 
 230   0.0000       1.176073        32.0026 
 231   0.0000       1.182984        32.1906 
 232   0.0000       1.186073        32.2747 
 233   0.0000       1.208067        32.8732 
 234   0.0000       1.212526        32.9945 
 235   0.0000       1.221657        33.2430 
 236   0.0000       1.228175        33.4203 
 237   0.0000       1.234447        33.5910 
 238   0.0000       1.245200        33.8836 
 239   0.0000       1.268122        34.5074 
 240   0.0000       1.281955        34.8838 
 241   0.0000       1.286164        34.9983 
 242   0.0000       1.300350        35.3843 
 243   0.0000       1.304160        35.4880 
 244   0.0000       1.310216        35.6528 
 245   0.0000       1.320672        35.9373 
 246   0.0000       1.322663        35.9915 
 247   0.0000       1.330208        36.1968 
 248   0.0000       1.333061        36.2744 
 249   0.0000       1.340882        36.4873 
 250   0.0000       1.342029        36.5185 
 251   0.0000       1.355946        36.8972 
 252   0.0000       1.360079        37.0096 
 253   0.0000       1.366166        37.1753 
 254   0.0000       1.371839        37.3296 
 255   0.0000       1.379382        37.5349 
 256   0.0000       1.384079        37.6627 
 257   0.0000       1.388021        37.7700 
 258   0.0000       1.394928        37.9579 
 259   0.0000       1.419907        38.6376 
 260   0.0000       1.420110        38.6432 
 261   0.0000       1.434544        39.0359 
 262   0.0000       1.445587        39.3364 
 263   0.0000       1.451082        39.4859 
 264   0.0000       1.458410        39.6854 
 265   0.0000       1.463288        39.8181 
 266   0.0000       1.463562        39.8255 
 267   0.0000       1.468023        39.9469 
 268   0.0000       1.483701        40.3736 
 269   0.0000       1.490092        40.5475 
 270   0.0000       1.496819        40.7305 
 271   0.0000       1.505501        40.9668 
 272   0.0000       1.507521        41.0217 
 273   0.0000       1.516388        41.2630 
 274   0.0000       1.519284        41.3418 
 275   0.0000       1.522681        41.4342 
 276   0.0000       1.527595        41.5680 
 277   0.0000       1.540988        41.9324 
 278   0.0000       1.550164        42.1821 
 279   0.0000       1.558148        42.3994 
 280   0.0000       1.560947        42.4755 
 281   0.0000       1.563042        42.5325 
 282   0.0000       1.572584        42.7922 
 283   0.0000       1.588928        43.2369 
 284   0.0000       1.591275        43.3008 
 285   0.0000       1.598750        43.5042 
 286   0.0000       1.600986        43.5651 
 287   0.0000       1.602389        43.6032 
 288   0.0000       1.630557        44.3697 
 289   0.0000       1.635790        44.5121 
 290   0.0000       1.640398        44.6375 
 291   0.0000       1.655581        45.0506 
 292   0.0000       1.662590        45.2414 
 293   0.0000       1.672735        45.5174 
 294   0.0000       1.688112        45.9359 
 295   0.0000       1.699864        46.2557 
 296   0.0000       1.711378        46.5690 
 297   0.0000       1.719249        46.7832 
 298   0.0000       1.734823        47.2069 
 299   0.0000       1.752370        47.6844 
 300   0.0000       1.752816        47.6965 
 301   0.0000       1.763936        47.9991 
 302   0.0000       1.797743        48.9191 
 303   0.0000       1.803066        49.0639 
 304   0.0000       1.832637        49.8686 
 305   0.0000       1.850592        50.3572 
 306   0.0000       1.867930        50.8290 
 307   0.0000       1.881903        51.2092 
 308   0.0000       1.888164        51.3795 
 309   0.0000       1.925120        52.3852 
 310   0.0000       1.941262        52.8244 
 311   0.0000       1.959200        53.3125 
 312   0.0000       1.973974        53.7146 
 313   0.0000       1.976620        53.7866 
 314   0.0000       1.977097        53.7996 
 315   0.0000       1.983975        53.9867 
 316   0.0000       2.013944        54.8022 
 317   0.0000       2.033325        55.3296 
 318   0.0000       2.055764        55.9402 
 319   0.0000       2.071713        56.3742 
 320   0.0000       2.074662        56.4544 
 321   0.0000       2.076200        56.4963 
 322   0.0000       2.095737        57.0279 
 323   0.0000       2.113557        57.5128 
 324   0.0000       2.134722        58.0887 
 325   0.0000       2.158539        58.7368 
 326   0.0000       2.183975        59.4290 
 327   0.0000       2.197756        59.8040 
 328   0.0000       2.202264        59.9266 
 329   0.0000       2.211551        60.1794 
 330   0.0000       2.217775        60.3487 
 331   0.0000       2.234652        60.8080 
 332   0.0000       2.253788        61.3287 
 333   0.0000       2.274861        61.9021 
 334   0.0000       2.291049        62.3426 
 335   0.0000       2.333225        63.4903 
 336   0.0000       2.336396        63.5766 
 337   0.0000       2.368000        64.4366 
 338   0.0000       2.402683        65.3803 
 339   0.0000       2.404510        65.4301 
 340   0.0000       2.426313        66.0233 
 341   0.0000       2.443406        66.4885 
 342   0.0000       2.445982        66.5586 
 343   0.0000       2.449378        66.6510 
 344   0.0000       2.457729        66.8782 
 345   0.0000       2.469402        67.1958 
 346   0.0000       2.487979        67.7013 
 347   0.0000       2.523398        68.6652 
 348   0.0000       2.523982        68.6810 
 349   0.0000       2.534386        68.9642 
 350   0.0000       2.537703        69.0544 
 351   0.0000       2.548602        69.3510 
 352   0.0000       2.578852        70.1741 
 353   0.0000       2.584682        70.3328 
 354   0.0000       2.600127        70.7530 
 355   0.0000       2.601105        70.7797 
 356   0.0000       2.608899        70.9917 
 357   0.0000       2.625251        71.4367 
 358   0.0000       2.646671        72.0196 
 359   0.0000       2.656291        72.2814 
 360   0.0000       2.659919        72.3801 
 361   0.0000       2.690434        73.2104 
 362   0.0000       2.693683        73.2988 
 363   0.0000       2.700234        73.4771 
 364   0.0000       2.706983        73.6608 
 365   0.0000       2.709871        73.7393 
 366   0.0000       2.719731        74.0076 
 367   0.0000       2.750670        74.8495 
 368   0.0000       2.763624        75.2020 
 369   0.0000       2.769267        75.3556 
 370   0.0000       2.781633        75.6921 
 371   0.0000       2.782651        75.7198 
 372   0.0000       2.787581        75.8539 
 373   0.0000       2.793678        76.0198 
 374   0.0000       2.811188        76.4963 
 375   0.0000       2.815446        76.6122 
 376   0.0000       2.818135        76.6854 
 377   0.0000       2.830945        77.0339 
 378   0.0000       2.834611        77.1337 
 379   0.0000       2.839003        77.2532 
 380   0.0000       2.856022        77.7163 
 381   0.0000       2.874530        78.2199 
 382   0.0000       2.880794        78.3904 
 383   0.0000       2.883047        78.4517 
 384   0.0000       2.890106        78.6438 
 385   0.0000       2.893458        78.7350 
 386   0.0000       2.899220        78.8918 
 387   0.0000       2.910106        79.1880 
 388   0.0000       2.929487        79.7154 
 389   0.0000       2.944070        80.1122 
 390   0.0000       2.948626        80.2362 
 391   0.0000       2.954254        80.3893 
 392   0.0000       2.967842        80.7591 
 393   0.0000       2.972746        80.8925 
 394   0.0000       2.976941        81.0067 
 395   0.0000       2.979308        81.0711 
 396   0.0000       3.004268        81.7503 
 397   0.0000       3.010496        81.9198 
 398   0.0000       3.016604        82.0860 
 399   0.0000       3.019838        82.1740 
 400   0.0000       3.033051        82.5335 
 401   0.0000       3.034431        82.5711 
 402   0.0000       3.046591        82.9019 
 403   0.0000       3.066627        83.4472 
 404   0.0000       3.067671        83.4756 
 405   0.0000       3.068184        83.4895 
 406   0.0000       3.085471        83.9599 
 407   0.0000       3.090793        84.1047 
 408   0.0000       3.107894        84.5701 
 409   0.0000       3.119893        84.8966 
 410   0.0000       3.127695        85.1089 
 411   0.0000       3.128986        85.1440 
 412   0.0000       3.138150        85.3934 
 413   0.0000       3.142840        85.5210 
 414   0.0000       3.153342        85.8068 
 415   0.0000       3.168219        86.2116 
 416   0.0000       3.168974        86.2322 
 417   0.0000       3.185278        86.6758 
 418   0.0000       3.196807        86.9895 
 419   0.0000       3.202156        87.1351 
 420   0.0000       3.228634        87.8556 
 421   0.0000       3.230430        87.9045 
 422   0.0000       3.235357        88.0385 
 423   0.0000       3.258675        88.6731 
 424   0.0000       3.260404        88.7201 
 425   0.0000       3.269215        88.9599 
 426   0.0000       3.272886        89.0597 
 427   0.0000       3.283386        89.3455 
 428   0.0000       3.285055        89.3909 
 429   0.0000       3.296067        89.6905 
 430   0.0000       3.310372        90.0798 
 431   0.0000       3.315705        90.2249 
 432   0.0000       3.327134        90.5359 
 433   0.0000       3.340031        90.8869 
 434   0.0000       3.344707        91.0141 
 435   0.0000       3.357294        91.3566 
 436   0.0000       3.364781        91.5603 
 437   0.0000       3.370716        91.7218 
 438   0.0000       3.371817        91.7518 
 439   0.0000       3.374726        91.8310 
 440   0.0000       3.386536        92.1523 
 441   0.0000       3.395733        92.4026 
 442   0.0000       3.402523        92.5874 
 443   0.0000       3.416832        92.9767 
 444   0.0000       3.428387        93.2912 
 445   0.0000       3.445337        93.7524 
 446   0.0000       3.448754        93.8454 
 447   0.0000       3.462485        94.2190 
 448   0.0000       3.471225        94.4568 
 449   0.0000       3.474893        94.5566 
 450   0.0000       3.492819        95.0444 
 451   0.0000       3.508543        95.4723 
 452   0.0000       3.511057        95.5407 
 453   0.0000       3.526029        95.9481 
 454   0.0000       3.533926        96.1630 
 455   0.0000       3.567023        97.0636 
 456   0.0000       3.578276        97.3698 
 457   0.0000       3.582602        97.4875 
 458   0.0000       3.597576        97.8950 
 459   0.0000       3.598360        97.9163 
 460   0.0000       3.620585        98.5211 
 461   0.0000       3.632822        98.8541 
 462   0.0000       3.636498        98.9541 
 463   0.0000       3.658663        99.5573 
 464   0.0000       3.663833        99.6980 
 465   0.0000       3.672905        99.9448 
 466   0.0000       3.679097       100.1133 
 467   0.0000       3.698847       100.6508 
 468   0.0000       3.701200       100.7148 
 469   0.0000       3.704364       100.8009 
 470   0.0000       3.706095       100.8480 
 471   0.0000       3.715809       101.1123 
 472   0.0000       3.734217       101.6132 
 473   0.0000       3.748802       102.0101 
 474   0.0000       3.752575       102.1127 
 475   0.0000       3.754994       102.1786 
 476   0.0000       3.755092       102.1813 
 477   0.0000       3.760032       102.3157 
 478   0.0000       3.777305       102.7857 
 479   0.0000       3.805941       103.5649 
 480   0.0000       3.835640       104.3731 
 481   0.0000       3.835795       104.3773 
 482   0.0000       3.847265       104.6894 
 483   0.0000       3.882683       105.6532 
 484   0.0000       3.884151       105.6931 
 485   0.0000       3.898824       106.0924 
 486   0.0000       3.909335       106.3784 
 487   0.0000       3.920510       106.6825 
 488   0.0000       3.928612       106.9030 
 489   0.0000       3.928783       106.9076 
 490   0.0000       3.934735       107.0696 
 491   0.0000       3.950320       107.4937 
 492   0.0000       3.957475       107.6884 
 493   0.0000       3.972306       108.0920 
 494   0.0000       3.975349       108.1747 
 495   0.0000       3.990303       108.5817 
 496   0.0000       4.001919       108.8977 
 497   0.0000       4.006055       109.0103 
 498   0.0000       4.013539       109.2139 
 499   0.0000       4.024685       109.5172 
 500   0.0000       4.040417       109.9453 
 501   0.0000       4.042215       109.9943 
 502   0.0000       4.043557       110.0308 
 503   0.0000       4.062930       110.5579 
 504   0.0000       4.065984       110.6411 
 505   0.0000       4.079499       111.0088 
 506   0.0000       4.098739       111.5324 
 507   0.0000       4.103160       111.6527 
 508   0.0000       4.103305       111.6566 
 509   0.0000       4.116196       112.0074 
 510   0.0000       4.125721       112.2666 
 511   0.0000       4.127726       112.3211 
 512   0.0000       4.140313       112.6637 
 513   0.0000       4.150934       112.9527 
 514   0.0000       4.151508       112.9683 
 515   0.0000       4.167926       113.4150 
 516   0.0000       4.170956       113.4975 
 517   0.0000       4.187164       113.9385 
 518   0.0000       4.191760       114.0636 
 519   0.0000       4.214818       114.6910 
 520   0.0000       4.227565       115.0379 
 521   0.0000       4.241330       115.4125 
 522   0.0000       4.243010       115.4582 
 523   0.0000       4.255042       115.7856 
 524   0.0000       4.260887       115.9446 
 525   0.0000       4.272032       116.2479 
 526   0.0000       4.298505       116.9683 
 527   0.0000       4.321365       117.5903 
 528   0.0000       4.329297       117.8062 
 529   0.0000       4.342319       118.1605 
 530   0.0000       4.347154       118.2921 
 531   0.0000       4.348367       118.3251 
 532   0.0000       4.366519       118.8190 
 533   0.0000       4.380840       119.2087 
 534   0.0000       4.404632       119.8561 
 535   0.0000       4.422855       120.3520 
 536   0.0000       4.450037       121.0917 
 537   0.0000       4.471995       121.6892 
 538   0.0000       4.479955       121.9058 
 539   0.0000       4.484033       122.0167 
 540   0.0000       4.496771       122.3634 
 541   0.0000       4.546544       123.7178 
 542   0.0000       4.556563       123.9904 
 543   0.0000       4.564786       124.2141 
 544   0.0000       4.566927       124.2724 
 545   0.0000       4.568468       124.3143 
 546   0.0000       4.570255       124.3630 
 547   0.0000       4.578856       124.5970 
 548   0.0000       4.588523       124.8601 
 549   0.0000       4.598158       125.1222 
 550   0.0000       4.618364       125.6721 
 551   0.0000       4.629496       125.9750 
 552   0.0000       4.640729       126.2807 
 553   0.0000       4.658349       126.7601 
 554   0.0000       4.661130       126.8358 
 555   0.0000       4.686834       127.5352 
 556   0.0000       4.704863       128.0258 
 557   0.0000       4.706784       128.0781 
 558   0.0000       4.709476       128.1514 
 559   0.0000       4.716999       128.3561 
 560   0.0000       4.739927       128.9800 
 561   0.0000       4.743132       129.0672 
 562   0.0000       4.756790       129.4388 
 563   0.0000       4.776848       129.9846 
 564   0.0000       4.784453       130.1916 
 565   0.0000       4.794940       130.4770 
 566   0.0000       4.812397       130.9520 
 567   0.0000       4.815600       131.0391 
 568   0.0000       4.853610       132.0734 
 569   0.0000       4.929439       134.1368 
 570   0.0000       4.940972       134.4507 
 571   0.0000       4.947481       134.6278 
 572   0.0000       4.956828       134.8821 
 573   0.0000       4.975281       135.3843 
 574   0.0000       5.003045       136.1398 
 575   0.0000       5.008881       136.2986 
 576   0.0000       5.054694       137.5452 
 577   0.0000       5.060024       137.6903 
 578   0.0000       5.081934       138.2864 
 579   0.0000       5.088797       138.4732 
 580   0.0000       5.106168       138.9459 
 581   0.0000       5.136940       139.7833 
 582   0.0000       5.138110       139.8151 
 583   0.0000       5.147166       140.0615 
 584   0.0000       5.171045       140.7113 
 585   0.0000       5.178540       140.9152 
 586   0.0000       5.182590       141.0255 
 587   0.0000       5.189508       141.2137 
 588   0.0000       5.191269       141.2616 
 589   0.0000       5.209126       141.7475 
 590   0.0000       5.210008       141.7715 
 591   0.0000       5.230048       142.3168 
 592   0.0000       5.238993       142.5602 
 593   0.0000       5.246377       142.7612 
 594   0.0000       5.259917       143.1296 
 595   0.0000       5.266903       143.3197 
 596   0.0000       5.281799       143.7251 
 597   0.0000       5.289996       143.9481 
 598   0.0000       5.299072       144.1951 
 599   0.0000       5.310266       144.4997 
 600   0.0000       5.319827       144.7598 
 601   0.0000       5.342033       145.3641 
 602   0.0000       5.356660       145.7621 
 603   0.0000       5.361861       145.9037 
 604   0.0000       5.372847       146.2026 
 605   0.0000       5.411858       147.2642 
 606   0.0000       5.419163       147.4629 
 607   0.0000       5.435640       147.9113 
 608   0.0000       5.459034       148.5479 
 609   0.0000       5.477953       149.0627 
 610   0.0000       5.488119       149.3393 
 611   0.0000       5.494953       149.5253 
 612   0.0000       5.517347       150.1346 
 613   0.0000       5.521151       150.2381 
 614   0.0000       5.567671       151.5040 
 615   0.0000       5.570319       151.5761 
 616   0.0000       5.596935       152.3004 
 617   0.0000       5.614860       152.7881 
 618   0.0000       5.629492       153.1863 
 619   0.0000       5.630075       153.2021 
 620   0.0000       5.640092       153.4747 
 621   0.0000       5.670612       154.3052 
 622   0.0000       5.691346       154.8694 
 623   0.0000       5.707681       155.3139 
 624   0.0000       5.729353       155.9036 
 625   0.0000       5.789083       157.5290 
 626   0.0000       5.831621       158.6865 
 627   0.0000       5.881222       160.0362 
 628   0.0000       5.885222       160.1450 
 629   0.0000       6.034872       164.2172 
 630   0.0000       6.037949       164.3010 
 631   0.0000       6.123874       166.6391 
 632   0.0000       6.197456       168.6413 
 633   0.0000       6.292101       171.2168 
 634   0.0000       6.333198       172.3351 
 635   0.0000       6.410568       174.4404 
 636   0.0000       6.421088       174.7267 
 637   0.0000       6.451190       175.5458 
 638   0.0000       6.598261       179.5478 
 639   0.0000       6.616865       180.0540 
 640   0.0000       6.700613       182.3329 
 641   0.0000       6.741056       183.4335 
 642   0.0000       6.771783       184.2696 
 643   0.0000       6.965898       189.5517 
 644   0.0000       7.036896       191.4837 
 645   0.0000       7.094287       193.0454 
 646   0.0000       7.230486       196.7515 
 647   0.0000       7.488149       203.7629 
 648   0.0000       7.508307       204.3114 
 649   0.0000       7.756857       211.0748 
 650   0.0000      22.828724       621.2012 
 651   0.0000      22.952846       624.5787 
 652   0.0000      23.189873       631.0285 
 653   0.0000      23.248047       632.6115 
 654   0.0000      23.455831       638.2656 
 655   0.0000      23.637580       643.2113 
 656   0.0000      23.808187       647.8537 
 657   0.0000      23.853601       649.0895 
 658   0.0000      23.863751       649.3657 
 659   0.0000      24.055810       654.5919 
 660   0.0000      32.781605       892.0328 
 661   0.0000      33.277254       905.5201 
[...]
      dx2y2   :     0.000004
      dxy     :     0.000111
      f0      :    -0.000002  f :    -0.000001
      f+1     :    -0.000001
      f-1     :     0.000002
      f+2     :     0.000002
      f-2     :    -0.000002
      f+3     :    -0.000001
      f-3     :     0.000000
  1 C s       :    -0.000098  s :    -0.000098
      pz      :     0.000764  p :    -0.000118
      px      :    -0.000533
      py      :    -0.000349
      dz2     :     0.000037  d :     0.001484
      dxz     :     0.000184
      dyz     :     0.001211
      dx2y2   :     0.000004
      dxy     :     0.000048
      f0      :     0.000105  f :     0.000375
      f+1     :     0.000002
      f-1     :     0.000007
      f+2     :     0.000035
      f-2     :     0.000209
      f+3     :     0.000006
      f-3     :     0.000012
  2 C s       :    -0.000011  s :    -0.000011
      pz      :     0.000014  p :    -0.000009
      px      :    -0.000020
      py      :    -0.000002
      dz2     :    -0.000008  d :    -0.000061
      dxz     :    -0.000023
      dyz     :     0.000031
      dx2y2   :    -0.000048
      dxy     :    -0.000012
      f0      :     0.000000  f :    -0.000002
      f+1     :    -0.000000
      f-1     :    -0.000000
      f+2     :    -0.000002
      f-2     :     0.000007
      f+3     :    -0.000006
      f-3     :    -0.000001
  3 C s       :     0.000208  s :     0.000208
      pz      :     0.000761  p :     0.001403
      px      :     0.000319
      py      :     0.000323
      dz2     :    -0.000025  d :     0.000062
      dxz     :    -0.000011
      dyz     :    -0.000016
      dx2y2   :     0.000004
      dxy     :     0.000110
      f0      :    -0.000002  f :    -0.000001
      f+1     :    -0.000001
      f-1     :     0.000002
      f+2     :     0.000002
      f-2     :    -0.000002
      f+3     :    -0.000001
      f-3     :     0.000000
  4 O s       :     0.000270  s :     0.000270
      pz      :     0.022171  p :     0.022920
      px      :     0.000378
      py      :     0.000371
      dz2     :    -0.000025  d :    -0.000714
      dxz     :    -0.000455
      dyz     :    -0.000032
      dx2y2   :    -0.000098
      dxy     :    -0.000105
      f0      :    -0.000000  f :    -0.000030
      f+1     :    -0.000006
      f-1     :    -0.000002
      f+2     :    -0.000004
      f-2     :    -0.000005
      f+3     :    -0.000008
      f-3     :    -0.000003
  5 C s       :    -0.001838  s :    -0.001838
      pz      :    -0.016129  p :    -0.021260
      px      :    -0.002247
      py      :    -0.002884
      dz2     :     0.000137  d :     0.029109
      dxz     :     0.007230
      dyz     :     0.020944
      dx2y2   :     0.000217
      dxy     :     0.000581
      f0      :     0.000529  f :     0.005845
      f+1     :     0.000036
      f-1     :     0.000031
      f+2     :     0.000259
      f-2     :     0.004643
      f+3     :     0.000156
      f-3     :     0.000191
  6 O s       :     0.000349  s :     0.000349
      pz      :     0.042342  p :     0.042513
      px      :     0.000046
      py      :     0.000125
      dz2     :    -0.000002  d :    -0.000846
      dxz     :    -0.000026
      dyz     :    -0.000616
      dx2y2   :    -0.000104
      dxy     :    -0.000098
      f0      :    -0.000029  f :    -0.000095
      f+1     :    -0.000002
      f-1     :    -0.000011
      f+2     :    -0.000020
      f-2     :    -0.000011
      f+3     :    -0.000011
      f-3     :    -0.000011
  7 N s       :     0.005176  s :     0.005176
      pz      :     0.233644  p :     0.244552
      px      :     0.005464
      py      :     0.005445
      dz2     :    -0.000332  d :    -0.000860
      dxz     :     0.001393
      dyz     :    -0.000506
      dx2y2   :    -0.000691
      dxy     :    -0.000725
      f0      :     0.000404  f :     0.000127
      f+1     :    -0.000106
      f-1     :    -0.000097
      f+2     :     0.000041
      f-2     :    -0.000029
      f+3     :    -0.000062
      f-3     :    -0.000024
  8 C s       :    -0.000643  s :    -0.000643
      pz      :     0.060048  p :     0.054629
      px      :    -0.003550
      py      :    -0.001869
      dz2     :    -0.000014  d :     0.043032
      dxz     :     0.031884
      dyz     :     0.008889
      dx2y2   :     0.001331
      dxy     :     0.000942
      f0      :     0.000430  f :     0.006680
      f+1     :    -0.000016
      f-1     :    -0.000017
      f+2     :     0.004854
      f-2     :     0.001016
      f+3     :     0.000154
      f-3     :     0.000259
  9 C s       :     0.003267  s :     0.003267
      pz      :     0.189278  p :     0.195810
      px      :     0.004109
      py      :     0.002423
      dz2     :    -0.000693  d :    -0.005978
      dxz     :    -0.005497
      dyz     :     0.002067
      dx2y2   :    -0.001100
      dxy     :    -0.000756
      f0      :    -0.000409  f :    -0.000859
      f+1     :    -0.000137
      f-1     :    -0.000120
      f+2     :    -0.000356
      f-2     :     0.000394
      f+3     :    -0.000131
      f-3     :    -0.000100
 10 C s       :    -0.003347  s :    -0.003347
      pz      :    -0.071894  p :    -0.081162
      px      :    -0.004726
      py      :    -0.004542
      dz2     :     0.000236  d :     0.046804
      dxz     :     0.025727
      dyz     :     0.018659
      dx2y2   :     0.001216
      dxy     :     0.000965
      f0      :     0.000716  f :     0.005555
      f+1     :     0.000061
      f-1     :     0.000061
      f+2     :     0.003585
      f-2     :     0.000827
      f+3     :     0.000149
      f-3     :     0.000155
 11 Brs       :    -0.000193  s :    -0.000193
      pz      :    -0.013504  p :    -0.010818
      px      :     0.000942
      py      :     0.001743
      dz2     :    -0.000157  d :    -0.003979
      dxz     :    -0.001258
      dyz     :    -0.002013
      dx2y2   :    -0.000238
      dxy     :    -0.000313
      f0      :    -0.000165  f :    -0.000532
      f+1     :    -0.000004
      f-1     :    -0.000005
      f+2     :    -0.000006
      f-2     :    -0.000270
      f+3     :    -0.000042
      f-3     :    -0.000040
 12 C s       :     0.004557  s :     0.004557
      pz      :     0.247636  p :     0.257080
      px      :     0.004083
      py      :     0.005361
      dz2     :    -0.000947  d :    -0.009334
      dxz     :    -0.002617
      dyz     :    -0.003942
      dx2y2   :    -0.000984
      dxy     :    -0.000844
      f0      :    -0.000632  f :    -0.001522
      f+1     :    -0.000163
      f-1     :    -0.000169
      f+2     :    -0.000101
      f-2     :    -0.000228
      f+3     :    -0.000167
      f-3     :    -0.000064
 13 C s       :    -0.000612  s :    -0.000612
      pz      :     0.025871  p :     0.022313
      px      :    -0.001688
      py      :    -0.001871
      dz2     :    -0.000017  d :     0.032104
      dxz     :     0.024123
      dyz     :     0.006818
      dx2y2   :     0.000405
      dxy     :     0.000776
      f0      :     0.000328  f :     0.003899
      f+1     :    -0.000017
      f-1     :     0.000006
      f+2     :     0.001016
      f-2     :     0.002359
      f+3     :     0.000121
      f-3     :     0.000086
 14 N s       :     0.000810  s :     0.000810
      pz      :     0.063545  p :     0.062815
      px      :     0.000179
      py      :    -0.000909
      dz2     :    -0.000016  d :     0.003034
      dxz     :     0.001021
      dyz     :     0.002584
      dx2y2   :    -0.000194
      dxy     :    -0.000360
      f0      :    -0.000051  f :     0.000400
      f+1     :    -0.000020
      f-1     :    -0.000020
      f+2     :     0.000559
      f-2     :    -0.000020
      f+3     :    -0.000021
      f-3     :    -0.000026
 15 H s       :     0.000369  s :     0.000369
      pz      :     0.000045  p :     0.000041
      px      :     0.000001
      py      :    -0.000005
      dz2     :    -0.000000  d :     0.000010
      dxz     :     0.000007
      dyz     :     0.000003
      dx2y2   :     0.000001
      dxy     :    -0.000000
 16 H s       :     0.000023  s :     0.000023
      pz      :     0.000010  p :     0.000022
      px      :    -0.000014
      py      :     0.000026
      dz2     :     0.000000  d :     0.000039
      dxz     :     0.000009
      dyz     :     0.000004
      dx2y2   :     0.000013
      dxy     :     0.000012
 17 H s       :    -0.000029  s :    -0.000029
      pz      :     0.000041  p :     0.000036
      px      :    -0.000003
      py      :    -0.000002
      dz2     :     0.000017  d :     0.000025
      dxz     :     0.000001
      dyz     :    -0.000000
      dx2y2   :     0.000001
      dxy     :     0.000005
 18 H s       :    -0.000037  s :    -0.000037
      pz      :    -0.000004  p :    -0.000008
      px      :    -0.000004
      py      :    -0.000000
      dz2     :     0.000000  d :    -0.000001
      dxz     :    -0.000000
      dyz     :    -0.000000
      dx2y2   :    -0.000000
      dxy     :    -0.000000
 19 H s       :    -0.000012  s :    -0.000012
      pz      :    -0.000000  p :    -0.000000
      px      :    -0.000001
      py      :     0.000001
      dz2     :    -0.000000  d :    -0.000000
      dxz     :     0.000000
      dyz     :    -0.000000
      dx2y2   :     0.000000
      dxy     :    -0.000000
 20 H s       :    -0.000012  s :    -0.000012
      pz      :    -0.000000  p :    -0.000000
      px      :    -0.000001
      py      :     0.000001
      dz2     :    -0.000000  d :    -0.000000
      dxz     :     0.000000
      dyz     :    -0.000000
      dx2y2   :     0.000000
      dxy     :    -0.000000
 21 H s       :     0.000369  s :     0.000369
      pz      :     0.000045  p :     0.000041
      px      :     0.000001
      py      :    -0.000005
      dz2     :    -0.000000  d :     0.000010
      dxz     :     0.000007
      dyz     :     0.000003
      dx2y2   :     0.000001
      dxy     :    -0.000000
 22 H s       :     0.000023  s :     0.000023
      pz      :     0.000010  p :     0.000022
      px      :    -0.000014
      py      :     0.000026
      dz2     :     0.000000  d :     0.000039
      dxz     :     0.000009
      dyz     :     0.000004
      dx2y2   :     0.000013
      dxy     :     0.000012
 23 H s       :    -0.000029  s :    -0.000029
      pz      :     0.000041  p :     0.000036
      px      :    -0.000003
      py      :    -0.000002
      dz2     :     0.000017  d :     0.000025
      dxz     :     0.000001
      dyz     :    -0.000000
      dx2y2   :     0.000001
      dxy     :     0.000005
 24 H s       :    -0.006207  s :    -0.006207
      pz      :     0.016432  p :     0.018166
      px      :     0.000347
      py      :     0.001387
      dz2     :     0.000034  d :     0.006101
      dxz     :     0.000805
      dyz     :     0.004719
      dx2y2   :     0.000274
      dxy     :     0.000270
 25 H s       :    -0.004257  s :    -0.004257
      pz      :     0.011466  p :     0.012794
      px      :     0.000286
      py      :     0.001042
      dz2     :     0.000011  d :     0.002836
      dxz     :     0.000358
      dyz     :     0.002204
      dx2y2   :     0.000134
      dxy     :     0.000129
 26 H s       :    -0.005564  s :    -0.005564
      pz      :     0.015038  p :     0.016910
      px      :     0.001599
      py      :     0.000274
      dz2     :     0.000012  d :     0.003839
      dxz     :     0.003421
      dyz     :     0.000041
      dx2y2   :     0.000203
      dxy     :     0.000162
 27 H s       :    -0.000764  s :    -0.000764
      pz      :     0.001076  p :     0.000960
      px      :    -0.000148
      py      :     0.000032
      dz2     :    -0.000000  d :     0.000251
      dxz     :    -0.000057
      dyz     :     0.000339
      dx2y2   :    -0.000000
      dxy     :    -0.000032


                      *****************************
                      * MAYER POPULATION ANALYSIS *
                      *****************************

  NA   - Mulliken gross atomic population
  ZA   - Total nuclear charge
  QA   - Mulliken gross atomic charge
  VA   - Mayer's total valence
  BVA  - Mayer's bonded valence
  FA   - Mayer's free valence

  ATOM       NA         ZA         QA         VA         BVA        FA
  0 C      6.3221     6.0000    -0.3221     3.8034     3.8034     0.0000
  1 C      5.9156     6.0000     0.0844     3.9419     3.9419     0.0000
  2 C      6.2890     6.0000    -0.2890     3.8216     3.8216     0.0000
  3 C      6.3220     6.0000    -0.3220     3.8034     3.8034     0.0000
  4 O      8.2840     8.0000    -0.2840     2.1183     2.1177     0.0007
  5 C      5.5180     6.0000     0.4820     4.2516     4.2508     0.0008
  6 O      8.3439     8.0000    -0.3439     2.1366     2.1342     0.0024
  7 N      7.0248     7.0000    -0.0248     3.3809     3.2907     0.0902
  8 C      5.6987     6.0000     0.3013     4.0067     3.9942     0.0125
  9 C      6.0452     6.0000    -0.0452     3.7934     3.7349     0.0584
 10 C      6.0691     6.0000    -0.0691     4.1432     4.1320     0.0112
 11 Br    34.8906    35.0000     0.1094     1.3256     1.3252     0.0004
 12 C      5.9782     6.0000     0.0218     3.7458     3.6447     0.1010
 13 C      5.9678     6.0000     0.0322     4.0208     4.0174     0.0033
 14 N      7.2575     7.0000    -0.2575     3.0241     3.0174     0.0066
 15 H      0.8678     1.0000     0.1322     0.9940     0.9940     0.0000
 16 H      0.8610     1.0000     0.1390     0.9985     0.9985     0.0000
 17 H      0.8740     1.0000     0.1260     0.9942     0.9942     0.0000
 18 H      0.8762     1.0000     0.1238     0.9949     0.9949     0.0000
 19 H      0.8720     1.0000     0.1280     0.9946     0.9946     0.0000
 20 H      0.8721     1.0000     0.1279     0.9947     0.9947     0.0000
 21 H      0.8678     1.0000     0.1322     0.9940     0.9940     0.0000
 22 H      0.8610     1.0000     0.1390     0.9986     0.9986     0.0000
 23 H      0.8741     1.0000     0.1259     0.9942     0.9942     0.0000
 24 H      0.8060     1.0000     0.1940     1.0228     1.0226     0.0002
 25 H      0.7971     1.0000     0.2029     1.0107     1.0106     0.0000
 26 H      0.8122     1.0000     0.1878     0.9830     0.9830     0.0001
 27 H      0.8323     1.0000     0.1677     0.9858     0.9858     0.0000

  Mayer bond orders larger than 0.100000
B(  0-C ,  1-C ) :   0.9899 B(  0-C , 15-H ) :   0.9685 B(  0-C , 16-H ) :   0.9696 
B(  0-C , 17-H ) :   0.9737 B(  1-C ,  2-C ) :   0.9910 B(  1-C ,  3-C ) :   0.9900 
B(  1-C ,  4-O ) :   0.7789 B(  2-C , 18-H ) :   0.9702 B(  2-C , 19-H ) :   0.9735 
B(  2-C , 20-H ) :   0.9734 B(  3-C , 21-H ) :   0.9685 B(  3-C , 22-H ) :   0.9697 
B(  3-C , 23-H ) :   0.9737 B(  4-O ,  5-C ) :   1.2624 B(  5-C ,  6-O ) :   1.9276 
B(  5-C ,  7-N ) :   1.0254 B(  7-N ,  8-C ) :   1.2768 B(  7-N , 24-H ) :   0.9284 
B(  8-C ,  9-C ) :   1.2413 B(  8-C , 14-N ) :   1.2900 B(  9-C , 10-C ) :   1.4024 
B(  9-C , 25-H ) :   0.9034 B( 10-C , 11-Br) :   1.2750 B( 10-C , 12-C ) :   1.3080 
B( 12-C , 13-C ) :   1.2370 B( 12-C , 26-H ) :   0.9415 B( 13-C , 14-N ) :   1.6193 
B( 13-C , 27-H ) :   0.9751 


------------------
HIRSHFELD ANALYSIS
------------------

Total integrated alpha density =     69.000068044
Total integrated beta density  =     68.000059030

  ATOM     CHARGE      SPIN    
   0 C   -0.073856    0.001915
   1 C    0.115567    0.001151
   2 C   -0.068261    0.000005
   3 C   -0.073854    0.001915
   4 O   -0.118336    0.023284
   5 C    0.287661    0.007375
   6 O   -0.221644    0.043321
   7 N    0.010723    0.261826
   8 C    0.185991    0.094100
   9 C    0.033204    0.197064
  10 C    0.059836   -0.038093
  11 Br   0.062271   -0.015111
  12 C    0.065112    0.257874
  13 C    0.117147    0.053946
  14 N   -0.145476    0.071502
  15 H    0.047904    0.000474
  16 H    0.029814    0.000150
  17 H    0.032742    0.000036
  18 H    0.046340   -0.000049
  19 H    0.034978   -0.000006
  20 H    0.034977   -0.000006
  21 H    0.047905    0.000474
  22 H    0.029815    0.000150
  23 H    0.032743    0.000036
  24 H    0.174211    0.010301
  25 H    0.073124    0.010237
  26 H    0.092388    0.014350
  27 H    0.086846    0.001788

  TOTAL   0.999873    1.000009

-------
TIMINGS
-------

Total SCF time: 0 days 0 hours 4 min 45 sec 

Total time                  ....     285.851 sec
Sum of individual times     ....     282.689 sec  ( 98.9%)

Fock matrix formation       ....     266.893 sec  ( 93.4%)
  Split-RI-J                ....      21.675 sec  (  8.1% of F)
  Chain of spheres X        ....     196.728 sec  ( 73.7% of F)
  XC integration            ....      47.406 sec  ( 17.8% of F)
    Basis function eval.    ....       2.459 sec  (  5.2% of XC)
    Density eval.           ....      15.993 sec  ( 33.7% of XC)
    XC-Functional eval.     ....       0.764 sec  (  1.6% of XC)
    XC-Potential eval.      ....      22.352 sec  ( 47.1% of XC)
Diagonalization             ....       4.777 sec  (  1.7%)
Density matrix formation    ....       0.614 sec  (  0.2%)
Population analysis         ....       1.687 sec  (  0.6%)
Initial guess               ....       0.357 sec  (  0.1%)
Orbital Transformation      ....       4.522 sec  (  1.6%)
Orbital Orthonormalization  ....       0.000 sec  (  0.0%)
DIIS solution               ....       2.146 sec  (  0.8%)
Grid generation             ....       1.670 sec  (  0.6%)

Maximum memory used throughout the entire SCF-calculation: 145.0 MB

-------------------------   --------------------
FINAL SINGLE POINT ENERGY     -3222.600147954509
-------------------------   --------------------


                            ***************************************
                            *     ORCA property calculations      *
                            ***************************************

                                    ---------------------
                                    Active property flags
                                    ---------------------
   (+) Dipole Moment


------------------------------------------------------------------------------
                       ORCA ELECTRIC PROPERTIES CALCULATION
------------------------------------------------------------------------------

Dipole Moment Calculation                       ... on
Quadrupole Moment Calculation                   ... off
Polarizability Calculation                      ... off
GBWName                                         ... arbr_25_r2scan3c_wB97MV_ox.gbw
Electron density                                ... arbr_25_r2scan3c_wB97MV_ox.scfp
The origin for moment calculation is the CENTER OF MASS  = (-0.498657, -0.087914 -0.000006)

-------------
DIPOLE MOMENT
-------------
                                X             Y             Z
Electronic contribution:    -68.90980     -10.17932      -0.00115
Nuclear contribution   :     68.81472      12.13241       0.00114
                        -----------------------------------------
Total Dipole Moment    :     -0.09507       1.95308      -0.00001
                        -----------------------------------------
Magnitude (a.u.)       :      1.95540
Magnitude (Debye)      :      4.97022



--------------------
Rotational spectrum 
--------------------
 
Rotational constants in cm-1:     0.032781     0.005865     0.005145 
Rotational constants in MHz :   982.736833   175.824143   154.238082 

 Dipole components along the rotational axes: 
x,y,z [a.u.] :    -0.030132    -1.955164     0.000000 
x,y,z [Debye]:    -0.076588    -4.969633     0.000000 

 

Timings for individual modules:

Sum of individual times         ...      287.005 sec (=   4.783 min)
GTO integral calculation        ...        0.865 sec (=   0.014 min)   0.3 %
SCF iterations                  ...      286.140 sec (=   4.769 min)  99.7 %
                             ****ORCA TERMINATED NORMALLY****
TOTAL RUN TIME: 0 days 0 hours 4 minutes 47 seconds 589 msec
