
                                 *****************
                                 * O   R   C   A *
                                 *****************

                                            #,                                       
                                            ###                                      
                                            ####                                     
                                            #####                                    
                                            ######                                   
                                           ########,                                 
                                     ,,################,,,,,                         
                               ,,#################################,,                 
                          ,,##########################################,,             
                       ,#########################################, ''#####,          
                    ,#############################################,,   '####,        
                  ,##################################################,,,,####,       
                ,###########''''           ''''###############################       
              ,#####''   ,,,,##########,,,,          '''####'''          '####       
            ,##' ,,,,###########################,,,                        '##       
           ' ,,###''''                  '''############,,,                           
         ,,##''                                '''############,,,,        ,,,,,,###''
      ,#''                                            '''#######################'''  
     '                                                          ''''####''''         
             ,#######,   #######,   ,#######,      ##                                
            ,#'     '#,  ##    ##  ,#'     '#,    #''#        ######   ,####,        
            ##       ##  ##   ,#'  ##            #'  '#       #        #'  '#        
            ##       ##  #######   ##           ,######,      #####,   #    #        
            '#,     ,#'  ##    ##  '#,     ,#' ,#      #,         ##   #,  ,#        
             '#######'   ##     ##  '#######'  #'      '#     #####' # '####'        



                  #######################################################
                  #                        -***-                        #
                  #          Department of theory and spectroscopy      #
                  #    Directorship and core code : Frank Neese         #
                  #        Max Planck Institute fuer Kohlenforschung    #
                  #                Kaiser Wilhelm Platz 1               #
                  #                 D-45470 Muelheim/Ruhr               #
                  #                      Germany                        #
                  #                                                     #
                  #                  All rights reserved                #
                  #                        -***-                        #
                  #######################################################


                         Program Version 5.0.4 -  RELEASE  -


 With contributions from (in alphabetic order):
   Daniel Aravena         : Magnetic Suceptibility
   Michael Atanasov       : Ab Initio Ligand Field Theory (pilot matlab implementation)
   Alexander A. Auer      : GIAO ZORA, VPT2 properties, NMR spectrum
   Ute Becker             : Parallelization
   Giovanni Bistoni       : ED, misc. LED, open-shell LED, HFLD
   Martin Brehm           : Molecular dynamics
   Dmytro Bykov           : SCF Hessian
   Vijay G. Chilkuri      : MRCI spin determinant printing, contributions to CSF-ICE
   Dipayan Datta          : RHF DLPNO-CCSD density
   Achintya Kumar Dutta   : EOM-CC, STEOM-CC
   Dmitry Ganyushin       : Spin-Orbit,Spin-Spin,Magnetic field MRCI
   Miquel Garcia          : C-PCM and meta-GGA Hessian, CC/C-PCM, Gaussian charge scheme
   Yang Guo               : DLPNO-NEVPT2, F12-NEVPT2, CIM, IAO-localization
   Andreas Hansen         : Spin unrestricted coupled pair/coupled cluster methods
   Benjamin Helmich-Paris : MC-RPA, TRAH-SCF, COSX integrals
   Lee Huntington         : MR-EOM, pCC
   Robert Izsak           : Overlap fitted RIJCOSX, COSX-SCS-MP3, EOM
   Marcus Kettner         : VPT2
   Christian Kollmar      : KDIIS, OOCD, Brueckner-CCSD(T), CCSD density, CASPT2, CASPT2-K
   Simone Kossmann        : Meta GGA functionals, TD-DFT gradient, OOMP2, MP2 Hessian
   Martin Krupicka        : Initial AUTO-CI
   Lucas Lang             : DCDCAS
   Marvin Lechner         : AUTO-CI (C++ implementation), FIC-MRCC
   Dagmar Lenk            : GEPOL surface, SMD
   Dimitrios Liakos       : Extrapolation schemes; Compound Job, initial MDCI parallelization
   Dimitrios Manganas     : Further ROCIS development; embedding schemes
   Dimitrios Pantazis     : SARC Basis sets
   Anastasios Papadopoulos: AUTO-CI, single reference methods and gradients
   Taras Petrenko         : DFT Hessian,TD-DFT gradient, ASA, ECA, R-Raman, ABS, FL, XAS/XES, NRVS
   Peter Pinski           : DLPNO-MP2, DLPNO-MP2 Gradient
   Christoph Reimann      : Effective Core Potentials
   Marius Retegan         : Local ZFS, SOC
   Christoph Riplinger    : Optimizer, TS searches, QM/MM, DLPNO-CCSD(T), (RO)-DLPNO pert. Triples
   Tobias Risthaus        : Range-separated hybrids, TD-DFT gradient, RPA, STAB
   Michael Roemelt        : Original ROCIS implementation
   Masaaki Saitow         : Open-shell DLPNO-CCSD energy and density
   Barbara Sandhoefer     : DKH picture change effects
   Avijit Sen             : IP-ROCIS
   Kantharuban Sivalingam : CASSCF convergence, NEVPT2, FIC-MRCI
   Bernardo de Souza      : ESD, SOC TD-DFT
   Georgi Stoychev        : AutoAux, RI-MP2 NMR, DLPNO-MP2 response
   Willem Van den Heuvel  : Paramagnetic NMR
   Boris Wezisla          : Elementary symmetry handling
   Frank Wennmohs         : Technical directorship


 We gratefully acknowledge several colleagues who have allowed us to
 interface, adapt or use parts of their codes:
   Stefan Grimme, W. Hujo, H. Kruse, P. Pracht,  : VdW corrections, initial TS optimization,
                  C. Bannwarth, S. Ehlert          DFT functionals, gCP, sTDA/sTD-DF
   Ed Valeev, F. Pavosevic, A. Kumar             : LibInt (2-el integral package), F12 methods
   Garnet Chan, S. Sharma, J. Yang, R. Olivares  : DMRG
   Ulf Ekstrom                                   : XCFun DFT Library
   Mihaly Kallay                                 : mrcc  (arbitrary order and MRCC methods)
   Jiri Pittner, Ondrej Demel                    : Mk-CCSD
   Frank Weinhold                                : gennbo (NPA and NBO analysis)
   Christopher J. Cramer and Donald G. Truhlar   : smd solvation model
   Lars Goerigk                                  : TD-DFT with DH, B97 family of functionals
   V. Asgeirsson, H. Jonsson                     : NEB implementation
   FAccTs GmbH                                   : IRC, NEB, NEB-TS, DLPNO-Multilevel, CI-OPT
                                                   MM, QMMM, 2- and 3-layer-ONIOM, Crystal-QMMM,
                                                   LR-CPCM, SF, NACMEs, symmetry and pop. for TD-DFT,
                                                   nearIR, NL-DFT gradient (VV10), updates on ESD,
                                                   ML-optimized integration grids
   S Lehtola, MJT Oliveira, MAL Marques          : LibXC Library
   Liviu Ungur et al                             : ANISO software


 Your calculation uses the libint2 library for the computation of 2-el integrals
 For citations please refer to: http://libint.valeyev.net

 Your ORCA version has been built with support for libXC version: 5.1.0
 For citations please refer to: https://tddft.org/programs/libxc/

 This ORCA versions uses:
   CBLAS   interface :  Fast vector & matrix operations
   LAPACKE interface :  Fast linear algebra routines
   SCALAPACK package :  Parallel linear algebra routines
   Shared memory     :  Shared parallel matrices
   BLAS/LAPACK       :  OpenBLAS 0.3.15  USE64BITINT DYNAMIC_ARCH NO_AFFINITY SkylakeX SINGLE_THREADED
        Core in use  :  SkylakeX
   Copyright (c) 2011-2014, The OpenBLAS Project


Your calculation utilizes the DFT-NL dispersion correction.
Cite in your paper:
Vydrov, O. A.; Van Voorhis, T. J. Chem. Phys. 2010, 133, 244103
Hujo, W.; Grimme, S. J. Chem. Theory Comput. 2011, 7, 3866 
   

================================================================================

----- Orbital basis set information -----
Your calculation utilizes the basis: def2-TZVPP
   F. Weigend and R. Ahlrichs, Phys. Chem. Chem. Phys. 7, 3297 (2005).

----- AuxJ basis set information -----
Your calculation utilizes the auxiliary basis: def2/J
   F. Weigend, Phys. Chem. Chem. Phys. 8, 1057 (2006).

================================================================================
                                        WARNINGS
                       Please study these warnings very carefully!
================================================================================

Using LibXC functional ID 531 : wB97M-V exchange-correlation functional
[ 1]  N. Mardirossian and M. Head-Gordon, J. Chem. Phys. 144, 214110 (2016)
Using LibXC functional ID 531 : wB97M-V exchange-correlation functional
[ 1]  N. Mardirossian and M. Head-Gordon, J. Chem. Phys. 144, 214110 (2016)

WARNING: B97M-V or wB97M-V functional requested.
  ===> : libXC variant has now been activated.
         Any manually given DFX/HFX/RangeSep scaling parameters are IGNORED!

Your calculation utilizes LibXC
 by S Lehtola, C Steigemann, MJT Oliveira & MAL Marques
Please cite in your paper:
 S Lehtola, C Steigemann, MJT Oliveira & MAL Marques, SoftwareX, 7, (2018), 1.
   


WARNING: your system is open-shell and RHF/RKS was chosen
  ===> : WILL SWITCH to UHF/UKS


INFO   : the flag for use of the SHARK integral package has been found!

================================================================================
                                       INPUT FILE
================================================================================
NAME = arbr_01_r2scan3c_wB97MV_ox.inp
|  1> %PAL NPROCS 16 END
|  2> %maxcore 4000
|  3> # arbr_01_r2scan3c.out
|  4> ! wB97m-v def2-TZVPP def2/J RIJCOSX Hirshfeld
|  5> * xyz 1 2
|  6>    O        3.91401         1.23771        -0.00035
|  7>    C        3.09094         0.37758         0.00059
|  8>    O        3.40254        -0.94931        -0.00018
|  9>    C        2.23319        -1.76506        -0.00009
| 10>    C        1.08759        -0.79443         0.00014
| 11>    C       -0.28122        -1.00071         0.00012
| 12>    C       -1.08537         0.13013         0.00006
| 13>   Br       -2.96426        -0.08998        -0.00004
| 14>    C       -0.56300         1.42402        -0.00002
| 15>    C        0.80950         1.60806         0.00002
| 16>    C        1.61347         0.48061         0.00019
| 17>    H        2.24756        -2.39859         0.88820
| 18>    H        2.24729        -2.39838        -0.88855
| 19>    H       -0.72037        -1.98896         0.00006
| 20>    H       -1.23613         2.26947        -0.00007
| 21>    H        1.24770         2.59760         0.00005
| 22> *
| 23> 
| 24>                          ****END OF INPUT****
================================================================================

                       ****************************
                       * Single Point Calculation *
                       ****************************

---------------------------------
CARTESIAN COORDINATES (ANGSTROEM)
---------------------------------
  O      3.914010    1.237710   -0.000350
  C      3.090940    0.377580    0.000590
  O      3.402540   -0.949310   -0.000180
  C      2.233190   -1.765060   -0.000090
  C      1.087590   -0.794430    0.000140
  C     -0.281220   -1.000710    0.000120
  C     -1.085370    0.130130    0.000060
  Br    -2.964260   -0.089980   -0.000040
  C     -0.563000    1.424020   -0.000020
  C      0.809500    1.608060    0.000020
  C      1.613470    0.480610    0.000190
  H      2.247560   -2.398590    0.888200
  H      2.247290   -2.398380   -0.888550
  H     -0.720370   -1.988960    0.000060
  H     -1.236130    2.269470   -0.000070
  H      1.247700    2.597600    0.000050

----------------------------
CARTESIAN COORDINATES (A.U.)
----------------------------
  NO LB      ZA    FRAG     MASS         X           Y           Z
   0 O     8.0000    0    15.999    7.396407    2.338933   -0.000661
   1 C     6.0000    0    12.011    5.841030    0.713523    0.001115
   2 O     8.0000    0    15.999    6.429869   -1.793936   -0.000340
   3 C     6.0000    0    12.011    4.220118   -3.335480   -0.000170
   4 C     6.0000    0    12.011    2.055247   -1.501255    0.000265
   5 C     6.0000    0    12.011   -0.531429   -1.891068    0.000227
   6 C     6.0000    0    12.011   -2.051052    0.245910    0.000113
   7 Br   35.0000    0    79.900   -5.601640   -0.170038   -0.000076
   8 C     6.0000    0    12.011   -1.063916    2.691008   -0.000038
   9 C     6.0000    0    12.011    1.529733    3.038793    0.000038
  10 C     6.0000    0    12.011    3.049016    0.908221    0.000359
  11 H     1.0000    0     1.008    4.247273   -4.532678    1.678455
  12 H     1.0000    0     1.008    4.246763   -4.532281   -1.679116
  13 H     1.0000    0     1.008   -1.361302   -3.758590    0.000113
  14 H     1.0000    0     1.008   -2.335947    4.288677   -0.000132
  15 H     1.0000    0     1.008    2.357811    4.908753    0.000094

--------------------------------
INTERNAL COORDINATES (ANGSTROEM)
--------------------------------
 O      0   0   0     0.000000000000     0.00000000     0.00000000
 C      1   0   0     1.190490959814     0.00000000     0.00000000
 O      2   1   0     1.362986509471   123.04567978     0.00000000
 C      3   2   1     1.425772595157   111.68441567   180.05826482
 C      4   3   2     1.501506580006   104.82646311     0.02815018
 C      5   4   3     1.384265962487   131.15646693   179.98981093
 C      6   5   4     1.387608133336   116.84695837   180.01473807
 Br     7   6   5     1.891738896941   118.73527259   179.99757806
 C      7   6   5     1.395357214265   122.59809914     0.00000000
 C      9   7   6     1.384784089019   119.62223885     0.00000000
 C      5   4   3     1.379230502309   107.86022705     0.00000000
 H      4   3   2     1.091158046252   108.75004703   239.31731075
 H      4   3   2     1.091171024175   108.74921325   120.73358840
 H      6   5   4     1.081429973970   122.52899202     0.00000000
 H      9   7   6     1.080689456736   119.48897092   179.99965233
 H     10   9   7     1.082223938240   121.52259282   180.00556798

---------------------------
INTERNAL COORDINATES (A.U.)
---------------------------
 O      0   0   0     0.000000000000     0.00000000     0.00000000
 C      1   0   0     2.249701878958     0.00000000     0.00000000
 O      2   1   0     2.575671227129   123.04567978     0.00000000
 C      3   2   1     2.694319734096   111.68441567   180.05826482
 C      4   3   2     2.837436224491   104.82646311     0.02815018
 C      5   4   3     2.615883565609   131.15646693   179.98981093
 C      6   5   4     2.622199353207   116.84695837   180.01473807
 Br     7   6   5     3.574868432105   118.73527259   179.99757806
 C      7   6   5     2.636842993951   122.59809914     0.00000000
 C      9   7   6     2.616862682857   119.62223885     0.00000000
 C      5   4   3     2.606367924915   107.86022705     0.00000000
 H      4   3   2     2.061989876240   108.75004703   239.31731075
 H      4   3   2     2.062014400962   108.74921325   120.73358840
 H      6   5   4     2.043606483816   122.52899202     0.00000000
 H      9   7   6     2.042207109047   119.48897092   179.99965233
 H     10   9   7     2.045106858848   121.52259282   180.00556798

---------------------
BASIS SET INFORMATION
---------------------
There are 4 groups of distinct atoms

 Group   1 Type O   : 11s6p2d1f contracted to 5s3p2d1f pattern {62111/411/11/1}
 Group   2 Type C   : 11s6p2d1f contracted to 5s3p2d1f pattern {62111/411/11/1}
 Group   3 Type Br  : 17s13p8d1f contracted to 6s5p4d1f pattern {842111/64111/5111/1}
 Group   4 Type H   : 5s2p1d contracted to 3s2p1d pattern {311/11/1}

Atom   0O    basis set group =>   1
Atom   1C    basis set group =>   2
Atom   2O    basis set group =>   1
Atom   3C    basis set group =>   2
Atom   4C    basis set group =>   2
Atom   5C    basis set group =>   2
Atom   6C    basis set group =>   2
Atom   7Br   basis set group =>   3
Atom   8C    basis set group =>   2
Atom   9C    basis set group =>   2
Atom  10C    basis set group =>   2
Atom  11H    basis set group =>   4
Atom  12H    basis set group =>   4
Atom  13H    basis set group =>   4
Atom  14H    basis set group =>   4
Atom  15H    basis set group =>   4
---------------------------------
AUXILIARY/J BASIS SET INFORMATION
---------------------------------
There are 4 groups of distinct atoms

 Group   1 Type O   : 12s5p4d2f1g contracted to 6s4p3d1f1g pattern {711111/2111/211/2/1}
 Group   2 Type C   : 12s5p4d2f1g contracted to 6s4p3d1f1g pattern {711111/2111/211/2/1}
 Group   3 Type Br  : 19s5p5d3f1g contracted to 8s4p3d2f1g pattern {121111111/2111/311/21/1}
 Group   4 Type H   : 5s2p1d contracted to 3s1p1d pattern {311/2/1}

Atom   0O    basis set group =>   1
Atom   1C    basis set group =>   2
Atom   2O    basis set group =>   1
Atom   3C    basis set group =>   2
Atom   4C    basis set group =>   2
Atom   5C    basis set group =>   2
Atom   6C    basis set group =>   2
Atom   7Br   basis set group =>   3
Atom   8C    basis set group =>   2
Atom   9C    basis set group =>   2
Atom  10C    basis set group =>   2
Atom  11H    basis set group =>   4
Atom  12H    basis set group =>   4
Atom  13H    basis set group =>   4
Atom  14H    basis set group =>   4
Atom  15H    basis set group =>   4


           ************************************************************
           *        Program running with 16 parallel MPI-processes    *
           *              working on a common directory               *
           ************************************************************
------------------------------------------------------------------------------
                           ORCA GTO INTEGRAL CALCULATION
                           -- RI-GTO INTEGRALS CHOSEN --
------------------------------------------------------------------------------
------------------------------------------------------------------------------
                   ___                                                        
                  /   \      - P O W E R E D   B Y -                         
                 /     \                                                     
                 |  |  |   _    _      __       _____    __    __             
                 |  |  |  | |  | |    /  \     |  _  \  |  |  /  |          
                  \  \/   | |  | |   /    \    | | | |  |  | /  /          
                 / \  \   | |__| |  /  /\  \   | |_| |  |  |/  /          
                |  |  |   |  __  | /  /__\  \  |    /   |      \           
                |  |  |   | |  | | |   __   |  |    \   |  |\   \          
                \     /   | |  | | |  |  |  |  | |\  \  |  | \   \       
                 \___/    |_|  |_| |__|  |__|  |_| \__\ |__|  \__/        
                                                                              
                      - O R C A' S   B I G   F R I E N D -                    
                                      &                                       
                       - I N T E G R A L  F E E D E R -                       
                                                                              
 v1 FN, 2020, v2 2021                                                         
------------------------------------------------------------------------------


Reading SHARK input file arbr_01_r2scan3c_wB97MV_ox.SHARKINP.tmp ... ok
----------------------
SHARK INTEGRAL PACKAGE
----------------------

Number of atoms                             ...     16
Number of basis functions                   ...    428
Number of shells                            ...    156
Maximum angular momentum                    ...      3
Integral batch strategy                     ... SHARK/LIBINT Hybrid
RI-J (if used) integral strategy            ... SPLIT-RIJ (Revised 2003 algorithm where possible)
Printlevel                                  ...      1
Contraction scheme used                     ... SEGMENTED contraction
Coulomb Range Separation                    ... NOT USED
Exchange Range Separation                   ... Long Range
   Mu parameter                             ...  0.300000
   Scaling (regular/separated)              ...  0.150000  0.850000
Finite Nucleus Model                        ... NOT USED
Auxiliary Coulomb fitting basis             ... AVAILABLE
   # of basis functions in Aux-J            ...    603
   # of shells in Aux-J                     ...    193
   Maximum angular momentum in Aux-J        ...      4
Auxiliary J/K fitting basis                 ... NOT available
Auxiliary Correlation fitting basis         ... NOT available
Auxiliary 'external' fitting basis          ... NOT available
Integral threshold                          ...     1.000000e-10
Primitive cut-off                           ...     1.000000e-11
Primitive pair pre-selection threshold      ...     1.000000e-11

Calculating pre-screening integrals         ... done (  0.0 sec) Dimension = 156
Organizing shell pair data                  ... done (  0.1 sec)
Shell pair information
Total number of shell pairs                 ...     12246
Shell pairs after pre-screening             ...     10325
Total number of primitive shell pairs       ...     39361
Primitive shell pairs kept                  ...     23424
          la=0 lb=0:   2039 shell pairs
          la=1 lb=0:   2754 shell pairs
          la=1 lb=1:    940 shell pairs
          la=2 lb=0:   1676 shell pairs
          la=2 lb=1:   1146 shell pairs
          la=2 lb=2:    360 shell pairs
          la=3 lb=0:    643 shell pairs
          la=3 lb=1:    437 shell pairs
          la=3 lb=2:    273 shell pairs
          la=3 lb=3:     57 shell pairs

Calculating one electron integrals          ... done (  0.0 sec)
Calculating RI/J V-Matrix + Cholesky decomp.... done (  0.0 sec)
Calculating Nuclear repulsion               ... done (  0.0 sec) ENN=    797.940943469353 Eh

SHARK setup successfully completed in   0.4 seconds

Maximum memory used throughout the entire GTOINT-calculation: 27.2 MB


           ************************************************************
           *        Program running with 16 parallel MPI-processes    *
           *              working on a common directory               *
           ************************************************************
-------------------------------------------------------------------------------
                                 ORCA SCF
-------------------------------------------------------------------------------

------------
SCF SETTINGS
------------
Hamiltonian:
 Density Functional     Method          .... DFT(GTOs)
  Functional kind                       .... Exchange-Correlation
  Functional name                       .... wB97M-V exchange-correlation functional
  Functional family                     .... Hybrid MGGA
  Functional refs                              
    [ 0] N. Mardirossian and M. Head-Gordon, J. Chem. Phys. 144, 214110 (2016)
  Fraction of HF Exchange (short range) .... 0.1500
  Fraction of HF Exchange (long range)  .... 1.0000
  Range separation parameter mu         .... 0.3000
  Functional external parameters         .... 0
   Density functional embedding theory  .... OFF
 Long-range corrected/Screened/Range-Separated Hybrid DFT is turned on
   Amount of maximum screened exact exchange              ....  0.850000
   Range separation parameter mu (erf(mu*r12)/r12)        ....  0.300000
   NL short-range parameter             ....  6.000000
   NL long-range parameter              ....  0.010000
 RI-approximation to the Coulomb term is turned on
   Number of AuxJ basis functions       .... 603
   RIJ-COSX (HFX calculated with COS-X)).... on


General Settings:
 Integral files         IntName         .... arbr_01_r2scan3c_wB97MV_ox
 Hartree-Fock type      HFTyp           .... UHF
 Total Charge           Charge          ....    1
 Multiplicity           Mult            ....    2
 Number of Electrons    NEL             ....  103
 Basis Dimension        Dim             ....  428
 Nuclear Repulsion      ENuc            ....    797.9409434694 Eh

Convergence Acceleration:
 DIIS                   CNVDIIS         .... on
   Start iteration      DIISMaxIt       ....    12
   Startup error        DIISStart       ....  0.200000
   # of expansion vecs  DIISMaxEq       ....     5
   Bias factor          DIISBfac        ....   1.050
   Max. coefficient     DIISMaxC        ....  10.000
 Trust-Rad. Augm. Hess. CNVTRAH         .... auto
   Auto Start mean grad. ratio tolernc. ....  1.125000
   Auto Start start iteration           ....    20
   Auto Start num. interpolation iter.  ....    10
   Max. Number of Micro iterations      ....    16
   Max. Number of Macro iterations      .... Maxiter - #DIIS iter
   Number of Davidson start vectors     ....     2
   Converg. threshold I  (grad. norm)   ....   5.000e-05
   Converg. threshold II (energy diff.) ....   1.000e-06
   Grad. Scal. Fac. for Micro threshold ....   0.100
   Minimum threshold for Micro iter.    ....   0.010
   NR start threshold (gradient norm)   ....   0.001
   Initial trust radius                 ....   0.400
   Minimum AH scaling param. (alpha)    ....   1.000
   Maximum AH scaling param. (alpha)    .... 1000.000
   Orbital update algorithm             .... Taylor
   White noise on init. David. guess    .... on
   Maximum white noise                  ....   0.010
   Quad. conv. algorithm                .... NR
 SOSCF                  CNVSOSCF        .... off
 Level Shifting         CNVShift        .... on
   Level shift para.    LevelShift      ....    0.2500
   Turn off err/grad.   ShiftErr        ....    0.0010
 Zerner damping         CNVZerner       .... off
 Static damping         CNVDamp         .... on
   Fraction old density DampFac         ....    0.7000
   Max. Damping (<1)    DampMax         ....    0.9800
   Min. Damping (>=0)   DampMin         ....    0.0000
   Turn off err/grad.   DampErr         ....    0.1000
 Fernandez-Rico         CNVRico         .... off

SCF Procedure:
 Maximum # iterations   MaxIter         ....   125
 SCF integral mode      SCFMode         .... Direct
   Integral package                     .... SHARK and LIBINT hybrid scheme
 Reset frequency        DirectResetFreq ....    20
 Integral Threshold     Thresh          ....  1.000e-10 Eh
 Primitive CutOff       TCut            ....  1.000e-11 Eh

Convergence Tolerance:
 Convergence Check Mode ConvCheckMode   .... Total+1el-Energy
 Convergence forced     ConvForced      .... 0
 Energy Change          TolE            ....  1.000e-06 Eh
 1-El. energy change                    ....  1.000e-03 Eh
 DIIS Error             TolErr          ....  1.000e-06


Diagonalization of the overlap matrix:
Smallest eigenvalue                        ... 6.337e-06
Time for diagonalization                   ...    0.022 sec
Threshold for overlap eigenvalues          ... 1.000e-08
Number of eigenvalues below threshold      ... 0
Time for construction of square roots      ...    0.012 sec
Total time needed                          ...    0.035 sec

Time for model grid setup =    0.078 sec

------------------------------
INITIAL GUESS: MODEL POTENTIAL
------------------------------
Loading Hartree-Fock densities                     ... done
Calculating cut-offs                               ... done
Initializing the effective Hamiltonian             ... done
Setting up the integral package (SHARK)            ... done
Starting the Coulomb interaction                   ... done (   0.0 sec)
Reading the grid                                   ... done
Mapping shells                                     ... done
Starting the XC term evaluation                    ... done (   0.1 sec)
  promolecular density results
     # of electrons  =    103.994131343
     EX              =   -148.031942466
     EC              =     -4.056324770
     EX+EC           =   -152.088267236
Transforming the Hamiltonian                       ... done (   0.0 sec)
Diagonalizing the Hamiltonian                      ... done (   0.0 sec)
Back transforming the eigenvectors                 ... done (   0.0 sec)
Now organizing SCF variables                       ... done
                      ------------------
                      INITIAL GUESS DONE (   0.2 sec)
                      ------------------
-------------------
DFT GRID GENERATION
-------------------

General Integration Accuracy     IntAcc      ... 4.388
Radial Grid Type                 RadialGrid  ... OptM3 with GC (2021)
Angular Grid (max. ang.)         AngularGrid ... 4 (Lebedev-302)
Angular grid pruning method      GridPruning ... 4 (adaptive)
Weight generation scheme         WeightScheme... Becke
Basis function cutoff            BFCut       ... 1.0000e-10
Integration weight cutoff        WCut        ... 1.0000e-14
Angular grids for H and He will be reduced by one unit
Partially contracted basis set               ... off
Rotationally invariant grid construction     ... off

Total number of grid points                  ...    87372
Total number of batches                      ...     1373
Average number of points per batch           ...       63
Average number of grid points per atom       ...     5461
Time for grid setup =    0.387 sec

--------------------
COSX GRID GENERATION
--------------------

GRIDX 1
-------
General Integration Accuracy     IntAcc      ... 3.816
Radial Grid Type                 RadialGrid  ... OptM3 with GC (2021)
Angular Grid (max. ang.)         AngularGrid ... 1 (Lebedev-50)
Angular grid pruning method      GridPruning ... 4 (adaptive)
Weight generation scheme         WeightScheme... Becke
Basis function cutoff            BFCut       ... 1.0000e-10
Integration weight cutoff        WCut        ... 1.0000e-14
Angular grids for H and He will be reduced by one unit
Partially contracted basis set               ... on
Rotationally invariant grid construction     ... off

Total number of grid points                  ...    10914
Total number of batches                      ...      178
Average number of points per batch           ...       61
Average number of grid points per atom       ...      682
UseSFitting                                  ... on

GRIDX 2
-------
General Integration Accuracy     IntAcc      ... 4.020
Radial Grid Type                 RadialGrid  ... OptM3 with GC (2021)
Angular Grid (max. ang.)         AngularGrid ... 2 (Lebedev-110)
Angular grid pruning method      GridPruning ... 4 (adaptive)
Weight generation scheme         WeightScheme... Becke
Basis function cutoff            BFCut       ... 1.0000e-10
Integration weight cutoff        WCut        ... 1.0000e-14
Angular grids for H and He will be reduced by one unit
Partially contracted basis set               ... on
Rotationally invariant grid construction     ... off

Total number of grid points                  ...    24405
Total number of batches                      ...      391
Average number of points per batch           ...       62
Average number of grid points per atom       ...     1525
UseSFitting                                  ... on

GRIDX 3
-------
General Integration Accuracy     IntAcc      ... 4.338
Radial Grid Type                 RadialGrid  ... OptM3 with GC (2021)
Angular Grid (max. ang.)         AngularGrid ... 3 (Lebedev-194)
Angular grid pruning method      GridPruning ... 4 (adaptive)
Weight generation scheme         WeightScheme... Becke
Basis function cutoff            BFCut       ... 1.0000e-10
Integration weight cutoff        WCut        ... 1.0000e-14
Angular grids for H and He will be reduced by one unit
Partially contracted basis set               ... on
Rotationally invariant grid construction     ... off

Total number of grid points                  ...    53979
Total number of batches                      ...      853
Average number of points per batch           ...       63
Average number of grid points per atom       ...     3374
UseSFitting                                  ... on

Time for X-Grid setup             =    0.326 sec

--------------
SCF ITERATIONS
--------------
ITER       Energy         Delta-E        Max-DP      RMS-DP      [F,P]     Damp
               ***  Starting incremental Fock matrix formation  ***
  0  -3032.1211996575   0.000000000000 0.05005624  0.00052945  0.1436454 0.7000
  1  -3032.2452444287  -0.124044771227 0.04955226  0.00043260  0.0682844 0.7000
                               ***Turning on DIIS***
  2  -3032.3045215036  -0.059277074852 0.08032381  0.00085821  0.0247527 0.0000
  3  -3032.3998865547  -0.095365051114 0.04055044  0.00031799  0.0359241 0.0000
  4  -3032.4195635327  -0.019676977997 0.01011829  0.00013667  0.0066279 0.0000
  5  -3032.4214343419  -0.001870809185 0.00726776  0.00008102  0.0065452 0.0000
  6  -3032.4224651877  -0.001030845848 0.00696981  0.00006094  0.0060408 0.0000
  7  -3032.4232486998  -0.000783512090 0.00819602  0.00005664  0.0054682 0.0000
  8  -3032.4238960193  -0.000647319423 0.00673360  0.00003723  0.0043722 0.0000
  9  -3032.4242833665  -0.000387347210 0.00588664  0.00003220  0.0035004 0.0000
 10  -3032.4245474143  -0.000264047812 0.00514883  0.00002822  0.0025637 0.0000
 11  -3032.4247304617  -0.000183047418 0.00428381  0.00002390  0.0018294 0.0000
 12  -3032.4248484300  -0.000117968287 0.00321815  0.00001838  0.0013218 0.0000
 13  -3032.4249180728  -0.000069642829 0.00224775  0.00001332  0.0010230 0.0000
 14  -3032.4249593600  -0.000041287153 0.00371408  0.00002227  0.0006908 0.0000
               *** Restarting incremental Fock matrix formation ***
                                   *** Resetting DIIS ***
 15  -3032.4249732049  -0.000013844916 0.00172092  0.00001245  0.0003733 0.0000
 16  -3032.4249840178  -0.000010812923 0.00023222  0.00000314  0.0004746 0.0000
 17  -3032.4249899409  -0.000005923135 0.00058509  0.00000710  0.0003746 0.0000
 18  -3032.4250032593  -0.000013318341 0.00060108  0.00000719  0.0002749 0.0000
 19  -3032.4250148081  -0.000011548823 0.00072495  0.00000836  0.0002740 0.0000
 20  -3032.4250253137  -0.000010505606 0.00062099  0.00000731  0.0002357 0.0000
 21  -3032.4250321510  -0.000006837342 0.00057465  0.00000684  0.0001599 0.0000
 22  -3032.4250363715  -0.000004220498 0.00038855  0.00000428  0.0001639 0.0000
 23  -3032.4250380316  -0.000001660015 0.00032833  0.00000391  0.0000738 0.0000
                 **** Energy Check signals convergence ****

               *****************************************************
               *                     SUCCESS                       *
               *           SCF CONVERGED AFTER  24 CYCLES          *
               *****************************************************

Old exchange energy                            =    -36.325964129 Eh
New exchange energy                            =    -36.325980878 Eh
Exchange energy change after final integration =     -0.000016749 Eh
Total energy after final integration           =  -3032.425055511 Eh
Final COS-X integration done in                =     6.136 sec

------------------
NL GRID GENERATION
------------------

General Integration Accuracy     IntAcc      ... 4.004
Radial Grid Type                 RadialGrid  ... OptM3 with GC (2021)
Angular Grid (max. ang.)         AngularGrid ... 2 (Lebedev-110)
Angular grid pruning method      GridPruning ... 4 (adaptive)
Weight generation scheme         WeightScheme... Becke
Basis function cutoff            BFCut       ... 1.0000e-10
Integration weight cutoff        WCut        ... 1.0000e-14
Angular grids for H and He will be reduced by one unit
Partially contracted basis set               ... off
Rotationally invariant grid construction     ... off

Total number of grid points                  ...    30563
Total number of batches                      ...      485
Average number of points per batch           ...       63
Average number of grid points per atom       ...     1910
Final grid set up in    0.1 sec

-------------------------------------------------------------------------------
                    post-SCF DFT-NL dispersion correction                      
-------------------------------------------------------------------------------

SCF Energy:   -3032.425055511 
NL    Energy:  0.404423051 
SC+NL Energy: -3032.020632459 
NL done in:    0.3 sec
-------------------------------------------------------------------------------

----------------
TOTAL SCF ENERGY
----------------

Total Energy       :        -3032.02063246 Eh          -82505.47591 eV

Components:
Nuclear Repulsion  :          797.94094347 Eh           21713.07694 eV
Electronic Energy  :        -3829.96157593 Eh         -104218.55285 eV
One Electron Energy:        -5770.13614791 Eh         -157013.38699 eV
Two Electron Energy:         1940.17457198 Eh           52794.83414 eV
Max COSX asymmetry :            0.00000091 Eh               0.00002 eV

Virial components:
Potential Energy   :        -6059.90252830 Eh         -164898.33106 eV
Kinetic Energy     :         3027.88189584 Eh           82392.85516 eV
Virial Ratio       :            2.00136688


DFT components:
N(Alpha)           :       51.999970937235 electrons
N(Beta)            :       50.999963604443 electrons
N(Total)           :      102.999934541678 electrons
NL Energy, E(C,NL) :        0.404423051177 Eh       
E(XC)              :     -117.011522048701 Eh       
DFET-embed. en.    :        0.000000000000 Eh       

---------------
SCF CONVERGENCE
---------------

  Last Energy change         ...   -7.2957e-07  Tolerance :   1.0000e-06
  Last MAX-Density change    ...    0.0000e+00  Tolerance :   1.0000e-05
  Last RMS-Density change    ...    0.0000e+00  Tolerance :   1.0000e-06
  Last DIIS Error            ...    5.6270e-05  Tolerance :   1.0000e-06

             **** THE GBW FILE WAS UPDATED (arbr_01_r2scan3c_wB97MV_ox.gbw) ****
             **** DENSITY arbr_01_r2scan3c_wB97MV_ox.scfp WAS UPDATED ****
             **** ENERGY FILE WAS UPDATED (arbr_01_r2scan3c_wB97MV_ox.en.tmp) ****
----------------------
UHF SPIN CONTAMINATION
----------------------

Warning: in a DFT calculation there is little theoretical justification to 
         calculate <S**2> as in Hartree-Fock theory. We will do it anyways
         but you should keep in mind that the values have only limited relevance

Expectation value of <S**2>     :     0.772126
Ideal value S*(S+1) for S=0.5   :     0.750000
Deviation                       :     0.022126

             **** THE GBW FILE WAS UPDATED (arbr_01_r2scan3c_wB97MV_ox.gbw) ****
             **** DENSITY arbr_01_r2scan3c_wB97MV_ox.scfp WAS UPDATED ****
----------------
ORBITAL ENERGIES
----------------
                 SPIN UP ORBITALS
  NO   OCC          E(Eh)            E(eV) 
   0   1.0000    -483.740964    -13163.2608 
   1   1.0000     -63.044432     -1715.5262 
   2   1.0000     -56.730828     -1543.7243 
   3   1.0000     -56.730226     -1543.7079 
   4   1.0000     -56.728463     -1543.6600 
   5   1.0000     -19.542377      -531.7751 
   6   1.0000     -19.490402      -530.3608 
   7   1.0000     -10.657736      -290.0117 
   8   1.0000     -10.646673      -289.7107 
   9   1.0000     -10.598595      -288.4024 
  10   1.0000     -10.588005      -288.1143 
  11   1.0000     -10.586666      -288.0778 
  12   1.0000     -10.585950      -288.0583 
  13   1.0000     -10.582695      -287.9698 
  14   1.0000     -10.572071      -287.6807 
  15   1.0000      -9.127160      -248.3627 
  16   1.0000      -6.911741      -188.0780 
  17   1.0000      -6.906538      -187.9365 
  18   1.0000      -6.899238      -187.7378 
  19   1.0000      -2.993983       -81.4704 
  20   1.0000      -2.992988       -81.4433 
  21   1.0000      -2.987632       -81.2976 
  22   1.0000      -2.983026       -81.1723 
  23   1.0000      -2.982118       -81.1476 
  24   1.0000      -1.408136       -38.3173 
  25   1.0000      -1.329843       -36.1869 
  26   1.0000      -1.240296       -33.7502 
  27   1.0000      -1.167185       -31.7607 
  28   1.0000      -1.113578       -30.3020 
  29   1.0000      -1.089029       -29.6340 
  30   1.0000      -1.027249       -27.9529 
  31   1.0000      -0.972537       -26.4641 
  32   1.0000      -0.926203       -25.2033 
  33   1.0000      -0.891800       -24.2671 
  34   1.0000      -0.818633       -22.2761 
  35   1.0000      -0.810849       -22.0643 
  36   1.0000      -0.792605       -21.5679 
  37   1.0000      -0.782621       -21.2962 
  38   1.0000      -0.761206       -20.7135 
  39   1.0000      -0.745059       -20.2741 
  40   1.0000      -0.725518       -19.7423 
  41   1.0000      -0.712031       -19.3754 
  42   1.0000      -0.693796       -18.8791 
  43   1.0000      -0.678425       -18.4609 
  44   1.0000      -0.670273       -18.2391 
  45   1.0000      -0.643393       -17.5076 
  46   1.0000      -0.640961       -17.4414 
  47   1.0000      -0.602167       -16.3858 
  48   1.0000      -0.579997       -15.7825 
  49   1.0000      -0.565444       -15.3865 
  50   1.0000      -0.555390       -15.1129 
  51   1.0000      -0.554249       -15.0819 
  52   0.0000      -0.183520        -4.9938 
  53   0.0000      -0.154462        -4.2031 
  54   0.0000      -0.124470        -3.3870 
  55   0.0000      -0.052011        -1.4153 
  56   0.0000      -0.041864        -1.1392 
  57   0.0000      -0.028119        -0.7652 
  58   0.0000      -0.019951        -0.5429 
  59   0.0000       0.001164         0.0317 
  60   0.0000       0.011154         0.3035 
  61   0.0000       0.020065         0.5460 
  62   0.0000       0.027556         0.7498 
  63   0.0000       0.048710         1.3255 
  64   0.0000       0.050914         1.3854 
  65   0.0000       0.064988         1.7684 
  66   0.0000       0.073924         2.0116 
  67   0.0000       0.084332         2.2948 
  68   0.0000       0.092514         2.5174 
  69   0.0000       0.099084         2.6962 
  70   0.0000       0.103299         2.8109 
  71   0.0000       0.117126         3.1872 
  72   0.0000       0.122271         3.3272 
  73   0.0000       0.127849         3.4790 
  74   0.0000       0.130137         3.5412 
  75   0.0000       0.134162         3.6507 
  76   0.0000       0.165363         4.4997 
  77   0.0000       0.165493         4.5033 
  78   0.0000       0.169473         4.6116 
  79   0.0000       0.178230         4.8499 
  80   0.0000       0.184139         5.0107 
  81   0.0000       0.187246         5.0952 
  82   0.0000       0.202834         5.5194 
  83   0.0000       0.217915         5.9298 
  84   0.0000       0.223379         6.0785 
  85   0.0000       0.229499         6.2450 
  86   0.0000       0.241626         6.5750 
  87   0.0000       0.251299         6.8382 
  88   0.0000       0.252054         6.8587 
  89   0.0000       0.258664         7.0386 
  90   0.0000       0.275018         7.4836 
  91   0.0000       0.289428         7.8757 
  92   0.0000       0.293374         7.9831 
  93   0.0000       0.302713         8.2373 
  94   0.0000       0.319222         8.6865 
  95   0.0000       0.325795         8.8653 
  96   0.0000       0.332693         9.0530 
  97   0.0000       0.336292         9.1510 
  98   0.0000       0.348701         9.4886 
  99   0.0000       0.350934         9.5494 
 100   0.0000       0.366020         9.9599 
 101   0.0000       0.382759        10.4154 
 102   0.0000       0.393071        10.6960 
 103   0.0000       0.396492        10.7891 
 104   0.0000       0.414063        11.2672 
 105   0.0000       0.438037        11.9196 
 106   0.0000       0.440097        11.9756 
 107   0.0000       0.444466        12.0945 
 108   0.0000       0.463091        12.6013 
 109   0.0000       0.479539        13.0489 
 110   0.0000       0.495022        13.4702 
 111   0.0000       0.495866        13.4932 
 112   0.0000       0.524484        14.2719 
 113   0.0000       0.525195        14.2913 
 114   0.0000       0.531665        14.4674 
 115   0.0000       0.532494        14.4899 
 116   0.0000       0.550813        14.9884 
 117   0.0000       0.556970        15.1559 
 118   0.0000       0.569660        15.5013 
 119   0.0000       0.593347        16.1458 
 120   0.0000       0.595627        16.2078 
 121   0.0000       0.619576        16.8595 
 122   0.0000       0.619940        16.8694 
 123   0.0000       0.650257        17.6944 
 124   0.0000       0.662518        18.0280 
 125   0.0000       0.663292        18.0491 
 126   0.0000       0.674443        18.3525 
 127   0.0000       0.687096        18.6968 
 128   0.0000       0.689315        18.7572 
 129   0.0000       0.711603        19.3637 
 130   0.0000       0.730916        19.8892 
 131   0.0000       0.746759        20.3203 
 132   0.0000       0.754919        20.5424 
 133   0.0000       0.766771        20.8649 
 134   0.0000       0.774311        21.0701 
 135   0.0000       0.811488        22.0817 
 136   0.0000       0.812388        22.1062 
 137   0.0000       0.825675        22.4677 
 138   0.0000       0.845145        22.9976 
 139   0.0000       0.852032        23.1850 
 140   0.0000       0.858495        23.3608 
 141   0.0000       0.865620        23.5547 
 142   0.0000       0.895041        24.3553 
 143   0.0000       0.906221        24.6595 
 144   0.0000       0.919216        25.0131 
 145   0.0000       0.937699        25.5161 
 146   0.0000       0.948900        25.8209 
 147   0.0000       0.972261        26.4566 
 148   0.0000       0.972465        26.4621 
 149   0.0000       1.003734        27.3130 
 150   0.0000       1.021271        27.7902 
 151   0.0000       1.035405        28.1748 
 152   0.0000       1.043482        28.3946 
 153   0.0000       1.053050        28.6549 
 154   0.0000       1.067056        29.0361 
 155   0.0000       1.079697        29.3801 
 156   0.0000       1.085954        29.5503 
 157   0.0000       1.095446        29.8086 
 158   0.0000       1.113291        30.2942 
 159   0.0000       1.118270        30.4297 
 160   0.0000       1.145112        31.1601 
 161   0.0000       1.154948        31.4277 
 162   0.0000       1.162166        31.6241 
 163   0.0000       1.177841        32.0507 
 164   0.0000       1.202138        32.7118 
 165   0.0000       1.217589        33.1323 
 166   0.0000       1.227663        33.4064 
 167   0.0000       1.243780        33.8450 
 168   0.0000       1.247245        33.9393 
 169   0.0000       1.257150        34.2088 
 170   0.0000       1.279377        34.8136 
 171   0.0000       1.300574        35.3904 
 172   0.0000       1.304918        35.5086 
 173   0.0000       1.307922        35.5904 
 174   0.0000       1.315463        35.7956 
 175   0.0000       1.331914        36.2432 
 176   0.0000       1.343808        36.5669 
 177   0.0000       1.360327        37.0164 
 178   0.0000       1.362608        37.0784 
 179   0.0000       1.388180        37.7743 
 180   0.0000       1.405962        38.2582 
 181   0.0000       1.408848        38.3367 
 182   0.0000       1.414882        38.5009 
 183   0.0000       1.425945        38.8019 
 184   0.0000       1.436143        39.0794 
 185   0.0000       1.443348        39.2755 
 186   0.0000       1.443674        39.2844 
 187   0.0000       1.489936        40.5432 
 188   0.0000       1.497181        40.7404 
 189   0.0000       1.503339        40.9079 
 190   0.0000       1.514256        41.2050 
 191   0.0000       1.514921        41.2231 
 192   0.0000       1.521376        41.3988 
 193   0.0000       1.555334        42.3228 
 194   0.0000       1.570851        42.7450 
 195   0.0000       1.583376        43.0859 
 196   0.0000       1.607641        43.7461 
 197   0.0000       1.623352        44.1737 
 198   0.0000       1.632876        44.4328 
 199   0.0000       1.636133        44.5214 
 200   0.0000       1.656405        45.0731 
 201   0.0000       1.668757        45.4092 
 202   0.0000       1.687788        45.9270 
 203   0.0000       1.698198        46.2103 
 204   0.0000       1.739517        47.3347 
 205   0.0000       1.743625        47.4465 
 206   0.0000       1.806013        49.1441 
 207   0.0000       1.811681        49.2983 
 208   0.0000       1.812142        49.3109 
 209   0.0000       1.828721        49.7620 
 210   0.0000       1.859151        50.5901 
 211   0.0000       1.869914        50.8829 
 212   0.0000       1.899930        51.6997 
 213   0.0000       1.921219        52.2790 
 214   0.0000       1.949710        53.0543 
 215   0.0000       1.970551        53.6214 
 216   0.0000       1.971604        53.6501 
 217   0.0000       2.003710        54.5237 
 218   0.0000       2.019661        54.9578 
 219   0.0000       2.023212        55.0544 
 220   0.0000       2.035642        55.3926 
 221   0.0000       2.065769        56.2124 
 222   0.0000       2.105270        57.2873 
 223   0.0000       2.106619        57.3240 
 224   0.0000       2.131978        58.0141 
 225   0.0000       2.146145        58.3996 
 226   0.0000       2.172805        59.1250 
 227   0.0000       2.210941        60.1628 
 228   0.0000       2.252568        61.2955 
 229   0.0000       2.281525        62.0835 
 230   0.0000       2.286096        62.2078 
 231   0.0000       2.339676        63.6658 
 232   0.0000       2.380041        64.7642 
 233   0.0000       2.395555        65.1864 
 234   0.0000       2.414737        65.7083 
 235   0.0000       2.425170        65.9922 
 236   0.0000       2.476613        67.3921 
 237   0.0000       2.478178        67.4346 
 238   0.0000       2.521884        68.6240 
 239   0.0000       2.525621        68.7256 
 240   0.0000       2.534164        68.9581 
 241   0.0000       2.547359        69.3172 
 242   0.0000       2.554937        69.5234 
 243   0.0000       2.569001        69.9061 
 244   0.0000       2.603416        70.8425 
 245   0.0000       2.605022        70.8862 
 246   0.0000       2.630478        71.5790 
 247   0.0000       2.634212        71.6805 
 248   0.0000       2.666578        72.5613 
 249   0.0000       2.676899        72.8421 
 250   0.0000       2.691738        73.2459 
 251   0.0000       2.711293        73.7780 
 252   0.0000       2.738308        74.5131 
 253   0.0000       2.744878        74.6919 
 254   0.0000       2.762491        75.1712 
 255   0.0000       2.773841        75.4801 
 256   0.0000       2.785404        75.7947 
 257   0.0000       2.787706        75.8573 
 258   0.0000       2.816562        76.6425 
 259   0.0000       2.818078        76.6838 
 260   0.0000       2.820922        76.7612 
 261   0.0000       2.834742        77.1372 
 262   0.0000       2.841919        77.3326 
 263   0.0000       2.875430        78.2444 
 264   0.0000       2.880301        78.3770 
 265   0.0000       2.901757        78.9608 
 266   0.0000       2.917881        79.3996 
 267   0.0000       2.933140        79.8148 
 268   0.0000       2.956425        80.4484 
 269   0.0000       2.962860        80.6235 
 270   0.0000       2.966205        80.7145 
 271   0.0000       2.992092        81.4190 
 272   0.0000       3.008187        81.8569 
 273   0.0000       3.016423        82.0810 
 274   0.0000       3.027424        82.3804 
 275   0.0000       3.049656        82.9854 
 276   0.0000       3.058126        83.2158 
 277   0.0000       3.070965        83.5652 
 278   0.0000       3.077514        83.7434 
 279   0.0000       3.088207        84.0344 
 280   0.0000       3.106846        84.5416 
 281   0.0000       3.118541        84.8598 
 282   0.0000       3.122356        84.9636 
 283   0.0000       3.140502        85.4574 
 284   0.0000       3.170223        86.2662 
 285   0.0000       3.173448        86.3539 
 286   0.0000       3.211983        87.4025 
 287   0.0000       3.212484        87.4161 
 288   0.0000       3.236575        88.0717 
 289   0.0000       3.245873        88.3247 
 290   0.0000       3.260740        88.7292 
 291   0.0000       3.270668        88.9994 
 292   0.0000       3.283214        89.3408 
 293   0.0000       3.298546        89.7580 
 294   0.0000       3.307261        89.9952 
 295   0.0000       3.321578        90.3847 
 296   0.0000       3.332721        90.6880 
 297   0.0000       3.343618        90.9845 
 298   0.0000       3.368577        91.6636 
 299   0.0000       3.383677        92.0745 
 300   0.0000       3.397827        92.4596 
 301   0.0000       3.399845        92.5145 
 302   0.0000       3.422001        93.1174 
 303   0.0000       3.428028        93.2814 
 304   0.0000       3.464965        94.2865 
 305   0.0000       3.475139        94.5633 
 306   0.0000       3.485667        94.8498 
 307   0.0000       3.493119        95.0526 
 308   0.0000       3.516025        95.6759 
 309   0.0000       3.554256        96.7162 
 310   0.0000       3.575687        97.2994 
 311   0.0000       3.578924        97.3875 
 312   0.0000       3.584638        97.5430 
 313   0.0000       3.603395        98.0534 
 314   0.0000       3.618150        98.4549 
 315   0.0000       3.627693        98.7145 
 316   0.0000       3.670091        99.8683 
 317   0.0000       3.674714        99.9941 
 318   0.0000       3.688424       100.3671 
 319   0.0000       3.703415       100.7750 
 320   0.0000       3.727666       101.4349 
 321   0.0000       3.748982       102.0150 
 322   0.0000       3.760788       102.3362 
 323   0.0000       3.771902       102.6387 
 324   0.0000       3.800600       103.4196 
 325   0.0000       3.812330       103.7388 
 326   0.0000       3.843827       104.5958 
 327   0.0000       3.886317       105.7521 
 328   0.0000       3.907249       106.3217 
 329   0.0000       3.912690       106.4697 
 330   0.0000       3.932184       107.0002 
 331   0.0000       3.953433       107.5784 
 332   0.0000       3.959952       107.7558 
 333   0.0000       3.977117       108.2229 
 334   0.0000       3.991169       108.6052 
 335   0.0000       3.999762       108.8391 
 336   0.0000       4.019509       109.3764 
 337   0.0000       4.032332       109.7253 
 338   0.0000       4.056319       110.3780 
 339   0.0000       4.076088       110.9160 
 340   0.0000       4.082538       111.0915 
 341   0.0000       4.099453       111.5518 
 342   0.0000       4.103804       111.6702 
 343   0.0000       4.148807       112.8948 
 344   0.0000       4.162482       113.2669 
 345   0.0000       4.169962       113.4704 
 346   0.0000       4.179438       113.7283 
 347   0.0000       4.185700       113.8987 
 348   0.0000       4.204282       114.4043 
 349   0.0000       4.224172       114.9456 
 350   0.0000       4.274649       116.3191 
 351   0.0000       4.293241       116.8250 
 352   0.0000       4.320445       117.5653 
 353   0.0000       4.339675       118.0886 
 354   0.0000       4.343703       118.1982 
 355   0.0000       4.394697       119.5858 
 356   0.0000       4.402560       119.7997 
 357   0.0000       4.438423       120.7756 
 358   0.0000       4.486023       122.0709 
 359   0.0000       4.530379       123.2779 
 360   0.0000       4.533081       123.3514 
 361   0.0000       4.555348       123.9573 
 362   0.0000       4.570364       124.3659 
 363   0.0000       4.589682       124.8916 
 364   0.0000       4.599726       125.1649 
 365   0.0000       4.643136       126.3461 
 366   0.0000       4.650698       126.5519 
 367   0.0000       4.678758       127.3155 
 368   0.0000       4.711493       128.2062 
 369   0.0000       4.724058       128.5482 
 370   0.0000       4.749681       129.2454 
 371   0.0000       4.795432       130.4903 
 372   0.0000       4.849458       131.9605 
 373   0.0000       4.862554       132.3168 
 374   0.0000       4.920786       133.9014 
 375   0.0000       4.956861       134.8830 
 376   0.0000       5.011363       136.3661 
 377   0.0000       5.019809       136.5959 
 378   0.0000       5.074217       138.0765 
 379   0.0000       5.080562       138.2491 
 380   0.0000       5.134929       139.7285 
 381   0.0000       5.137563       139.8002 
 382   0.0000       5.157547       140.3440 
 383   0.0000       5.162206       140.4708 
 384   0.0000       5.260781       143.1531 
 385   0.0000       5.297229       144.1449 
 386   0.0000       5.304941       144.3548 
 387   0.0000       5.349564       145.5690 
 388   0.0000       5.409311       147.1948 
 389   0.0000       5.409740       147.2065 
 390   0.0000       5.471530       148.8879 
 391   0.0000       5.487379       149.3192 
 392   0.0000       5.538784       150.7180 
 393   0.0000       5.580053       151.8410 
 394   0.0000       5.594877       152.2444 
 395   0.0000       5.597269       152.3094 
 396   0.0000       5.696088       154.9984 
 397   0.0000       5.745251       156.3362 
 398   0.0000       5.779632       157.2718 
 399   0.0000       5.952048       161.9635 
 400   0.0000       5.953078       161.9915 
 401   0.0000       6.090485       165.7305 
 402   0.0000       6.125453       166.6820 
 403   0.0000       6.192505       168.5066 
 404   0.0000       6.303703       171.5325 
 405   0.0000       6.322670       172.0486 
 406   0.0000       6.436711       175.1518 
 407   0.0000       6.489948       176.6005 
 408   0.0000       6.637885       180.6260 
 409   0.0000       6.766654       184.1300 
 410   0.0000       6.770221       184.2271 
 411   0.0000       6.905956       187.9206 
 412   0.0000       6.926780       188.4873 
 413   0.0000       7.067146       192.3068 
 414   0.0000       7.122553       193.8145 
 415   0.0000       7.222344       196.5300 
 416   0.0000       7.439754       202.4460 
 417   0.0000       7.688090       209.2036 
 418   0.0000      22.535654       613.2263 
 419   0.0000      22.998466       625.8201 
 420   0.0000      23.190310       631.0404 
 421   0.0000      23.250724       632.6844 
 422   0.0000      23.430079       637.5649 
 423   0.0000      23.532962       640.3644 
 424   0.0000      23.709500       645.1683 
 425   0.0000      24.100142       655.7982 
 426   0.0000      44.228187      1203.5102 
 427   0.0000      44.497294      1210.8329 

                 SPIN DOWN ORBITALS
  NO   OCC          E(Eh)            E(eV) 
   0   1.0000    -483.740044    -13163.2358 
   1   1.0000     -63.044148     -1715.5185 
   2   1.0000     -56.730570     -1543.7173 
   3   1.0000     -56.728162     -1543.6518 
   4   1.0000     -56.728148     -1543.6514 
   5   1.0000     -19.542617      -531.7817 
   6   1.0000     -19.488174      -530.3002 
   7   1.0000     -10.653960      -289.9090 
   8   1.0000     -10.647463      -289.7322 
   9   1.0000     -10.593791      -288.2717 
  10   1.0000     -10.586679      -288.0782 
  11   1.0000     -10.585954      -288.0585 
  12   1.0000     -10.585824      -288.0549 
  13   1.0000     -10.582114      -287.9540 
  14   1.0000     -10.573216      -287.7118 
  15   1.0000      -9.125994      -248.3309 
  16   1.0000      -6.911291      -188.0658 
  17   1.0000      -6.903154      -187.8444 
  18   1.0000      -6.898690      -187.7229 
  19   1.0000      -2.992574       -81.4321 
  20   1.0000      -2.990955       -81.3880 
  21   1.0000      -2.987361       -81.2902 
  22   1.0000      -2.980877       -81.1138 
  23   1.0000      -2.980500       -81.1035 
  24   1.0000      -1.407332       -38.2955 
  25   1.0000      -1.326809       -36.1043 
  26   1.0000      -1.233376       -33.5619 
  27   1.0000      -1.157843       -31.5065 
  28   1.0000      -1.111426       -30.2434 
  29   1.0000      -1.076551       -29.2944 
  30   1.0000      -1.025407       -27.9027 
  31   1.0000      -0.967758       -26.3340 
  32   1.0000      -0.921706       -25.0809 
  33   1.0000      -0.889354       -24.2005 
  34   1.0000      -0.815526       -22.1916 
  35   1.0000      -0.809116       -22.0172 
  36   1.0000      -0.786174       -21.3929 
  37   1.0000      -0.778495       -21.1839 
  38   1.0000      -0.759707       -20.6727 
  39   1.0000      -0.742619       -20.2077 
  40   1.0000      -0.709431       -19.3046 
  41   1.0000      -0.699747       -19.0411 
  42   1.0000      -0.686419       -18.6784 
  43   1.0000      -0.675616       -18.3845 
  44   1.0000      -0.667942       -18.1756 
  45   1.0000      -0.642594       -17.4859 
  46   1.0000      -0.598479       -16.2854 
  47   1.0000      -0.597640       -16.2626 
  48   1.0000      -0.572215       -15.5708 
  49   1.0000      -0.550917       -14.9912 
  50   1.0000      -0.550135       -14.9699 
  51   0.0000      -0.342717        -9.3258 
  52   0.0000      -0.157640        -4.2896 
  53   0.0000      -0.139079        -3.7845 
  54   0.0000      -0.118076        -3.2130 
  55   0.0000      -0.042755        -1.1634 
  56   0.0000      -0.041315        -1.1242 
  57   0.0000      -0.027555        -0.7498 
  58   0.0000      -0.019349        -0.5265 
  59   0.0000       0.001948         0.0530 
  60   0.0000       0.011830         0.3219 
  61   0.0000       0.021464         0.5841 
  62   0.0000       0.031872         0.8673 
  63   0.0000       0.051784         1.4091 
  64   0.0000       0.057853         1.5743 
  65   0.0000       0.066863         1.8194 
  66   0.0000       0.074689         2.0324 
  67   0.0000       0.086712         2.3595 
  68   0.0000       0.094427         2.5695 
  69   0.0000       0.101029         2.7492 
  70   0.0000       0.104793         2.8516 
  71   0.0000       0.118469         3.2237 
  72   0.0000       0.125136         3.4051 
  73   0.0000       0.129584         3.5262 
  74   0.0000       0.133192         3.6243 
  75   0.0000       0.135706         3.6927 
  76   0.0000       0.167585         4.5602 
  77   0.0000       0.170278         4.6335 
  78   0.0000       0.170997         4.6531 
  79   0.0000       0.184445         5.0190 
  80   0.0000       0.187515         5.1026 
  81   0.0000       0.189369         5.1530 
  82   0.0000       0.203951         5.5498 
  83   0.0000       0.219115         5.9624 
  84   0.0000       0.229243         6.2380 
  85   0.0000       0.231778         6.3070 
  86   0.0000       0.244960         6.6657 
  87   0.0000       0.255228         6.9451 
  88   0.0000       0.257172         6.9980 
  89   0.0000       0.260586         7.0909 
  90   0.0000       0.276159         7.5147 
  91   0.0000       0.292580         7.9615 
  92   0.0000       0.294456         8.0125 
  93   0.0000       0.303410         8.2562 
  94   0.0000       0.323851         8.8124 
  95   0.0000       0.327403         8.9091 
  96   0.0000       0.334649         9.1062 
  97   0.0000       0.339139         9.2284 
  98   0.0000       0.349533         9.5113 
  99   0.0000       0.352378         9.5887 
 100   0.0000       0.368100        10.0165 
 101   0.0000       0.384890        10.4734 
 102   0.0000       0.395660        10.7665 
 103   0.0000       0.397299        10.8111 
 104   0.0000       0.415467        11.3054 
 105   0.0000       0.439998        11.9730 
 106   0.0000       0.442016        12.0279 
 107   0.0000       0.447710        12.1828 
 108   0.0000       0.464517        12.6401 
 109   0.0000       0.480810        13.0835 
 110   0.0000       0.496871        13.5206 
 111   0.0000       0.501591        13.6490 
 112   0.0000       0.526413        14.3244 
 113   0.0000       0.526488        14.3265 
 114   0.0000       0.533947        14.5294 
 115   0.0000       0.534409        14.5420 
 116   0.0000       0.552682        15.0392 
 117   0.0000       0.558832        15.2066 
 118   0.0000       0.572224        15.5710 
 119   0.0000       0.598274        16.2799 
 120   0.0000       0.598989        16.2993 
 121   0.0000       0.620949        16.8969 
 122   0.0000       0.624119        16.9832 
 123   0.0000       0.651543        17.7294 
 124   0.0000       0.664680        18.0869 
 125   0.0000       0.667323        18.1588 
 126   0.0000       0.674949        18.3663 
 127   0.0000       0.689772        18.7696 
 128   0.0000       0.692308        18.8387 
 129   0.0000       0.712271        19.3819 
 130   0.0000       0.735975        20.0269 
 131   0.0000       0.747925        20.3521 
 132   0.0000       0.755842        20.5675 
 133   0.0000       0.768231        20.9046 
 134   0.0000       0.776233        21.1224 
 135   0.0000       0.814798        22.1718 
 136   0.0000       0.815933        22.2027 
 137   0.0000       0.829073        22.5602 
 138   0.0000       0.847523        23.0623 
 139   0.0000       0.853161        23.2157 
 140   0.0000       0.860173        23.4065 
 141   0.0000       0.870026        23.6746 
 142   0.0000       0.898384        24.4463 
 143   0.0000       0.908447        24.7201 
 144   0.0000       0.921177        25.0665 
 145   0.0000       0.940044        25.5799 
 146   0.0000       0.952102        25.9080 
 147   0.0000       0.974495        26.5174 
 148   0.0000       0.975047        26.5324 
 149   0.0000       1.006338        27.3838 
 150   0.0000       1.023982        27.8640 
 151   0.0000       1.037231        28.2245 
 152   0.0000       1.045590        28.4519 
 153   0.0000       1.056579        28.7510 
 154   0.0000       1.070805        29.1381 
 155   0.0000       1.082014        29.4431 
 156   0.0000       1.090693        29.6793 
 157   0.0000       1.098622        29.8950 
 158   0.0000       1.118031        30.4232 
 159   0.0000       1.119875        30.4734 
 160   0.0000       1.147358        31.2212 
 161   0.0000       1.157696        31.5025 
 162   0.0000       1.166944        31.7542 
 163   0.0000       1.184911        32.2431 
 164   0.0000       1.205786        32.8111 
 165   0.0000       1.222168        33.2569 
 166   0.0000       1.234988        33.6057 
 167   0.0000       1.248328        33.9687 
 168   0.0000       1.251567        34.0569 
 169   0.0000       1.263871        34.3917 
 170   0.0000       1.282169        34.8896 
 171   0.0000       1.302135        35.4329 
 172   0.0000       1.313601        35.7449 
 173   0.0000       1.313827        35.7510 
 174   0.0000       1.318222        35.8707 
 175   0.0000       1.339820        36.4584 
 176   0.0000       1.348881        36.7049 
 177   0.0000       1.363612        37.1058 
 178   0.0000       1.365307        37.1519 
 179   0.0000       1.391130        37.8546 
 180   0.0000       1.407266        38.2936 
 181   0.0000       1.422216        38.7005 
 182   0.0000       1.424395        38.7598 
 183   0.0000       1.427316        38.8392 
 184   0.0000       1.440100        39.1871 
 185   0.0000       1.449732        39.4492 
 186   0.0000       1.452320        39.5196 
 187   0.0000       1.504629        40.9430 
 188   0.0000       1.505969        40.9795 
 189   0.0000       1.512237        41.1501 
 190   0.0000       1.517420        41.2911 
 191   0.0000       1.517708        41.2989 
 192   0.0000       1.526415        41.5359 
 193   0.0000       1.559655        42.4404 
 194   0.0000       1.574618        42.8475 
 195   0.0000       1.585429        43.1417 
 196   0.0000       1.612746        43.8850 
 197   0.0000       1.627997        44.3001 
 198   0.0000       1.638114        44.5754 
 199   0.0000       1.640403        44.6376 
 200   0.0000       1.664080        45.2819 
 201   0.0000       1.672246        45.5041 
 202   0.0000       1.690923        46.0124 
 203   0.0000       1.709403        46.5152 
 204   0.0000       1.745577        47.4996 
 205   0.0000       1.753625        47.7186 
 206   0.0000       1.809740        49.2455 
 207   0.0000       1.813372        49.3444 
 208   0.0000       1.814260        49.3685 
 209   0.0000       1.831082        49.8263 
 210   0.0000       1.865406        50.7603 
 211   0.0000       1.875802        51.0432 
 212   0.0000       1.904556        51.8256 
 213   0.0000       1.923115        52.3306 
 214   0.0000       1.953971        53.1702 
 215   0.0000       1.973726        53.7078 
 216   0.0000       1.979464        53.8639 
 217   0.0000       2.008995        54.6675 
 218   0.0000       2.022858        55.0448 
 219   0.0000       2.027562        55.1728 
 220   0.0000       2.039410        55.4952 
 221   0.0000       2.070147        56.3316 
 222   0.0000       2.109530        57.4032 
 223   0.0000       2.112994        57.4975 
 224   0.0000       2.140883        58.2564 
 225   0.0000       2.151595        58.5479 
 226   0.0000       2.176364        59.2219 
 227   0.0000       2.215380        60.2836 
 228   0.0000       2.254982        61.3612 
 229   0.0000       2.289411        62.2980 
 230   0.0000       2.290074        62.3161 
 231   0.0000       2.343466        63.7690 
 232   0.0000       2.389789        65.0295 
 233   0.0000       2.398916        65.2778 
 234   0.0000       2.416278        65.7503 
 235   0.0000       2.431075        66.1529 
 236   0.0000       2.480364        67.4941 
 237   0.0000       2.490405        67.7674 
 238   0.0000       2.522838        68.6499 
 239   0.0000       2.535733        69.0008 
 240   0.0000       2.540247        69.1236 
 241   0.0000       2.556320        69.5610 
 242   0.0000       2.558197        69.6121 
 243   0.0000       2.575131        70.0729 
 244   0.0000       2.607245        70.9467 
 245   0.0000       2.613836        71.1261 
 246   0.0000       2.639282        71.8185 
 247   0.0000       2.643561        71.9349 
 248   0.0000       2.670729        72.6742 
 249   0.0000       2.679952        72.9252 
 250   0.0000       2.699793        73.4651 
 251   0.0000       2.716170        73.9107 
 252   0.0000       2.743924        74.6660 
 253   0.0000       2.750431        74.8430 
 254   0.0000       2.766153        75.2709 
 255   0.0000       2.780143        75.6515 
 256   0.0000       2.789724        75.9123 
 257   0.0000       2.790342        75.9291 
 258   0.0000       2.819231        76.7152 
 259   0.0000       2.823038        76.8188 
 260   0.0000       2.826548        76.9143 
 261   0.0000       2.842232        77.3411 
 262   0.0000       2.850883        77.5765 
 263   0.0000       2.879542        78.3563 
 264   0.0000       2.889184        78.6187 
 265   0.0000       2.905984        79.0758 
 266   0.0000       2.925916        79.6182 
 267   0.0000       2.941802        80.0505 
 268   0.0000       2.960872        80.5694 
 269   0.0000       2.966157        80.7132 
 270   0.0000       2.968897        80.7878 
 271   0.0000       2.995885        81.5222 
 272   0.0000       3.013465        82.0005 
 273   0.0000       3.024170        82.2919 
 274   0.0000       3.035328        82.5955 
 275   0.0000       3.058003        83.2125 
 276   0.0000       3.061735        83.3141 
 277   0.0000       3.074155        83.6520 
 278   0.0000       3.082090        83.8679 
 279   0.0000       3.093189        84.1700 
 280   0.0000       3.111462        84.6672 
 281   0.0000       3.123306        84.9895 
 282   0.0000       3.127417        85.1013 
 283   0.0000       3.143956        85.5514 
 284   0.0000       3.173873        86.3655 
 285   0.0000       3.181155        86.5636 
 286   0.0000       3.217620        87.5559 
 287   0.0000       3.219656        87.6113 
 288   0.0000       3.239980        88.1643 
 289   0.0000       3.253675        88.5370 
 290   0.0000       3.264347        88.8274 
 291   0.0000       3.277315        89.1803 
 292   0.0000       3.287030        89.4446 
 293   0.0000       3.302263        89.8591 
 294   0.0000       3.312813        90.1462 
 295   0.0000       3.327839        90.5551 
 296   0.0000       3.337264        90.8116 
 297   0.0000       3.352606        91.2290 
 298   0.0000       3.370137        91.7061 
 299   0.0000       3.387335        92.1741 
 300   0.0000       3.402917        92.5981 
 301   0.0000       3.403947        92.6261 
 302   0.0000       3.424341        93.1811 
 303   0.0000       3.436392        93.5090 
 304   0.0000       3.469583        94.4122 
 305   0.0000       3.478863        94.6647 
 306   0.0000       3.491701        95.0140 
 307   0.0000       3.495209        95.1095 
 308   0.0000       3.520619        95.8009 
 309   0.0000       3.557842        96.8138 
 310   0.0000       3.578414        97.3736 
 311   0.0000       3.585444        97.5649 
 312   0.0000       3.587500        97.6208 
 313   0.0000       3.606182        98.1292 
 314   0.0000       3.621765        98.5532 
 315   0.0000       3.631300        98.8127 
 316   0.0000       3.676375       100.0392 
 317   0.0000       3.679651       100.1284 
 318   0.0000       3.694403       100.5298 
 319   0.0000       3.710376       100.9645 
 320   0.0000       3.731155       101.5299 
 321   0.0000       3.752335       102.1062 
 322   0.0000       3.765628       102.4680 
 323   0.0000       3.776500       102.7638 
 324   0.0000       3.804067       103.5139 
 325   0.0000       3.815568       103.8269 
 326   0.0000       3.846246       104.6617 
 327   0.0000       3.899607       106.1137 
 328   0.0000       3.911037       106.4247 
 329   0.0000       3.921168       106.7004 
 330   0.0000       3.936815       107.1262 
 331   0.0000       3.959784       107.7512 
 332   0.0000       3.964586       107.8819 
 333   0.0000       3.981150       108.3326 
 334   0.0000       3.999478       108.8313 
 335   0.0000       4.003077       108.9293 
 336   0.0000       4.022786       109.4656 
 337   0.0000       4.041477       109.9742 
 338   0.0000       4.067428       110.6803 
 339   0.0000       4.083169       111.1087 
 340   0.0000       4.086912       111.2105 
 341   0.0000       4.102201       111.6266 
 342   0.0000       4.114429       111.9593 
 343   0.0000       4.164607       113.3247 
 344   0.0000       4.167600       113.4061 
 345   0.0000       4.173341       113.5624 
 346   0.0000       4.183526       113.8395 
 347   0.0000       4.192777       114.0913 
 348   0.0000       4.210981       114.5866 
 349   0.0000       4.227817       115.0447 
 350   0.0000       4.278263       116.4174 
 351   0.0000       4.296699       116.9191 
 352   0.0000       4.322583       117.6235 
 353   0.0000       4.342043       118.1530 
 354   0.0000       4.348254       118.3220 
 355   0.0000       4.398980       119.7023 
 356   0.0000       4.415434       120.1501 
 357   0.0000       4.444415       120.9387 
 358   0.0000       4.494043       122.2891 
 359   0.0000       4.536305       123.4391 
 360   0.0000       4.536668       123.4490 
 361   0.0000       4.560852       124.1071 
 362   0.0000       4.576212       124.5251 
 363   0.0000       4.595223       125.0424 
 364   0.0000       4.608691       125.4089 
 365   0.0000       4.648533       126.4930 
 366   0.0000       4.660464       126.8177 
 367   0.0000       4.684536       127.4727 
 368   0.0000       4.715728       128.3215 
 369   0.0000       4.727781       128.6495 
 370   0.0000       4.754634       129.3802 
 371   0.0000       4.802011       130.6694 
 372   0.0000       4.851230       132.0087 
 373   0.0000       4.866674       132.4289 
 374   0.0000       4.926823       134.0657 
 375   0.0000       4.961555       135.0108 
 376   0.0000       5.017594       136.5357 
 377   0.0000       5.023677       136.7012 
 378   0.0000       5.078882       138.2034 
 379   0.0000       5.082567       138.3037 
 380   0.0000       5.142919       139.9459 
 381   0.0000       5.144417       139.9867 
 382   0.0000       5.164365       140.5295 
 383   0.0000       5.165997       140.5739 
 384   0.0000       5.263444       143.2256 
 385   0.0000       5.302351       144.2843 
 386   0.0000       5.306125       144.3870 
 387   0.0000       5.354200       145.6952 
 388   0.0000       5.410395       147.2243 
 389   0.0000       5.411812       147.2629 
 390   0.0000       5.477055       149.0383 
 391   0.0000       5.497858       149.6043 
 392   0.0000       5.543919       150.8577 
 393   0.0000       5.586169       152.0074 
 394   0.0000       5.597064       152.3038 
 395   0.0000       5.608716       152.6209 
 396   0.0000       5.705125       155.2443 
 397   0.0000       5.749800       156.4600 
 398   0.0000       5.779887       157.2787 
 399   0.0000       5.953556       162.0045 
 400   0.0000       5.954666       162.0347 
 401   0.0000       6.094375       165.8364 
 402   0.0000       6.128161       166.7557 
 403   0.0000       6.198645       168.6737 
 404   0.0000       6.305954       171.5937 
 405   0.0000       6.331949       172.3011 
 406   0.0000       6.440047       175.2426 
 407   0.0000       6.499130       176.8503 
 408   0.0000       6.637556       180.6171 
 409   0.0000       6.769781       184.2151 
 410   0.0000       6.774724       184.3496 
 411   0.0000       6.908626       187.9933 
 412   0.0000       6.926414       188.4773 
 413   0.0000       7.070456       192.3969 
 414   0.0000       7.124287       193.8617 
 415   0.0000       7.222980       196.5473 
 416   0.0000       7.440462       202.4653 
 417   0.0000       7.690978       209.2822 
 418   0.0000      22.537864       613.2865 
 419   0.0000      23.001468       625.9018 
 420   0.0000      23.191007       631.0594 
 421   0.0000      23.253022       632.7469 
 422   0.0000      23.430657       637.5806 
 423   0.0000      23.534183       640.3977 
 424   0.0000      23.709505       645.1684 
 425   0.0000      24.102555       655.8639 
 426   0.0000      44.230095      1203.5621 
 427   0.0000      44.497084      1210.8272 

                    ********************************
                    * MULLIKEN POPULATION ANALYSIS *
                    ********************************

--------------------------------------------
MULLIKEN ATOMIC CHARGES AND SPIN POPULATIONS
--------------------------------------------
   0 O :   -0.198993    0.084204
   1 C :    0.284055   -0.034743
   2 O :   -0.181939   -0.004615
   3 C :    0.017127   -0.000124
   4 C :   -0.039894    0.010653
   5 C :   -0.039497    0.046103
   6 C :    0.010810    0.235530
   7 Br:    0.288825    0.275483
   8 C :   -0.001684    0.144448
   9 C :   -0.084466   -0.055859
  10 C :    0.066638    0.301938
  11 H :    0.155876    0.000437
  12 H :    0.155915    0.000437
  13 H :    0.186818   -0.001460
  14 H :    0.185256   -0.002646
  15 H :    0.195154    0.000213
Sum of atomic charges         :    1.0000000
Sum of atomic spin populations:    1.0000000

-----------------------------------------------------
MULLIKEN REDUCED ORBITAL CHARGES AND SPIN POPULATIONS
-----------------------------------------------------
CHARGE
  0 O s       :     3.811745  s :     3.811745
      pz      :     1.302133  p :     4.351359
      px      :     1.535295
      py      :     1.513931
      dz2     :     0.002857  d :     0.033867
      dxz     :     0.006749
      dyz     :     0.006311
      dx2y2   :     0.008711
      dxy     :     0.009240
      f0      :     0.000198  f :     0.002022
      f+1     :     0.000096
      f-1     :     0.000112
      f+2     :     0.000009
      f-2     :     0.000516
      f+3     :     0.000542
      f-3     :     0.000548
  1 C s       :     3.053340  s :     3.053340
      pz      :     0.796193  p :     2.368351
      px      :     0.851457
      py      :     0.720701
      dz2     :     0.008050  d :     0.269423
      dxz     :     0.021624
      dyz     :     0.075002
[...]
      f+2     :     0.000487
      f-2     :     0.000693
      f+3     :     0.002185
      f-3     :     0.001694
  3 C s       :     2.702864  s :     2.702864
      pz      :     1.047705  p :     2.747249
      px      :     0.794624
      py      :     0.904920
      dz2     :     0.066748  d :     0.494178
      dxz     :     0.072085
      dyz     :     0.115739
      dx2y2   :     0.113595
      dxy     :     0.126012
      f0      :     0.007049  f :     0.074217
      f+1     :     0.008815
      f-1     :     0.006195
      f+2     :     0.004800
      f-2     :     0.011814
      f+3     :     0.018287
      f-3     :     0.017257
  4 C s       :     2.695780  s :     2.695780
      pz      :     0.761595  p :     2.751011
      px      :     1.000923
      py      :     0.988494
      dz2     :     0.033727  d :     0.497760
      dxz     :     0.078675
      dyz     :     0.060379
      dx2y2   :     0.145429
      dxy     :     0.179550
      f0      :     0.004227  f :     0.059495
      f+1     :     0.004707
      f-1     :     0.003716
      f+2     :     0.006033
      f-2     :     0.006746
      f+3     :     0.013717
      f-3     :     0.020349
  5 C s       :     2.717529  s :     2.717529
      pz      :     0.805704  p :     2.816800
      px      :     1.015974
      py      :     0.995121
      dz2     :     0.026711  d :     0.377033
      dxz     :     0.051240
      dyz     :     0.025263
      dx2y2   :     0.128413
      dxy     :     0.145406
      f0      :     0.002768  f :     0.043529
      f+1     :     0.004156
      f-1     :     0.003526
      f+2     :     0.004033
      f-2     :     0.003980
      f+3     :     0.010114
      f-3     :     0.014952
  6 C s       :     2.787137  s :     2.787137
      pz      :     0.765746  p :     2.847844
      px      :     0.983069
      py      :     1.099028
      dz2     :     0.037497  d :     0.561134
      dxz     :     0.066789
      dyz     :     0.088526
      dx2y2   :     0.208435
      dxy     :     0.159886
      f0      :     0.003603  f :     0.054560
      f+1     :     0.004015
      f-1     :     0.004249
      f+2     :     0.003569
      f-2     :     0.007974
      f+3     :     0.010705
      f-3     :     0.020445
  7 Brs       :     7.586435  s :     7.586435
      pz      :     5.601808  p :    16.627448
      px      :     5.160147
      py      :     5.865493
      dz2     :     2.015999  d :    10.111415
      dxz     :     2.025688
      dyz     :     2.000822
      dx2y2   :     2.045920
      dxy     :     2.022986
      f0      :     0.001204  f :     0.014749
      f+1     :     0.002751
      f-1     :     0.000267
      f+2     :     0.001772
      f-2     :     0.000124
      f+3     :     0.005188
      f-3     :     0.003443
  8 C s       :     2.725368  s :     2.725368
      pz      :     0.758998  p :     2.786185
      px      :     1.031509
      py      :     0.995679
      dz2     :     0.026644  d :     0.383325
      dxz     :     0.047610
      dyz     :     0.033986
      dx2y2   :     0.111480
      dxy     :     0.163605
      f0      :     0.002656  f :     0.043175
      f+1     :     0.003741
      f-1     :     0.003675
      f+2     :     0.006202
      f-2     :     0.002247
      f+3     :     0.009609
      f-3     :     0.015045
  9 C s       :     2.713812  s :     2.713812
      pz      :     0.783569  p :     2.783187
      px      :     1.001458
      py      :     0.998160
      dz2     :     0.024504  d :     0.367239
      dxz     :     0.046741
      dyz     :     0.025296
      dx2y2   :     0.130768
      dxy     :     0.139930
      f0      :     0.002739  f :     0.043166
      f+1     :     0.003943
      f-1     :     0.003341
      f+2     :     0.004105
      f-2     :     0.003506
      f+3     :     0.009544
      f-3     :     0.015988
 10 C s       :     2.700027  s :     2.700027
      pz      :     0.694174  p :     2.703036
      px      :     0.983141
      py      :     1.025721
      dz2     :     0.037524  d :     0.505305
      dxz     :     0.051973
      dyz     :     0.076958
      dx2y2   :     0.194787
      dxy     :     0.144064
      f0      :     0.004004  f :     0.060664
      f+1     :     0.004226
      f-1     :     0.004355
      f+2     :     0.004613
      f-2     :     0.007446
      f+3     :     0.011350
      f-3     :     0.024671
 11 H s       :     0.787051  s :     0.787051
      pz      :     0.064551  p :     0.140375
      px      :     0.028061
      py      :     0.047764
      dz2     :     0.009554  d :     0.029657
      dxz     :     0.004592
      dyz     :     0.009164
      dx2y2   :     0.003000
      dxy     :     0.003346
 12 H s       :     0.787037  s :     0.787037
      pz      :     0.064558  p :     0.140366
      px      :     0.028058
      py      :     0.047751
      dz2     :     0.009554  d :     0.029655
      dxz     :     0.004595
      dyz     :     0.009164
      dx2y2   :     0.002998
      dxy     :     0.003344
 13 H s       :     0.779563  s :     0.779563
      pz      :     0.036179  p :     0.144273
      px      :     0.038157
      py      :     0.069937
      dz2     :     0.002890  d :     0.029515
      dxz     :     0.001453
      dyz     :     0.006933
      dx2y2   :     0.009294
      dxy     :     0.008945
 14 H s       :     0.778173  s :     0.778173
      pz      :     0.033902  p :     0.143870
      px      :     0.049451
      py      :     0.060517
      dz2     :     0.002909  d :     0.029462
      dxz     :     0.003150
      dyz     :     0.004694
      dx2y2   :     0.009484
      dxy     :     0.009224
 15 H s       :     0.771510  s :     0.771510
      pz      :     0.033363  p :     0.143078
      px      :     0.039264
      py      :     0.070450
      dz2     :     0.002904  d :     0.029108
      dxz     :     0.001389
      dyz     :     0.006505
      dx2y2   :     0.009212
      dxy     :     0.009098

SPIN
  0 O s       :     0.000679  s :     0.000679
      pz      :     0.071157  p :     0.072524
      px      :     0.000252
      py      :     0.001115
      dz2     :     0.000003  d :    -0.001189
      dxz     :    -0.000555
      dyz     :    -0.000411
      dx2y2   :    -0.000129
      dxy     :    -0.000097
      f0      :    -0.000046  f :    -0.000148
      f+1     :    -0.000009
      f-1     :    -0.000011
      f+2     :     0.000003
      f-2     :    -0.000060
      f+3     :    -0.000013
      f-3     :    -0.000012
  1 C s       :    -0.002026  s :    -0.002026
      pz      :    -0.022563  p :    -0.027435
      px      :    -0.003859
      py      :    -0.001013
      dz2     :     0.000072  d :     0.029033
      dxz     :     0.027254
      dyz     :     0.001005
      dx2y2   :     0.000262
      dxy     :     0.000440
      f0      :     0.000484  f :     0.003648
      f+1     :     0.000025
      f-1     :     0.000027
      f+2     :     0.001585
      f-2     :     0.001303
      f+3     :     0.000070
      f-3     :     0.000153
  2 O s       :    -0.000255  s :    -0.000255
      pz      :    -0.003568  p :    -0.004647
      px      :    -0.000581
      py      :    -0.000498
      dz2     :    -0.000025  d :    -0.000643
      dxz     :    -0.000090
      dyz     :    -0.000372
      dx2y2   :    -0.000049
      dxy     :    -0.000108
      f0      :    -0.000024  f :    -0.000047
      f+1     :     0.000000
      f-1     :    -0.000000
      f+2     :    -0.000021
      f-2     :     0.000008
      f+3     :    -0.000005
      f-3     :    -0.000004
  3 C s       :    -0.000059  s :    -0.000059
      pz      :     0.000572  p :     0.000223
      px      :    -0.000275
      py      :    -0.000073
      dz2     :    -0.000007  d :     0.001669
      dxz     :     0.001153
      dyz     :     0.000755
      dx2y2   :    -0.000182
      dxy     :    -0.000050
      f0      :    -0.000078  f :     0.000050
      f+1     :    -0.000003
      f-1     :    -0.000002
      f+2     :    -0.000099
      f-2     :     0.000280
      f+3     :    -0.000035
      f-3     :    -0.000014
  4 C s       :    -0.000476  s :    -0.000476
      pz      :     0.011409  p :     0.008107
      px      :    -0.000437
      py      :    -0.002866
      dz2     :     0.000011  d :     0.025973
      dxz     :     0.007971
      dyz     :     0.016904
      dx2y2   :     0.000636
      dxy     :     0.000451
      f0      :     0.000267  f :     0.003612
      f+1     :    -0.000014
      f-1     :     0.000012
      f+2     :     0.002131
      f-2     :     0.001022
      f+3     :     0.000094
      f-3     :     0.000100
  5 C s       :     0.000039  s :     0.000039
      pz      :     0.038582  p :     0.037027
      px      :    -0.000392
      py      :    -0.001163
      dz2     :    -0.000135  d :     0.014800
      dxz     :     0.008242
      dyz     :     0.006725
      dx2y2   :    -0.000236
      dxy     :     0.000203
      f0      :     0.000140  f :     0.002545
      f+1     :    -0.000026
      f-1     :    -0.000008
      f+2     :     0.000661
      f-2     :     0.001730
      f+3     :     0.000041
      f-3     :     0.000008
  6 C s       :     0.003089  s :     0.003089
      pz      :     0.178599  p :     0.183532
      px      :     0.003439
      py      :     0.001494
      dz2     :    -0.000367  d :     0.012875
      dxz     :     0.005653
      dyz     :     0.007218
      dx2y2   :     0.000300
      dxy     :     0.000071
      f0      :    -0.000138  f :     0.001377
      f+1     :    -0.000122
      f-1     :    -0.000104
      f+2     :     0.001317
      f-2     :     0.000358
      f+3     :    -0.000030
      f-3     :     0.000097
  7 Brs       :     0.001385  s :     0.001385
      pz      :     0.276526  p :     0.271698
      px      :    -0.005433
      py      :     0.000605
      dz2     :     0.000936  d :     0.007716
      dxz     :     0.006452
      dyz     :     0.000110
      dx2y2   :     0.000293
      dxy     :    -0.000075
      f0      :     0.000454  f :     0.001005
      f+1     :    -0.000144
      f-1     :     0.000021
      f+2     :     0.000600
      f-2     :     0.000038
      f+3     :     0.000038
      f-3     :    -0.000001
  8 C s       :     0.001573  s :     0.001573
      pz      :     0.115595  p :     0.117398
      px      :     0.002262
      py      :    -0.000459
      dz2     :    -0.000418  d :     0.009082
      dxz     :    -0.000278
      dyz     :     0.010224
      dx2y2   :    -0.000137
      dxy     :    -0.000309
      f0      :    -0.000046  f :     0.001491
      f+1     :    -0.000083
      f-1     :    -0.000058
      f+2     :     0.001070
      f-2     :     0.000618
      f+3     :    -0.000037
      f-3     :     0.000027
  9 C s       :    -0.001664  s :    -0.001664
      pz      :    -0.039985  p :    -0.046292
      px      :    -0.003447
      py      :    -0.002860
      dz2     :     0.000207  d :     0.033011
      dxz     :     0.023311
      dyz     :     0.007954
      dx2y2   :     0.000702
      dxy     :     0.000836
      f0      :     0.000496  f :     0.004542
      f+1     :     0.000035
      f-1     :     0.000045
      f+2     :     0.001489
      f-2     :     0.002217
      f+3     :     0.000131
      f-3     :     0.000129
 10 C s       :     0.004572  s :     0.004572
      pz      :     0.226649  p :     0.236572
      px      :     0.005370
      py      :     0.004553
      dz2     :    -0.000627  d :    -0.009091
      dxz     :    -0.004722
      dyz     :    -0.002588
      dx2y2   :    -0.000568
      dxy     :    -0.000586
      f0      :    -0.000612  f :    -0.001408
      f+1     :    -0.000151
      f-1     :    -0.000148
      f+2     :     0.000066
      f-2     :    -0.000383
      f+3     :    -0.000189
      f-3     :     0.000009
 11 H s       :     0.000477  s :     0.000477
      pz      :    -0.000017  p :    -0.000074
      px      :    -0.000022
      py      :    -0.000034
      dz2     :    -0.000002  d :    -0.000001
      dxz     :    -0.000003
      dyz     :     0.000007
      dx2y2   :    -0.000002
      dxy     :    -0.000000
 12 H s       :     0.000477  s :     0.000477
      pz      :    -0.000017  p :    -0.000074
      px      :    -0.000023
      py      :    -0.000034
      dz2     :    -0.000002  d :    -0.000001
      dxz     :    -0.000003
      dyz     :     0.000007
      dx2y2   :    -0.000002
      dxy     :    -0.000000
 13 H s       :    -0.001287  s :    -0.001287
      pz      :     0.002021  p :     0.002055
      px      :    -0.000074
      py      :     0.000107
      dz2     :     0.000002  d :     0.000510
      dxz     :     0.000011
      dyz     :     0.000497
      dx2y2   :     0.000001
      dxy     :    -0.000001
 14 H s       :    -0.002951  s :    -0.002951
      pz      :     0.006322  p :     0.006955
      px      :     0.000261
      py      :     0.000372
      dz2     :     0.000006  d :     0.001696
      dxz     :     0.000519
      dyz     :     0.001053
      dx2y2   :     0.000034
      dxy     :     0.000085
 15 H s       :     0.000604  s :     0.000604
      pz      :    -0.002503  p :    -0.003156
      px      :    -0.000316
      py      :    -0.000337
      dz2     :    -0.000003  d :    -0.000703
      dxz     :    -0.000134
      dyz     :    -0.000428
      dx2y2   :    -0.000070
      dxy     :    -0.000068


                      *****************************
                      * MAYER POPULATION ANALYSIS *
                      *****************************

  NA   - Mulliken gross atomic population
  ZA   - Total nuclear charge
  QA   - Mulliken gross atomic charge
  VA   - Mayer's total valence
  BVA  - Mayer's bonded valence
  FA   - Mayer's free valence

  ATOM       NA         ZA         QA         VA         BVA        FA
  0 O      8.1990     8.0000    -0.1990     2.2970     2.2904     0.0066
  1 C      5.7159     6.0000     0.2841     4.3645     4.3632     0.0013
  2 O      8.1819     8.0000    -0.1819     2.1941     2.1941     0.0000
  3 C      5.9829     6.0000     0.0171     3.9126     3.9125     0.0000
  4 C      6.0399     6.0000    -0.0399     3.8880     3.8859     0.0021
  5 C      6.0395     6.0000    -0.0395     3.8648     3.8612     0.0036
  6 C      5.9892     6.0000     0.0108     4.1033     4.0502     0.0531
  7 Br    34.7112    35.0000     0.2888     1.6827     1.5929     0.0897
  8 C      6.0017     6.0000    -0.0017     3.8229     3.8011     0.0219
  9 C      6.0845     6.0000    -0.0845     3.9783     3.9740     0.0043
 10 C      5.9334     6.0000     0.0666     3.6137     3.5249     0.0888
 11 H      0.8441     1.0000     0.1559     0.9708     0.9708     0.0000
 12 H      0.8441     1.0000     0.1559     0.9708     0.9708     0.0000
 13 H      0.8132     1.0000     0.1868     0.9861     0.9861     0.0000
 14 H      0.8147     1.0000     0.1853     0.9820     0.9819     0.0000
 15 H      0.8048     1.0000     0.1952     0.9911     0.9911     0.0000

  Mayer bond orders larger than 0.100000
B(  0-O ,  1-C ) :   2.1814 B(  1-C ,  2-O ) :   1.1859 B(  1-C , 10-C ) :   0.9113 
B(  2-O ,  3-C ) :   0.9659 B(  3-C ,  4-C ) :   0.9793 B(  3-C , 11-H ) :   0.9552 
B(  3-C , 12-H ) :   0.9552 B(  4-C ,  5-C ) :   1.4997 B(  4-C , 10-C ) :   1.2035 
B(  5-C ,  6-C ) :   1.2930 B(  5-C , 13-H ) :   0.9041 B(  6-C ,  7-Br) :   1.4430 
B(  6-C ,  8-C ) :   1.1896 B(  8-C ,  9-C ) :   1.5344 B(  8-C , 14-H ) :   0.9404 
B(  9-C , 10-C ) :   1.3019 B(  9-C , 15-H ) :   0.9212 


------------------
HIRSHFELD ANALYSIS
------------------

Total integrated alpha density =     51.999970938
Total integrated beta density  =     50.999963604

  ATOM     CHARGE      SPIN    
   0 O   -0.202710    0.073515
   1 C    0.238053    0.000639
   2 O   -0.107288   -0.004932
   3 C    0.074880    0.003270
   4 C    0.053257    0.034177
   5 C    0.016488    0.052901
   6 C    0.111984    0.202340
   7 Br   0.244503    0.282735
   8 C    0.043071    0.129927
   9 C    0.037485   -0.014842
  10 C    0.085071    0.235995
  11 H    0.074909    0.000424
  12 H    0.074930    0.000424
  13 H    0.080810    0.000971
  14 H    0.084212    0.004768
  15 H    0.090412   -0.002304

  TOTAL   1.000065    1.000007

-------
TIMINGS
-------

Total SCF time: 0 days 0 hours 1 min 13 sec 

Total time                  ....      73.783 sec
Sum of individual times     ....      72.647 sec  ( 98.5%)

Fock matrix formation       ....      67.794 sec  ( 91.9%)
  Split-RI-J                ....       3.537 sec  (  5.2% of F)
  Chain of spheres X        ....      49.022 sec  ( 72.3% of F)
  XC integration            ....      14.672 sec  ( 21.6% of F)
    Basis function eval.    ....       0.977 sec  (  6.7% of XC)
    Density eval.           ....       4.855 sec  ( 33.1% of XC)
    XC-Functional eval.     ....       0.447 sec  (  3.0% of XC)
    XC-Potential eval.      ....       6.942 sec  ( 47.3% of XC)
Diagonalization             ....       1.864 sec  (  2.5%)
Density matrix formation    ....       0.085 sec  (  0.1%)
Population analysis         ....       0.921 sec  (  1.2%)
Initial guess               ....       0.145 sec  (  0.2%)
Orbital Transformation      ....       0.000 sec  (  0.0%)
Orbital Orthonormalization  ....       0.000 sec  (  0.0%)
DIIS solution               ....       0.965 sec  (  1.3%)
Grid generation             ....       0.874 sec  (  1.2%)

Maximum memory used throughout the entire SCF-calculation: 98.7 MB

-------------------------   --------------------
FINAL SINGLE POINT ENERGY     -3032.020632459436
-------------------------   --------------------


                            ***************************************
                            *     ORCA property calculations      *
                            ***************************************

                                    ---------------------
                                    Active property flags
                                    ---------------------
   (+) Dipole Moment


------------------------------------------------------------------------------
                       ORCA ELECTRIC PROPERTIES CALCULATION
------------------------------------------------------------------------------

Dipole Moment Calculation                       ... on
Quadrupole Moment Calculation                   ... off
Polarizability Calculation                      ... off
GBWName                                         ... arbr_01_r2scan3c_wB97MV_ox.gbw
Electron density                                ... arbr_01_r2scan3c_wB97MV_ox.scfp
The origin for moment calculation is the CENTER OF MASS  = (-0.293035,  0.009030  0.000001)

-------------
DIPOLE MOMENT
-------------
                                X             Y             Z
Electronic contribution:    -31.71328       0.40621       0.00051
Nuclear contribution   :     30.47554      -0.93869       0.00008
                        -----------------------------------------
Total Dipole Moment    :     -1.23773      -0.53248       0.00059
                        -----------------------------------------
Magnitude (a.u.)       :      1.34741
Magnitude (Debye)      :      3.42485



--------------------
Rotational spectrum 
--------------------
 
Rotational constants in cm-1:     0.090750     0.012131     0.010722 
Rotational constants in MHz :  2720.605732   363.663433   321.433436 

 Dipole components along the rotational axes: 
x,y,z [a.u.] :     1.242814    -0.520512     0.000590 
x,y,z [Debye]:     3.158981    -1.323037     0.001500 

 

Timings for individual modules:

Sum of individual times         ...       74.621 sec (=   1.244 min)
GTO integral calculation        ...        0.601 sec (=   0.010 min)   0.8 %
SCF iterations                  ...       74.019 sec (=   1.234 min)  99.2 %
                             ****ORCA TERMINATED NORMALLY****
TOTAL RUN TIME: 0 days 0 hours 1 minutes 15 seconds 134 msec
