
                                 *****************
                                 * O   R   C   A *
                                 *****************

                                            #,                                       
                                            ###                                      
                                            ####                                     
                                            #####                                    
                                            ######                                   
                                           ########,                                 
                                     ,,################,,,,,                         
                               ,,#################################,,                 
                          ,,##########################################,,             
                       ,#########################################, ''#####,          
                    ,#############################################,,   '####,        
                  ,##################################################,,,,####,       
                ,###########''''           ''''###############################       
              ,#####''   ,,,,##########,,,,          '''####'''          '####       
            ,##' ,,,,###########################,,,                        '##       
           ' ,,###''''                  '''############,,,                           
         ,,##''                                '''############,,,,        ,,,,,,###''
      ,#''                                            '''#######################'''  
     '                                                          ''''####''''         
             ,#######,   #######,   ,#######,      ##                                
            ,#'     '#,  ##    ##  ,#'     '#,    #''#        ######   ,####,        
            ##       ##  ##   ,#'  ##            #'  '#       #        #'  '#        
            ##       ##  #######   ##           ,######,      #####,   #    #        
            '#,     ,#'  ##    ##  '#,     ,#' ,#      #,         ##   #,  ,#        
             '#######'   ##     ##  '#######'  #'      '#     #####' # '####'        



                  #######################################################
                  #                        -***-                        #
                  #          Department of theory and spectroscopy      #
                  #    Directorship and core code : Frank Neese         #
                  #        Max Planck Institute fuer Kohlenforschung    #
                  #                Kaiser Wilhelm Platz 1               #
                  #                 D-45470 Muelheim/Ruhr               #
                  #                      Germany                        #
                  #                                                     #
                  #                  All rights reserved                #
                  #                        -***-                        #
                  #######################################################


                         Program Version 5.0.4 -  RELEASE  -


 With contributions from (in alphabetic order):
   Daniel Aravena         : Magnetic Suceptibility
   Michael Atanasov       : Ab Initio Ligand Field Theory (pilot matlab implementation)
   Alexander A. Auer      : GIAO ZORA, VPT2 properties, NMR spectrum
   Ute Becker             : Parallelization
   Giovanni Bistoni       : ED, misc. LED, open-shell LED, HFLD
   Martin Brehm           : Molecular dynamics
   Dmytro Bykov           : SCF Hessian
   Vijay G. Chilkuri      : MRCI spin determinant printing, contributions to CSF-ICE
   Dipayan Datta          : RHF DLPNO-CCSD density
   Achintya Kumar Dutta   : EOM-CC, STEOM-CC
   Dmitry Ganyushin       : Spin-Orbit,Spin-Spin,Magnetic field MRCI
   Miquel Garcia          : C-PCM and meta-GGA Hessian, CC/C-PCM, Gaussian charge scheme
   Yang Guo               : DLPNO-NEVPT2, F12-NEVPT2, CIM, IAO-localization
   Andreas Hansen         : Spin unrestricted coupled pair/coupled cluster methods
   Benjamin Helmich-Paris : MC-RPA, TRAH-SCF, COSX integrals
   Lee Huntington         : MR-EOM, pCC
   Robert Izsak           : Overlap fitted RIJCOSX, COSX-SCS-MP3, EOM
   Marcus Kettner         : VPT2
   Christian Kollmar      : KDIIS, OOCD, Brueckner-CCSD(T), CCSD density, CASPT2, CASPT2-K
   Simone Kossmann        : Meta GGA functionals, TD-DFT gradient, OOMP2, MP2 Hessian
   Martin Krupicka        : Initial AUTO-CI
   Lucas Lang             : DCDCAS
   Marvin Lechner         : AUTO-CI (C++ implementation), FIC-MRCC
   Dagmar Lenk            : GEPOL surface, SMD
   Dimitrios Liakos       : Extrapolation schemes; Compound Job, initial MDCI parallelization
   Dimitrios Manganas     : Further ROCIS development; embedding schemes
   Dimitrios Pantazis     : SARC Basis sets
   Anastasios Papadopoulos: AUTO-CI, single reference methods and gradients
   Taras Petrenko         : DFT Hessian,TD-DFT gradient, ASA, ECA, R-Raman, ABS, FL, XAS/XES, NRVS
   Peter Pinski           : DLPNO-MP2, DLPNO-MP2 Gradient
   Christoph Reimann      : Effective Core Potentials
   Marius Retegan         : Local ZFS, SOC
   Christoph Riplinger    : Optimizer, TS searches, QM/MM, DLPNO-CCSD(T), (RO)-DLPNO pert. Triples
   Tobias Risthaus        : Range-separated hybrids, TD-DFT gradient, RPA, STAB
   Michael Roemelt        : Original ROCIS implementation
   Masaaki Saitow         : Open-shell DLPNO-CCSD energy and density
   Barbara Sandhoefer     : DKH picture change effects
   Avijit Sen             : IP-ROCIS
   Kantharuban Sivalingam : CASSCF convergence, NEVPT2, FIC-MRCI
   Bernardo de Souza      : ESD, SOC TD-DFT
   Georgi Stoychev        : AutoAux, RI-MP2 NMR, DLPNO-MP2 response
   Willem Van den Heuvel  : Paramagnetic NMR
   Boris Wezisla          : Elementary symmetry handling
   Frank Wennmohs         : Technical directorship


 We gratefully acknowledge several colleagues who have allowed us to
 interface, adapt or use parts of their codes:
   Stefan Grimme, W. Hujo, H. Kruse, P. Pracht,  : VdW corrections, initial TS optimization,
                  C. Bannwarth, S. Ehlert          DFT functionals, gCP, sTDA/sTD-DF
   Ed Valeev, F. Pavosevic, A. Kumar             : LibInt (2-el integral package), F12 methods
   Garnet Chan, S. Sharma, J. Yang, R. Olivares  : DMRG
   Ulf Ekstrom                                   : XCFun DFT Library
   Mihaly Kallay                                 : mrcc  (arbitrary order and MRCC methods)
   Jiri Pittner, Ondrej Demel                    : Mk-CCSD
   Frank Weinhold                                : gennbo (NPA and NBO analysis)
   Christopher J. Cramer and Donald G. Truhlar   : smd solvation model
   Lars Goerigk                                  : TD-DFT with DH, B97 family of functionals
   V. Asgeirsson, H. Jonsson                     : NEB implementation
   FAccTs GmbH                                   : IRC, NEB, NEB-TS, DLPNO-Multilevel, CI-OPT
                                                   MM, QMMM, 2- and 3-layer-ONIOM, Crystal-QMMM,
                                                   LR-CPCM, SF, NACMEs, symmetry and pop. for TD-DFT,
                                                   nearIR, NL-DFT gradient (VV10), updates on ESD,
                                                   ML-optimized integration grids
   S Lehtola, MJT Oliveira, MAL Marques          : LibXC Library
   Liviu Ungur et al                             : ANISO software


 Your calculation uses the libint2 library for the computation of 2-el integrals
 For citations please refer to: http://libint.valeyev.net

 Your ORCA version has been built with support for libXC version: 5.1.0
 For citations please refer to: https://tddft.org/programs/libxc/

 This ORCA versions uses:
   CBLAS   interface :  Fast vector & matrix operations
   LAPACKE interface :  Fast linear algebra routines
   SCALAPACK package :  Parallel linear algebra routines
   Shared memory     :  Shared parallel matrices
   BLAS/LAPACK       :  OpenBLAS 0.3.15  USE64BITINT DYNAMIC_ARCH NO_AFFINITY SkylakeX SINGLE_THREADED
        Core in use  :  SkylakeX
   Copyright (c) 2011-2014, The OpenBLAS Project


Your calculation utilizes the DFT-NL dispersion correction.
Cite in your paper:
Vydrov, O. A.; Van Voorhis, T. J. Chem. Phys. 2010, 133, 244103
Hujo, W.; Grimme, S. J. Chem. Theory Comput. 2011, 7, 3866 
   

================================================================================

----- Orbital basis set information -----
Your calculation utilizes the basis: def2-TZVPP
   F. Weigend and R. Ahlrichs, Phys. Chem. Chem. Phys. 7, 3297 (2005).

----- AuxJ basis set information -----
Your calculation utilizes the auxiliary basis: def2/J
   F. Weigend, Phys. Chem. Chem. Phys. 8, 1057 (2006).

================================================================================
                                        WARNINGS
                       Please study these warnings very carefully!
================================================================================

Using LibXC functional ID 531 : wB97M-V exchange-correlation functional
[ 1]  N. Mardirossian and M. Head-Gordon, J. Chem. Phys. 144, 214110 (2016)
Using LibXC functional ID 531 : wB97M-V exchange-correlation functional
[ 1]  N. Mardirossian and M. Head-Gordon, J. Chem. Phys. 144, 214110 (2016)

WARNING: B97M-V or wB97M-V functional requested.
  ===> : libXC variant has now been activated.
         Any manually given DFX/HFX/RangeSep scaling parameters are IGNORED!

Your calculation utilizes LibXC
 by S Lehtola, C Steigemann, MJT Oliveira & MAL Marques
Please cite in your paper:
 S Lehtola, C Steigemann, MJT Oliveira & MAL Marques, SoftwareX, 7, (2018), 1.
   


WARNING: your system is open-shell and RHF/RKS was chosen
  ===> : WILL SWITCH to UHF/UKS


INFO   : the flag for use of the SHARK integral package has been found!

================================================================================
                                       INPUT FILE
================================================================================
NAME = arbr_23_r2scan3c_wB97MV_ox.inp
|  1> %PAL NPROCS 16 END
|  2> %maxcore 4000
|  3> # arbr_23_r2scan3c.out
|  4> ! wB97m-v def2-TZVPP def2/J RIJCOSX Hirshfeld
|  5> * xyz 1 2
|  6>    C        4.80170        -1.17987         1.26413
|  7>    C        4.64794        -0.34572         0.00004
|  8>    C        4.80204        -1.17948        -1.26427
|  9>    C        5.63485         0.81110         0.00034
| 10>    O        3.35731         0.33378        -0.00001
| 11>    C        2.21797        -0.36439        -0.00012
| 12>    O        2.12251        -1.56567        -0.00005
| 13>    N        1.17012         0.52663        -0.00009
| 14>    C       -0.18200         0.23541        -0.00006
| 15>    C       -0.68859        -1.06954        -0.00007
| 16>    C       -2.05338        -1.29074        -0.00005
| 17>    C       -2.94828        -0.22848        -0.00000
| 18>   Br       -4.81123        -0.55755         0.00003
| 19>    C       -2.47176         1.06252         0.00001
| 20>    C       -1.09874         1.31012        -0.00002
| 21>    C       -0.69454         2.72296        -0.00000
| 22>    O        0.44028         3.14244        -0.00002
| 23>    H        4.11949        -2.02619         1.26725
| 24>    H        4.61404        -0.56332         2.14437
| 25>    H        5.82534        -1.55257         1.32032
| 26>    H        5.82571        -1.55212        -1.32032
| 27>    H        4.11987        -2.02583        -1.26782
| 28>    H        4.61458        -0.56268        -2.14437
| 29>    H        6.65437         0.42566         0.00042
| 30>    H        5.49339         1.43080         0.88585
| 31>    H        5.49362         1.43107        -0.88502
| 32>    H        1.41159         1.51168        -0.00008
| 33>    H       -0.00732        -1.90373        -0.00011
| 34>    H       -2.42688        -2.30589        -0.00006
| 35>    H       -3.15826         1.90030         0.00004
| 36>    H       -1.54126         3.43296         0.00003
| 37> *
| 38> 
| 39>                          ****END OF INPUT****
================================================================================

                       ****************************
                       * Single Point Calculation *
                       ****************************

---------------------------------
CARTESIAN COORDINATES (ANGSTROEM)
---------------------------------
  C      4.801700   -1.179870    1.264130
  C      4.647940   -0.345720    0.000040
  C      4.802040   -1.179480   -1.264270
  C      5.634850    0.811100    0.000340
  O      3.357310    0.333780   -0.000010
  C      2.217970   -0.364390   -0.000120
  O      2.122510   -1.565670   -0.000050
  N      1.170120    0.526630   -0.000090
  C     -0.182000    0.235410   -0.000060
  C     -0.688590   -1.069540   -0.000070
  C     -2.053380   -1.290740   -0.000050
  C     -2.948280   -0.228480   -0.000000
  Br    -4.811230   -0.557550    0.000030
  C     -2.471760    1.062520    0.000010
  C     -1.098740    1.310120   -0.000020
  C     -0.694540    2.722960   -0.000000
  O      0.440280    3.142440   -0.000020
  H      4.119490   -2.026190    1.267250
  H      4.614040   -0.563320    2.144370
  H      5.825340   -1.552570    1.320320
  H      5.825710   -1.552120   -1.320320
  H      4.119870   -2.025830   -1.267820
  H      4.614580   -0.562680   -2.144370
  H      6.654370    0.425660    0.000420
  H      5.493390    1.430800    0.885850
  H      5.493620    1.431070   -0.885020
  H      1.411590    1.511680   -0.000080
  H     -0.007320   -1.903730   -0.000110
  H     -2.426880   -2.305890   -0.000060
  H     -3.158260    1.900300    0.000040
  H     -1.541260    3.432960    0.000030

----------------------------
CARTESIAN COORDINATES (A.U.)
----------------------------
  NO LB      ZA    FRAG     MASS         X           Y           Z
   0 C     6.0000    0    12.011    9.073898   -2.229631    2.388859
   1 C     6.0000    0    12.011    8.783334   -0.653316    0.000076
   2 C     6.0000    0    12.011    9.074540   -2.228894   -2.389124
   3 C     6.0000    0    12.011   10.648323    1.532757    0.000643
   4 O     8.0000    0    15.999    6.344396    0.630753   -0.000019
   5 C     6.0000    0    12.011    4.191356   -0.688597   -0.000227
   6 O     8.0000    0    15.999    4.010963   -2.958688   -0.000094
   7 N     7.0000    0    14.007    2.211206    0.995186   -0.000170
   8 C     6.0000    0    12.011   -0.343930    0.444860   -0.000113
   9 C     6.0000    0    12.011   -1.301247   -2.021138   -0.000132
  10 C     6.0000    0    12.011   -3.880326   -2.439145   -0.000094
  11 C     6.0000    0    12.011   -5.571442   -0.431765   -0.000000
  12 Br   35.0000    0    79.900   -9.091907   -1.053617    0.000057
  13 C     6.0000    0    12.011   -4.670949    2.007872    0.000019
  14 C     6.0000    0    12.011   -2.076318    2.475768   -0.000038
  15 C     6.0000    0    12.011   -1.312490    5.145649   -0.000000
  16 O     8.0000    0    15.999    0.832009    5.938351   -0.000038
  17 H     1.0000    0     1.008    7.784708   -3.828944    2.394755
  18 H     1.0000    0     1.008    8.719272   -1.064521    4.052272
  19 H     1.0000    0     1.008   11.008297   -2.933932    2.495043
  20 H     1.0000    0     1.008   11.008996   -2.933082   -2.495043
  21 H     1.0000    0     1.008    7.785426   -3.828264   -2.395833
  22 H     1.0000    0     1.008    8.720292   -1.063311   -4.052272
  23 H     1.0000    0     1.008   12.574937    0.804381    0.000794
  24 H     1.0000    0     1.008   10.381003    2.703820    1.674014
  25 H     1.0000    0     1.008   10.381437    2.704330   -1.672445
  26 H     1.0000    0     1.008    2.667519    2.856661   -0.000151
  27 H     1.0000    0     1.008   -0.013833   -3.597528   -0.000208
  28 H     1.0000    0     1.008   -4.586139   -4.357501   -0.000113
  29 H     1.0000    0     1.008   -5.968246    3.591047    0.000076
  30 H     1.0000    0     1.008   -2.912559    6.487354    0.000057

--------------------------------
INTERNAL COORDINATES (ANGSTROEM)
--------------------------------
 C      0   0   0     0.000000000000     0.00000000     0.00000000
 C      1   0   0     1.522291656746     0.00000000     0.00000000
 C      2   1   0     1.522295084305   112.29153683     0.00000000
 C      2   1   3     1.520599865349   110.55751462   236.00976467
 O      2   1   3     1.458576720437   110.16212845   123.18788594
 C      5   2   1     1.336239872403   120.73444989   297.79573150
 O      6   5   2     1.205066908889   126.04280008     0.00000000
 N      6   5   2     1.375465835199   108.12510848   179.99766049
 C      8   6   5     1.383126018734   127.46972919   180.00597990
 C      9   8   6     1.399831393669   123.37123805     0.00000000
 C     10   9   8     1.382599430240   120.42276146   180.00055618
 C     11  10   9     1.388971677213   120.90620435     0.00000000
 Br    12  11  10     1.891790096258   120.09508412   180.00012353
 C     12  11  10     1.376136733940   119.62799892     0.00000000
 C     14  12  11     1.395166542496   120.48198877     0.00000000
 C     15  14  12     1.469521863056   116.18773913   180.00026657
 O     16  15  14     1.209867721365   126.25187568   179.99998983
 H      1   2   3     1.087050026862   111.44479778   305.42411640
 H      1   2   3     1.090950336037   110.05672239   184.05631327
 H      1   2   3     1.090826042823   108.95212398    65.52612989
 H      3   2   1     1.090826494453   108.95180305   294.47116039
 H      3   2   1     1.087049600478   111.44525813    54.57296294
 H      3   2   1     1.090944316452   110.05736659   175.94140476
 H      4   2   1     1.089947260375   109.75865181    62.49023310
 H      4   2   1     1.090030725117   110.39189937   302.55797123
 H      4   2   1     1.090032588228   110.39216057   182.42332745
 H      8   6   5     1.014214604263   116.60198121     0.00000000
 H     10   9   8     1.077033783407   119.54548858     0.00000000
 H     11  10   9     1.081680069429   119.40610530   179.99988620
 H     14  12  11     1.083123990732   120.40829693   179.99945976
 H     16  15  14     1.105004415964   114.01551860     0.00000000

---------------------------
INTERNAL COORDINATES (A.U.)
---------------------------
 C      0   0   0     0.000000000000     0.00000000     0.00000000
 C      1   0   0     2.876714327204     0.00000000     0.00000000
 C      2   1   0     2.876720804352   112.29153683     0.00000000
 C      2   1   3     2.873517304788   110.55751462   236.00976467
 O      2   1   3     2.756310546938   110.16212845   123.18788594
 C      5   2   1     2.525127408068   120.73444989   297.79573150
 O      6   5   2     2.277246430852   126.04280008     0.00000000
 N      6   5   2     2.599253735092   108.12510848   179.99766049
 C      8   6   5     2.613729384109   127.46972919   180.00597990
 C      9   8   6     2.645297967699   123.37123805     0.00000000
 C     10   9   8     2.612734276069   120.42276146   180.00055618
 C     11  10   9     2.624776077706   120.90620435     0.00000000
 Br    12  11  10     3.574965184792   120.09508412   180.00012353
 C     12  11  10     2.600521549976   119.62799892     0.00000000
 C     14  12  11     2.636482676527   120.48198877     0.00000000
 C     15  14  12     2.776993868986   116.18773913   180.00026657
 O     16  15  14     2.286318651650   126.25187568   179.99998983
 H      1   2   3     2.054226844640   111.44479778   305.42411640
 H      1   2   3     2.061597360820   110.05672239   184.05631327
 H      1   2   3     2.061362480684   108.95212398    65.52612989
 H      3   2   1     2.061363334141   108.95180305   294.47116039
 H      3   2   1     2.054226038892   111.44525813    54.57296294
 H      3   2   1     2.061585985453   110.05736659   175.94140476
 H      4   2   1     2.059701822527   109.75865181    62.49023310
 H      4   2   1     2.059859548032   110.39189937   302.55797123
 H      4   2   1     2.059863068801   110.39216057   182.42332745
 H      8   6   5     1.916587843080   116.60198121     0.00000000
 H     10   9   8     2.035298887620   119.54548858     0.00000000
 H     11  10   9     2.044079095742   119.40610530   179.99988620
 H     14  12  11     2.046807711564   120.40829693   179.99945976
 H     16  15  14     2.088155722946   114.01551860     0.00000000

---------------------
BASIS SET INFORMATION
---------------------
There are 5 groups of distinct atoms

 Group   1 Type C   : 11s6p2d1f contracted to 5s3p2d1f pattern {62111/411/11/1}
 Group   2 Type O   : 11s6p2d1f contracted to 5s3p2d1f pattern {62111/411/11/1}
 Group   3 Type N   : 11s6p2d1f contracted to 5s3p2d1f pattern {62111/411/11/1}
 Group   4 Type Br  : 17s13p8d1f contracted to 6s5p4d1f pattern {842111/64111/5111/1}
 Group   5 Type H   : 5s2p1d contracted to 3s2p1d pattern {311/11/1}

Atom   0C    basis set group =>   1
Atom   1C    basis set group =>   1
Atom   2C    basis set group =>   1
Atom   3C    basis set group =>   1
Atom   4O    basis set group =>   2
Atom   5C    basis set group =>   1
Atom   6O    basis set group =>   2
Atom   7N    basis set group =>   3
Atom   8C    basis set group =>   1
Atom   9C    basis set group =>   1
Atom  10C    basis set group =>   1
Atom  11C    basis set group =>   1
Atom  12Br   basis set group =>   4
Atom  13C    basis set group =>   1
Atom  14C    basis set group =>   1
Atom  15C    basis set group =>   1
Atom  16O    basis set group =>   2
Atom  17H    basis set group =>   5
Atom  18H    basis set group =>   5
Atom  19H    basis set group =>   5
Atom  20H    basis set group =>   5
Atom  21H    basis set group =>   5
Atom  22H    basis set group =>   5
Atom  23H    basis set group =>   5
Atom  24H    basis set group =>   5
Atom  25H    basis set group =>   5
Atom  26H    basis set group =>   5
Atom  27H    basis set group =>   5
Atom  28H    basis set group =>   5
Atom  29H    basis set group =>   5
Atom  30H    basis set group =>   5
---------------------------------
AUXILIARY/J BASIS SET INFORMATION
---------------------------------
There are 5 groups of distinct atoms

 Group   1 Type C   : 12s5p4d2f1g contracted to 6s4p3d1f1g pattern {711111/2111/211/2/1}
 Group   2 Type O   : 12s5p4d2f1g contracted to 6s4p3d1f1g pattern {711111/2111/211/2/1}
 Group   3 Type N   : 12s5p4d2f1g contracted to 6s4p3d1f1g pattern {711111/2111/211/2/1}
 Group   4 Type Br  : 19s5p5d3f1g contracted to 8s4p3d2f1g pattern {121111111/2111/311/21/1}
 Group   5 Type H   : 5s2p1d contracted to 3s1p1d pattern {311/2/1}

Atom   0C    basis set group =>   1
Atom   1C    basis set group =>   1
Atom   2C    basis set group =>   1
Atom   3C    basis set group =>   1
Atom   4O    basis set group =>   2
Atom   5C    basis set group =>   1
Atom   6O    basis set group =>   2
Atom   7N    basis set group =>   3
Atom   8C    basis set group =>   1
Atom   9C    basis set group =>   1
Atom  10C    basis set group =>   1
Atom  11C    basis set group =>   1
Atom  12Br   basis set group =>   4
Atom  13C    basis set group =>   1
Atom  14C    basis set group =>   1
Atom  15C    basis set group =>   1
Atom  16O    basis set group =>   2
Atom  17H    basis set group =>   5
Atom  18H    basis set group =>   5
Atom  19H    basis set group =>   5
Atom  20H    basis set group =>   5
Atom  21H    basis set group =>   5
Atom  22H    basis set group =>   5
Atom  23H    basis set group =>   5
Atom  24H    basis set group =>   5
Atom  25H    basis set group =>   5
Atom  26H    basis set group =>   5
Atom  27H    basis set group =>   5
Atom  28H    basis set group =>   5
Atom  29H    basis set group =>   5
Atom  30H    basis set group =>   5


           ************************************************************
           *        Program running with 16 parallel MPI-processes    *
           *              working on a common directory               *
           ************************************************************
------------------------------------------------------------------------------
                           ORCA GTO INTEGRAL CALCULATION
                           -- RI-GTO INTEGRALS CHOSEN --
------------------------------------------------------------------------------
------------------------------------------------------------------------------
                   ___                                                        
                  /   \      - P O W E R E D   B Y -                         
                 /     \                                                     
                 |  |  |   _    _      __       _____    __    __             
                 |  |  |  | |  | |    /  \     |  _  \  |  |  /  |          
                  \  \/   | |  | |   /    \    | | | |  |  | /  /          
                 / \  \   | |__| |  /  /\  \   | |_| |  |  |/  /          
                |  |  |   |  __  | /  /__\  \  |    /   |      \           
                |  |  |   | |  | | |   __   |  |    \   |  |\   \          
                \     /   | |  | | |  |  |  |  | |\  \  |  | \   \       
                 \___/    |_|  |_| |__|  |__|  |_| \__\ |__|  \__/        
                                                                              
                      - O R C A' S   B I G   F R I E N D -                    
                                      &                                       
                       - I N T E G R A L  F E E D E R -                       
                                                                              
 v1 FN, 2020, v2 2021                                                         
------------------------------------------------------------------------------


Reading SHARK input file arbr_23_r2scan3c_wB97MV_ox.SHARKINP.tmp ... ok
----------------------
SHARK INTEGRAL PACKAGE
----------------------

Number of atoms                             ...     31
Number of basis functions                   ...    740
Number of shells                            ...    276
Maximum angular momentum                    ...      3
Integral batch strategy                     ... SHARK/LIBINT Hybrid
RI-J (if used) integral strategy            ... SPLIT-RIJ (Revised 2003 algorithm where possible)
Printlevel                                  ...      1
Contraction scheme used                     ... SEGMENTED contraction
Coulomb Range Separation                    ... NOT USED
Exchange Range Separation                   ... Long Range
   Mu parameter                             ...  0.300000
   Scaling (regular/separated)              ...  0.150000  0.850000
Finite Nucleus Model                        ... NOT USED
Auxiliary Coulomb fitting basis             ... AVAILABLE
   # of basis functions in Aux-J            ...    996
   # of shells in Aux-J                     ...    328
   Maximum angular momentum in Aux-J        ...      4
Auxiliary J/K fitting basis                 ... NOT available
Auxiliary Correlation fitting basis         ... NOT available
Auxiliary 'external' fitting basis          ... NOT available
Integral threshold                          ...     1.000000e-10
Primitive cut-off                           ...     1.000000e-11
Primitive pair pre-selection threshold      ...     1.000000e-11

Calculating pre-screening integrals         ... done (  0.1 sec) Dimension = 276
Organizing shell pair data                  ... done (  0.3 sec)
Shell pair information
Total number of shell pairs                 ...     38226
Shell pairs after pre-screening             ...     25823
Total number of primitive shell pairs       ...    111616
Primitive shell pairs kept                  ...     51694
          la=0 lb=0:   5604 shell pairs
          la=1 lb=0:   7325 shell pairs
          la=1 lb=1:   2439 shell pairs
          la=2 lb=0:   4054 shell pairs
          la=2 lb=1:   2706 shell pairs
          la=2 lb=2:    754 shell pairs
          la=3 lb=0:   1418 shell pairs
          la=3 lb=1:    923 shell pairs
          la=3 lb=2:    500 shell pairs
          la=3 lb=3:    100 shell pairs

Calculating one electron integrals          ... done (  0.0 sec)
Calculating RI/J V-Matrix + Cholesky decomp.... done (  0.0 sec)
Calculating Nuclear repulsion               ... done (  0.0 sec) ENN=   1497.847252480659 Eh

SHARK setup successfully completed in   0.7 seconds

Maximum memory used throughout the entire GTOINT-calculation: 42.0 MB


           ************************************************************
           *        Program running with 16 parallel MPI-processes    *
           *              working on a common directory               *
           ************************************************************
-------------------------------------------------------------------------------
                                 ORCA SCF
-------------------------------------------------------------------------------

------------
SCF SETTINGS
------------
Hamiltonian:
 Density Functional     Method          .... DFT(GTOs)
  Functional kind                       .... Exchange-Correlation
  Functional name                       .... wB97M-V exchange-correlation functional
  Functional family                     .... Hybrid MGGA
  Functional refs                              
    [ 0] N. Mardirossian and M. Head-Gordon, J. Chem. Phys. 144, 214110 (2016)
  Fraction of HF Exchange (short range) .... 0.1500
  Fraction of HF Exchange (long range)  .... 1.0000
  Range separation parameter mu         .... 0.3000
  Functional external parameters         .... 0
   Density functional embedding theory  .... OFF
 Long-range corrected/Screened/Range-Separated Hybrid DFT is turned on
   Amount of maximum screened exact exchange              ....  0.850000
   Range separation parameter mu (erf(mu*r12)/r12)        ....  0.300000
   NL short-range parameter             ....  6.000000
   NL long-range parameter              ....  0.010000
 RI-approximation to the Coulomb term is turned on
   Number of AuxJ basis functions       .... 996
   RIJ-COSX (HFX calculated with COS-X)).... on


General Settings:
 Integral files         IntName         .... arbr_23_r2scan3c_wB97MV_ox
 Hartree-Fock type      HFTyp           .... UHF
 Total Charge           Charge          ....    1
 Multiplicity           Mult            ....    2
 Number of Electrons    NEL             ....  151
 Basis Dimension        Dim             ....  740
 Nuclear Repulsion      ENuc            ....   1497.8472524807 Eh

Convergence Acceleration:
 DIIS                   CNVDIIS         .... on
   Start iteration      DIISMaxIt       ....    12
   Startup error        DIISStart       ....  0.200000
   # of expansion vecs  DIISMaxEq       ....     5
   Bias factor          DIISBfac        ....   1.050
   Max. coefficient     DIISMaxC        ....  10.000
 Trust-Rad. Augm. Hess. CNVTRAH         .... auto
   Auto Start mean grad. ratio tolernc. ....  1.125000
   Auto Start start iteration           ....    20
   Auto Start num. interpolation iter.  ....    10
   Max. Number of Micro iterations      ....    16
   Max. Number of Macro iterations      .... Maxiter - #DIIS iter
   Number of Davidson start vectors     ....     2
   Converg. threshold I  (grad. norm)   ....   5.000e-05
   Converg. threshold II (energy diff.) ....   1.000e-06
   Grad. Scal. Fac. for Micro threshold ....   0.100
   Minimum threshold for Micro iter.    ....   0.010
   NR start threshold (gradient norm)   ....   0.001
   Initial trust radius                 ....   0.400
   Minimum AH scaling param. (alpha)    ....   1.000
   Maximum AH scaling param. (alpha)    .... 1000.000
   Orbital update algorithm             .... Taylor
   White noise on init. David. guess    .... on
   Maximum white noise                  ....   0.010
   Quad. conv. algorithm                .... NR
 SOSCF                  CNVSOSCF        .... off
 Level Shifting         CNVShift        .... on
   Level shift para.    LevelShift      ....    0.2500
   Turn off err/grad.   ShiftErr        ....    0.0010
 Zerner damping         CNVZerner       .... off
 Static damping         CNVDamp         .... on
   Fraction old density DampFac         ....    0.7000
   Max. Damping (<1)    DampMax         ....    0.9800
   Min. Damping (>=0)   DampMin         ....    0.0000
   Turn off err/grad.   DampErr         ....    0.1000
 Fernandez-Rico         CNVRico         .... off

SCF Procedure:
 Maximum # iterations   MaxIter         ....   125
 SCF integral mode      SCFMode         .... Direct
   Integral package                     .... SHARK and LIBINT hybrid scheme
 Reset frequency        DirectResetFreq ....    20
 Integral Threshold     Thresh          ....  1.000e-10 Eh
 Primitive CutOff       TCut            ....  1.000e-11 Eh

Convergence Tolerance:
 Convergence Check Mode ConvCheckMode   .... Total+1el-Energy
 Convergence forced     ConvForced      .... 0
 Energy Change          TolE            ....  1.000e-06 Eh
 1-El. energy change                    ....  1.000e-03 Eh
 DIIS Error             TolErr          ....  1.000e-06


Diagonalization of the overlap matrix:
Smallest eigenvalue                        ... 5.857e-06
Time for diagonalization                   ...    0.079 sec
Threshold for overlap eigenvalues          ... 1.000e-08
Number of eigenvalues below threshold      ... 0
Time for construction of square roots      ...    0.040 sec
Total time needed                          ...    0.122 sec

Time for model grid setup =    0.156 sec

------------------------------
INITIAL GUESS: MODEL POTENTIAL
------------------------------
Loading Hartree-Fock densities                     ... done
Calculating cut-offs                               ... done
Initializing the effective Hamiltonian             ... done
Setting up the integral package (SHARK)            ... done
Starting the Coulomb interaction                   ... done (   0.2 sec)
Reading the grid                                   ... done
Mapping shells                                     ... done
Starting the XC term evaluation                    ... done (   0.1 sec)
  promolecular density results
     # of electrons  =    151.995854023
     EX              =   -185.868881834
     EC              =     -5.656992472
     EX+EC           =   -191.525874306
Transforming the Hamiltonian                       ... done (   0.0 sec)
Diagonalizing the Hamiltonian                      ... done (   0.1 sec)
Back transforming the eigenvectors                 ... done (   0.0 sec)
Now organizing SCF variables                       ... done
                      ------------------
                      INITIAL GUESS DONE (   0.6 sec)
                      ------------------
-------------------
DFT GRID GENERATION
-------------------

General Integration Accuracy     IntAcc      ... 4.388
Radial Grid Type                 RadialGrid  ... OptM3 with GC (2021)
Angular Grid (max. ang.)         AngularGrid ... 4 (Lebedev-302)
Angular grid pruning method      GridPruning ... 4 (adaptive)
Weight generation scheme         WeightScheme... Becke
Basis function cutoff            BFCut       ... 1.0000e-10
Integration weight cutoff        WCut        ... 1.0000e-14
Angular grids for H and He will be reduced by one unit
Partially contracted basis set               ... off
Rotationally invariant grid construction     ... off

Total number of grid points                  ...   151838
Total number of batches                      ...     2388
Average number of points per batch           ...       63
Average number of grid points per atom       ...     4898
Time for grid setup =    0.701 sec

--------------------
COSX GRID GENERATION
--------------------

GRIDX 1
-------
General Integration Accuracy     IntAcc      ... 3.816
Radial Grid Type                 RadialGrid  ... OptM3 with GC (2021)
Angular Grid (max. ang.)         AngularGrid ... 1 (Lebedev-50)
Angular grid pruning method      GridPruning ... 4 (adaptive)
Weight generation scheme         WeightScheme... Becke
Basis function cutoff            BFCut       ... 1.0000e-10
Integration weight cutoff        WCut        ... 1.0000e-14
Angular grids for H and He will be reduced by one unit
Partially contracted basis set               ... on
Rotationally invariant grid construction     ... off

Total number of grid points                  ...    19136
Total number of batches                      ...      315
Average number of points per batch           ...       60
Average number of grid points per atom       ...      617
UseSFitting                                  ... on

GRIDX 2
-------
General Integration Accuracy     IntAcc      ... 4.020
Radial Grid Type                 RadialGrid  ... OptM3 with GC (2021)
Angular Grid (max. ang.)         AngularGrid ... 2 (Lebedev-110)
Angular grid pruning method      GridPruning ... 4 (adaptive)
Weight generation scheme         WeightScheme... Becke
Basis function cutoff            BFCut       ... 1.0000e-10
Integration weight cutoff        WCut        ... 1.0000e-14
Angular grids for H and He will be reduced by one unit
Partially contracted basis set               ... on
Rotationally invariant grid construction     ... off

Total number of grid points                  ...    41413
Total number of batches                      ...      662
Average number of points per batch           ...       62
Average number of grid points per atom       ...     1336
UseSFitting                                  ... on

GRIDX 3
-------
General Integration Accuracy     IntAcc      ... 4.338
Radial Grid Type                 RadialGrid  ... OptM3 with GC (2021)
Angular Grid (max. ang.)         AngularGrid ... 3 (Lebedev-194)
Angular grid pruning method      GridPruning ... 4 (adaptive)
Weight generation scheme         WeightScheme... Becke
Basis function cutoff            BFCut       ... 1.0000e-10
Integration weight cutoff        WCut        ... 1.0000e-14
Angular grids for H and He will be reduced by one unit
Partially contracted basis set               ... on
Rotationally invariant grid construction     ... off

Total number of grid points                  ...    90846
Total number of batches                      ...     1436
Average number of points per batch           ...       63
Average number of grid points per atom       ...     2931
UseSFitting                                  ... on

Time for X-Grid setup             =    0.767 sec

--------------
SCF ITERATIONS
--------------
ITER       Energy         Delta-E        Max-DP      RMS-DP      [F,P]     Damp
               ***  Starting incremental Fock matrix formation  ***
  0  -3319.9746573817   0.000000000000 0.02415113  0.00033403  0.1428602 0.7000
  1  -3320.1854350940  -0.210777712314 0.02493383  0.00026393  0.0696393 0.7000
                               ***Turning on DIIS***
  2  -3320.2863443642  -0.100909270191 0.05501932  0.00053290  0.0275308 0.0000
  3  -3320.4508169108  -0.164472546576 0.02644906  0.00019732  0.0329124 0.0000
  4  -3320.4806073373  -0.029790426505 0.01259815  0.00008871  0.0067090 0.0000
  5  -3320.4830800784  -0.002472741077 0.00767386  0.00005869  0.0073331 0.0000
  6  -3320.4845434787  -0.001463400350 0.00755225  0.00004910  0.0064302 0.0000
  7  -3320.4856406681  -0.001097189356 0.00758581  0.00004052  0.0054334 0.0000
  8  -3320.4864502173  -0.000809549178 0.00616306  0.00003014  0.0039330 0.0000
  9  -3320.4869403986  -0.000490181304 0.00470036  0.00002265  0.0028206 0.0000
 10  -3320.4872374085  -0.000297009906 0.00349753  0.00001749  0.0018090 0.0000
 11  -3320.4874202793  -0.000182870787 0.00276641  0.00001618  0.0012725 0.0000
 12  -3320.4875370371  -0.000116757855 0.00381316  0.00001836  0.0009257 0.0000
               *** Restarting incremental Fock matrix formation ***
                                   *** Resetting DIIS ***
 13  -3320.4876253894  -0.000088352261 0.00391689  0.00003848  0.0005084 0.0000
 14  -3320.4876345537  -0.000009164281 0.00027521  0.00000248  0.0005414 0.0000
 15  -3320.4876396232  -0.000005069524 0.00045788  0.00000370  0.0002461 0.0000
 16  -3320.4876456696  -0.000006046364 0.00032591  0.00000274  0.0001762 0.0000
 17  -3320.4876484986  -0.000002829046 0.00024816  0.00000203  0.0001273 0.0000
 18  -3320.4876492580  -0.000000759367 0.00010994  0.00000104  0.0000584 0.0000
                 **** Energy Check signals convergence ****

               *****************************************************
               *                     SUCCESS                       *
               *           SCF CONVERGED AFTER  19 CYCLES          *
               *****************************************************

Old exchange energy                            =    -48.544142262 Eh
New exchange energy                            =    -48.544133450 Eh
Exchange energy change after final integration =      0.000008811 Eh
Total energy after final integration           =  -3320.487640595 Eh
Final COS-X integration done in                =    15.775 sec

------------------
NL GRID GENERATION
------------------

General Integration Accuracy     IntAcc      ... 4.004
Radial Grid Type                 RadialGrid  ... OptM3 with GC (2021)
Angular Grid (max. ang.)         AngularGrid ... 2 (Lebedev-110)
Angular grid pruning method      GridPruning ... 4 (adaptive)
Weight generation scheme         WeightScheme... Becke
Basis function cutoff            BFCut       ... 1.0000e-10
Integration weight cutoff        WCut        ... 1.0000e-14
Angular grids for H and He will be reduced by one unit
Partially contracted basis set               ... off
Rotationally invariant grid construction     ... off

Total number of grid points                  ...    49837
Total number of batches                      ...      795
Average number of points per batch           ...       62
Average number of grid points per atom       ...     1608
Final grid set up in    0.1 sec

-------------------------------------------------------------------------------
                    post-SCF DFT-NL dispersion correction                      
-------------------------------------------------------------------------------

SCF Energy:   -3320.487640595 
NL    Energy:  0.581914969 
SC+NL Energy: -3319.905725626 
NL done in:    0.8 sec
-------------------------------------------------------------------------------

----------------
TOTAL SCF ENERGY
----------------

Total Energy       :        -3319.90572563 Eh          -90339.22755 eV

Components:
Nuclear Repulsion  :         1497.84725248 Eh           40758.49586 eV
Electronic Energy  :        -4817.75297811 Eh         -131097.72341 eV
One Electron Energy:        -7551.43029144 Eh         -205484.86488 eV
Two Electron Energy:         2733.67731333 Eh           74387.14147 eV
Max COSX asymmetry :            0.00000062 Eh               0.00002 eV

Virial components:
Potential Energy   :        -6634.79760660 Eh         -180542.02145 eV
Kinetic Energy     :         3314.89188097 Eh           90202.79390 eV
Virial Ratio       :            2.00151252


DFT components:
N(Alpha)           :       75.999865984865 electrons
N(Beta)            :       74.999865495332 electrons
N(Total)           :      150.999731480197 electrons
NL Energy, E(C,NL) :        0.581914969133 Eh       
E(XC)              :     -145.361755681506 Eh       
DFET-embed. en.    :        0.000000000000 Eh       

---------------
SCF CONVERGENCE
---------------

  Last Energy change         ...   -1.4889e-07  Tolerance :   1.0000e-06
  Last MAX-Density change    ...    0.0000e+00  Tolerance :   1.0000e-05
  Last RMS-Density change    ...    0.0000e+00  Tolerance :   1.0000e-06
  Last DIIS Error            ...    3.4564e-05  Tolerance :   1.0000e-06

             **** THE GBW FILE WAS UPDATED (arbr_23_r2scan3c_wB97MV_ox.gbw) ****
             **** DENSITY arbr_23_r2scan3c_wB97MV_ox.scfp WAS UPDATED ****
             **** ENERGY FILE WAS UPDATED (arbr_23_r2scan3c_wB97MV_ox.en.tmp) ****
----------------------
UHF SPIN CONTAMINATION
----------------------

Warning: in a DFT calculation there is little theoretical justification to 
         calculate <S**2> as in Hartree-Fock theory. We will do it anyways
         but you should keep in mind that the values have only limited relevance

Expectation value of <S**2>     :     0.774767
Ideal value S*(S+1) for S=0.5   :     0.750000
Deviation                       :     0.024767

             **** THE GBW FILE WAS UPDATED (arbr_23_r2scan3c_wB97MV_ox.gbw) ****
             **** DENSITY arbr_23_r2scan3c_wB97MV_ox.scfp WAS UPDATED ****
----------------
ORBITAL ENERGIES
----------------
                 SPIN UP ORBITALS
  NO   OCC          E(Eh)            E(eV) 
   0   1.0000    -483.684488    -13161.7240 
   1   1.0000     -62.988648     -1714.0083 
   2   1.0000     -56.675275     -1542.2126 
   3   1.0000     -56.673553     -1542.1658 
   4   1.0000     -56.672825     -1542.1460 
   5   1.0000     -19.514684      -531.0216 
   6   1.0000     -19.506802      -530.8071 
   7   1.0000     -19.471035      -529.8338 
   8   1.0000     -14.758532      -401.6001 
   9   1.0000     -10.663263      -290.1621 
  10   1.0000     -10.626203      -289.1537 
  11   1.0000     -10.613880      -288.8183 
  12   1.0000     -10.607975      -288.6577 
  13   1.0000     -10.567367      -287.5527 
  14   1.0000     -10.562355      -287.4163 
  15   1.0000     -10.552720      -287.1541 
  16   1.0000     -10.550801      -287.1019 
  17   1.0000     -10.528813      -286.5036 
  18   1.0000     -10.433614      -283.9131 
  19   1.0000     -10.433607      -283.9129 
  20   1.0000     -10.432550      -283.8841 
  21   1.0000      -9.071478      -246.8475 
  22   1.0000      -6.857554      -186.6035 
  23   1.0000      -6.847991      -186.3433 
  24   1.0000      -6.844771      -186.2557 
  25   1.0000      -2.938671       -79.9653 
  26   1.0000      -2.936357       -79.9023 
  27   1.0000      -2.934035       -79.8392 
  28   1.0000      -2.926164       -79.6250 
  29   1.0000      -2.926004       -79.6206 
  30   1.0000      -1.399034       -38.0697 
  31   1.0000      -1.355565       -36.8868 
  32   1.0000      -1.305761       -35.5316 
  33   1.0000      -1.278905       -34.8008 
  34   1.0000      -1.203108       -32.7382 
  35   1.0000      -1.123114       -30.5615 
  36   1.0000      -1.093241       -29.7486 
  37   1.0000      -1.062520       -28.9126 
  38   1.0000      -1.034147       -28.1406 
  39   1.0000      -0.969404       -26.3788 
  40   1.0000      -0.957847       -26.0643 
  41   1.0000      -0.921877       -25.0856 
  42   1.0000      -0.920886       -25.0586 
  43   1.0000      -0.903503       -24.5856 
  44   1.0000      -0.882294       -24.0085 
  45   1.0000      -0.838478       -22.8162 
  46   1.0000      -0.816421       -22.2159 
  47   1.0000      -0.790923       -21.5221 
  48   1.0000      -0.774725       -21.0813 
  49   1.0000      -0.768181       -20.9033 
  50   1.0000      -0.753967       -20.5165 
  51   1.0000      -0.744696       -20.2642 
  52   1.0000      -0.728938       -19.8354 
  53   1.0000      -0.720575       -19.6078 
  54   1.0000      -0.716045       -19.4846 
  55   1.0000      -0.706346       -19.2207 
  56   1.0000      -0.682620       -18.5750 
  57   1.0000      -0.672890       -18.3103 
  58   1.0000      -0.670991       -18.2586 
  59   1.0000      -0.663106       -18.0440 
  60   1.0000      -0.649021       -17.6608 
  61   1.0000      -0.642318       -17.4784 
  62   1.0000      -0.634842       -17.2749 
  63   1.0000      -0.600094       -16.3294 
  64   1.0000      -0.597577       -16.2609 
  65   1.0000      -0.578818       -15.7504 
  66   1.0000      -0.575612       -15.6632 
  67   1.0000      -0.571011       -15.5380 
  68   1.0000      -0.565772       -15.3954 
  69   1.0000      -0.563484       -15.3332 
  70   1.0000      -0.556835       -15.1523 
  71   1.0000      -0.550325       -14.9751 
  72   1.0000      -0.538972       -14.6662 
  73   1.0000      -0.527983       -14.3671 
  74   1.0000      -0.520715       -14.1694 
  75   1.0000      -0.504858       -13.7379 
  76   0.0000      -0.171614        -4.6699 
  77   0.0000      -0.135523        -3.6878 
  78   0.0000      -0.086166        -2.3447 
  79   0.0000      -0.061452        -1.6722 
  80   0.0000      -0.024820        -0.6754 
  81   0.0000      -0.020654        -0.5620 
  82   0.0000      -0.011493        -0.3127 
  83   0.0000      -0.003198        -0.0870 
  84   0.0000       0.007834         0.2132 
  85   0.0000       0.032124         0.8741 
  86   0.0000       0.036330         0.9886 
  87   0.0000       0.038667         1.0522 
  88   0.0000       0.045456         1.2369 
  89   0.0000       0.047935         1.3044 
  90   0.0000       0.051070         1.3897 
  91   0.0000       0.056068         1.5257 
  92   0.0000       0.065887         1.7929 
  93   0.0000       0.075611         2.0575 
  94   0.0000       0.075907         2.0655 
  95   0.0000       0.078419         2.1339 
  96   0.0000       0.088471         2.4074 
  97   0.0000       0.097275         2.6470 
  98   0.0000       0.104486         2.8432 
  99   0.0000       0.105583         2.8731 
 100   0.0000       0.116422         3.1680 
 101   0.0000       0.122157         3.3241 
 102   0.0000       0.125524         3.4157 
 103   0.0000       0.131365         3.5746 
 104   0.0000       0.136707         3.7200 
 105   0.0000       0.137906         3.7526 
 106   0.0000       0.140103         3.8124 
 107   0.0000       0.140264         3.8168 
 108   0.0000       0.143501         3.9049 
 109   0.0000       0.147605         4.0165 
 110   0.0000       0.149767         4.0754 
 111   0.0000       0.151609         4.1255 
 112   0.0000       0.164834         4.4854 
 113   0.0000       0.168509         4.5854 
 114   0.0000       0.177679         4.8349 
 115   0.0000       0.187144         5.0924 
 116   0.0000       0.189300         5.1511 
 117   0.0000       0.190863         5.1936 
 118   0.0000       0.202264         5.5039 
 119   0.0000       0.208951         5.6858 
 120   0.0000       0.211160         5.7460 
 121   0.0000       0.213837         5.8188 
 122   0.0000       0.221857         6.0370 
 123   0.0000       0.233932         6.3656 
 124   0.0000       0.235875         6.4185 
 125   0.0000       0.245550         6.6817 
 126   0.0000       0.247597         6.7374 
 127   0.0000       0.256202         6.9716 
 128   0.0000       0.260209         7.0806 
 129   0.0000       0.267578         7.2812 
 130   0.0000       0.270506         7.3608 
 131   0.0000       0.279100         7.5947 
 132   0.0000       0.289054         7.8656 
 133   0.0000       0.298448         8.1212 
 134   0.0000       0.299778         8.1574 
 135   0.0000       0.304303         8.2805 
 136   0.0000       0.305227         8.3057 
 137   0.0000       0.314255         8.5513 
 138   0.0000       0.316318         8.6074 
 139   0.0000       0.329465         8.9652 
 140   0.0000       0.329880         8.9765 
 141   0.0000       0.332972         9.0606 
 142   0.0000       0.343520         9.3477 
 143   0.0000       0.346652         9.4329 
 144   0.0000       0.352654         9.5962 
 145   0.0000       0.358089         9.7441 
 146   0.0000       0.374525        10.1914 
 147   0.0000       0.381870        10.3912 
 148   0.0000       0.385242        10.4830 
 149   0.0000       0.385524        10.4906 
 150   0.0000       0.394632        10.7385 
 151   0.0000       0.398385        10.8406 
 152   0.0000       0.400083        10.8868 
 153   0.0000       0.404430        11.0051 
 154   0.0000       0.412436        11.2230 
 155   0.0000       0.417834        11.3699 
 156   0.0000       0.419164        11.4060 
 157   0.0000       0.424461        11.5502 
 158   0.0000       0.433914        11.8074 
 159   0.0000       0.434660        11.8277 
 160   0.0000       0.439101        11.9485 
 161   0.0000       0.445268        12.1164 
 162   0.0000       0.453570        12.3423 
 163   0.0000       0.454066        12.3558 
 164   0.0000       0.460736        12.5373 
 165   0.0000       0.471304        12.8248 
 166   0.0000       0.475953        12.9514 
 167   0.0000       0.487308        13.2603 
 168   0.0000       0.489316        13.3150 
 169   0.0000       0.498945        13.5770 
 170   0.0000       0.504724        13.7342 
 171   0.0000       0.505848        13.7648 
 172   0.0000       0.518189        14.1006 
 173   0.0000       0.518206        14.1011 
 174   0.0000       0.529395        14.4056 
 175   0.0000       0.541192        14.7266 
 176   0.0000       0.551874        15.0173 
 177   0.0000       0.557015        15.1571 
 178   0.0000       0.557192        15.1620 
 179   0.0000       0.563419        15.3314 
 180   0.0000       0.569768        15.5042 
 181   0.0000       0.571938        15.5632 
 182   0.0000       0.591611        16.0985 
 183   0.0000       0.596698        16.2370 
 184   0.0000       0.604518        16.4498 
 185   0.0000       0.609281        16.5794 
 186   0.0000       0.620991        16.8980 
 187   0.0000       0.625669        17.0253 
 188   0.0000       0.634020        17.2526 
 189   0.0000       0.647142        17.6096 
 190   0.0000       0.647248        17.6125 
 191   0.0000       0.649899        17.6846 
 192   0.0000       0.655897        17.8479 
 193   0.0000       0.671730        18.2787 
 194   0.0000       0.691746        18.8234 
 195   0.0000       0.695393        18.9226 
 196   0.0000       0.698987        19.0204 
 197   0.0000       0.707466        19.2511 
 198   0.0000       0.713927        19.4269 
 199   0.0000       0.733294        19.9539 
 200   0.0000       0.736516        20.0416 
 201   0.0000       0.737702        20.0739 
 202   0.0000       0.742978        20.2175 
 203   0.0000       0.760542        20.6954 
 204   0.0000       0.762112        20.7381 
 205   0.0000       0.776050        21.1174 
 206   0.0000       0.786169        21.3927 
 207   0.0000       0.792906        21.5761 
 208   0.0000       0.793779        21.5998 
 209   0.0000       0.805003        21.9052 
 210   0.0000       0.810613        22.0579 
 211   0.0000       0.816752        22.2250 
 212   0.0000       0.824655        22.4400 
 213   0.0000       0.845480        23.0067 
 214   0.0000       0.855525        23.2800 
 215   0.0000       0.857623        23.3371 
 216   0.0000       0.869817        23.6689 
 217   0.0000       0.877098        23.8670 
 218   0.0000       0.881533        23.9877 
 219   0.0000       0.894352        24.3365 
 220   0.0000       0.898963        24.4620 
 221   0.0000       0.900330        24.4992 
 222   0.0000       0.912118        24.8200 
 223   0.0000       0.915733        24.9184 
 224   0.0000       0.926121        25.2010 
 225   0.0000       0.929081        25.2816 
 226   0.0000       0.941096        25.6085 
 227   0.0000       0.952308        25.9136 
 228   0.0000       0.956384        26.0245 
 229   0.0000       0.959101        26.0985 
 230   0.0000       0.961655        26.1680 
 231   0.0000       0.980475        26.6801 
 232   0.0000       0.989578        26.9278 
 233   0.0000       0.992045        26.9949 
 234   0.0000       1.002116        27.2690 
 235   0.0000       1.005216        27.3533 
 236   0.0000       1.024311        27.8729 
 237   0.0000       1.025022        27.8923 
 238   0.0000       1.030655        28.0456 
 239   0.0000       1.032956        28.1082 
 240   0.0000       1.042546        28.3691 
 241   0.0000       1.067577        29.0502 
 242   0.0000       1.077568        29.3221 
 243   0.0000       1.085220        29.5303 
 244   0.0000       1.088153        29.6101 
 245   0.0000       1.102699        30.0060 
 246   0.0000       1.106463        30.1084 
 247   0.0000       1.110651        30.2223 
 248   0.0000       1.131223        30.7821 
 249   0.0000       1.132063        30.8050 
 250   0.0000       1.146219        31.1902 
 251   0.0000       1.152945        31.3732 
 252   0.0000       1.153009        31.3750 
 253   0.0000       1.156813        31.4785 
 254   0.0000       1.161909        31.6171 
 255   0.0000       1.166253        31.7354 
 256   0.0000       1.170172        31.8420 
 257   0.0000       1.183209        32.1968 
 258   0.0000       1.189943        32.3800 
 259   0.0000       1.204989        32.7894 
 260   0.0000       1.221204        33.2306 
 261   0.0000       1.229101        33.4455 
 262   0.0000       1.232677        33.5428 
 263   0.0000       1.249406        33.9981 
 264   0.0000       1.257505        34.2184 
 265   0.0000       1.263844        34.3909 
 266   0.0000       1.265215        34.4283 
 267   0.0000       1.273455        34.6525 
 268   0.0000       1.284227        34.9456 
 269   0.0000       1.292038        35.1581 
 270   0.0000       1.293799        35.2061 
 271   0.0000       1.296631        35.2831 
 272   0.0000       1.313618        35.7454 
 273   0.0000       1.319203        35.8973 
 274   0.0000       1.326845        36.1053 
 275   0.0000       1.329068        36.1658 
 276   0.0000       1.337423        36.3931 
 277   0.0000       1.347204        36.6593 
 278   0.0000       1.348547        36.6958 
 279   0.0000       1.351522        36.7768 
 280   0.0000       1.365193        37.1488 
 281   0.0000       1.366521        37.1849 
 282   0.0000       1.377500        37.4837 
 283   0.0000       1.385612        37.7044 
 284   0.0000       1.388084        37.7717 
 285   0.0000       1.397556        38.0294 
 286   0.0000       1.401626        38.1402 
 287   0.0000       1.404705        38.2240 
 288   0.0000       1.425296        38.7843 
 289   0.0000       1.430542        38.9270 
 290   0.0000       1.434387        39.0317 
 291   0.0000       1.440506        39.1982 
 292   0.0000       1.455271        39.5999 
 293   0.0000       1.455770        39.6135 
 294   0.0000       1.465200        39.8701 
 295   0.0000       1.468606        39.9628 
 296   0.0000       1.472118        40.0584 
 297   0.0000       1.484991        40.4087 
 298   0.0000       1.487540        40.4780 
 299   0.0000       1.492168        40.6040 
 300   0.0000       1.504435        40.9378 
 301   0.0000       1.506150        40.9844 
 302   0.0000       1.524269        41.4775 
 303   0.0000       1.530108        41.6364 
 304   0.0000       1.531521        41.6748 
 305   0.0000       1.537551        41.8389 
 306   0.0000       1.546606        42.0853 
 307   0.0000       1.550302        42.1859 
 308   0.0000       1.564408        42.5697 
 309   0.0000       1.566158        42.6173 
 310   0.0000       1.573141        42.8073 
 311   0.0000       1.579406        42.9778 
 312   0.0000       1.582459        43.0609 
 313   0.0000       1.583968        43.1020 
 314   0.0000       1.594831        43.3976 
 315   0.0000       1.611062        43.8392 
 316   0.0000       1.616519        43.9877 
 317   0.0000       1.620954        44.1084 
 318   0.0000       1.632072        44.4109 
 319   0.0000       1.639621        44.6163 
 320   0.0000       1.645962        44.7889 
 321   0.0000       1.656448        45.0742 
 322   0.0000       1.658929        45.1417 
 323   0.0000       1.671740        45.4904 
 324   0.0000       1.674847        45.5749 
 325   0.0000       1.695527        46.1376 
 326   0.0000       1.696300        46.1587 
 327   0.0000       1.715164        46.6720 
 328   0.0000       1.716679        46.7132 
 329   0.0000       1.731820        47.1252 
 330   0.0000       1.744158        47.4610 
 331   0.0000       1.758530        47.8520 
 332   0.0000       1.760410        47.9032 
 333   0.0000       1.773720        48.2654 
 334   0.0000       1.776376        48.3377 
 335   0.0000       1.807951        49.1968 
 336   0.0000       1.812143        49.3109 
 337   0.0000       1.852393        50.4062 
 338   0.0000       1.887945        51.3736 
 339   0.0000       1.892325        51.4928 
 340   0.0000       1.901087        51.7312 
 341   0.0000       1.913013        52.0557 
 342   0.0000       1.923335        52.3366 
 343   0.0000       1.953579        53.1596 
 344   0.0000       1.973763        53.7088 
 345   0.0000       1.975411        53.7537 
 346   0.0000       1.985321        54.0233 
 347   0.0000       1.989160        54.1278 
 348   0.0000       1.992205        54.2106 
 349   0.0000       2.005221        54.5648 
 350   0.0000       2.009321        54.6764 
 351   0.0000       2.041483        55.5516 
 352   0.0000       2.057748        55.9942 
 353   0.0000       2.073746        56.4295 
 354   0.0000       2.082610        56.6707 
 355   0.0000       2.083236        56.6877 
 356   0.0000       2.088500        56.8310 
 357   0.0000       2.102425        57.2099 
 358   0.0000       2.123075        57.7718 
 359   0.0000       2.132284        58.0224 
 360   0.0000       2.149872        58.5010 
 361   0.0000       2.165997        58.9398 
 362   0.0000       2.179440        59.3056 
 363   0.0000       2.181182        59.3530 
 364   0.0000       2.205577        60.0168 
 365   0.0000       2.214072        60.2480 
 366   0.0000       2.215398        60.2840 
 367   0.0000       2.223290        60.4988 
 368   0.0000       2.237649        60.8895 
 369   0.0000       2.260558        61.5129 
 370   0.0000       2.274764        61.8995 
 371   0.0000       2.333274        63.4916 
 372   0.0000       2.349422        63.9310 
 373   0.0000       2.371075        64.5202 
 374   0.0000       2.381383        64.8007 
 375   0.0000       2.394861        65.1675 
 376   0.0000       2.417622        65.7868 
 377   0.0000       2.423870        65.9569 
 378   0.0000       2.434711        66.2519 
 379   0.0000       2.437979        66.3408 
 380   0.0000       2.454866        66.8003 
 381   0.0000       2.464571        67.0644 
 382   0.0000       2.489463        67.7417 
 383   0.0000       2.500347        68.0379 
 384   0.0000       2.502732        68.1028 
 385   0.0000       2.519636        68.5628 
 386   0.0000       2.522061        68.6288 
 387   0.0000       2.539267        69.0970 
 388   0.0000       2.543845        69.2216 
 389   0.0000       2.550370        69.3991 
 390   0.0000       2.560796        69.6828 
 391   0.0000       2.581808        70.2546 
 392   0.0000       2.597011        70.6683 
 393   0.0000       2.601799        70.7986 
 394   0.0000       2.606424        70.9244 
 395   0.0000       2.630386        71.5764 
 396   0.0000       2.632252        71.6272 
 397   0.0000       2.636420        71.7406 
 398   0.0000       2.655389        72.2568 
 399   0.0000       2.656099        72.2761 
 400   0.0000       2.671780        72.7028 
 401   0.0000       2.672468        72.7216 
 402   0.0000       2.695533        73.3492 
 403   0.0000       2.702406        73.5362 
 404   0.0000       2.703900        73.5769 
 405   0.0000       2.713691        73.8433 
 406   0.0000       2.718863        73.9840 
 407   0.0000       2.735107        74.4260 
 408   0.0000       2.749162        74.8085 
 409   0.0000       2.764479        75.2253 
 410   0.0000       2.768933        75.3465 
 411   0.0000       2.774847        75.5074 
 412   0.0000       2.785196        75.7890 
 413   0.0000       2.785207        75.7893 
 414   0.0000       2.790490        75.9331 
 415   0.0000       2.796142        76.0869 
 416   0.0000       2.804645        76.3183 
 417   0.0000       2.811699        76.5102 
 418   0.0000       2.822680        76.8090 
 419   0.0000       2.828327        76.9627 
 420   0.0000       2.844416        77.4005 
 421   0.0000       2.844549        77.4041 
 422   0.0000       2.848068        77.4999 
 423   0.0000       2.854007        77.6615 
 424   0.0000       2.858322        77.7789 
 425   0.0000       2.868554        78.0573 
 426   0.0000       2.885061        78.5065 
 427   0.0000       2.887443        78.5713 
 428   0.0000       2.891004        78.6682 
 429   0.0000       2.904452        79.0341 
 430   0.0000       2.907012        79.1038 
 431   0.0000       2.923313        79.5474 
 432   0.0000       2.923378        79.5491 
 433   0.0000       2.941498        80.0422 
 434   0.0000       2.944033        80.1112 
 435   0.0000       2.961611        80.5895 
 436   0.0000       2.964477        80.6675 
 437   0.0000       2.971158        80.8493 
 438   0.0000       2.982611        81.1610 
 439   0.0000       2.987454        81.2928 
 440   0.0000       2.989863        81.3583 
 441   0.0000       3.006331        81.8064 
 442   0.0000       3.019503        82.1649 
 443   0.0000       3.020339        82.1876 
 444   0.0000       3.029305        82.4316 
 445   0.0000       3.037947        82.6667 
 446   0.0000       3.042515        82.7911 
 447   0.0000       3.056677        83.1764 
 448   0.0000       3.058524        83.2267 
 449   0.0000       3.060937        83.2923 
 450   0.0000       3.078558        83.7718 
 451   0.0000       3.079045        83.7851 
 452   0.0000       3.098449        84.3131 
 453   0.0000       3.105476        84.5043 
 454   0.0000       3.106585        84.5345 
 455   0.0000       3.116555        84.8058 
 456   0.0000       3.126533        85.0773 
 457   0.0000       3.137469        85.3749 
 458   0.0000       3.139840        85.4394 
 459   0.0000       3.145743        85.6000 
 460   0.0000       3.155303        85.8601 
 461   0.0000       3.166056        86.1528 
 462   0.0000       3.177502        86.4642 
 463   0.0000       3.182976        86.6132 
 464   0.0000       3.206145        87.2436 
 465   0.0000       3.210937        87.3740 
 466   0.0000       3.213071        87.4321 
 467   0.0000       3.219703        87.6126 
 468   0.0000       3.231858        87.9433 
 469   0.0000       3.238122        88.1138 
 470   0.0000       3.240408        88.1760 
 471   0.0000       3.250818        88.4593 
 472   0.0000       3.258629        88.6718 
 473   0.0000       3.262702        88.7826 
 474   0.0000       3.266503        88.8861 
 475   0.0000       3.270893        89.0055 
 476   0.0000       3.275165        89.1218 
 477   0.0000       3.278324        89.2077 
 478   0.0000       3.287006        89.4440 
 479   0.0000       3.292007        89.5801 
 480   0.0000       3.297541        89.7306 
 481   0.0000       3.317479        90.2732 
 482   0.0000       3.324260        90.4577 
 483   0.0000       3.330384        90.6244 
 484   0.0000       3.333048        90.6968 
 485   0.0000       3.353429        91.2514 
 486   0.0000       3.355725        91.3139 
 487   0.0000       3.363308        91.5203 
 488   0.0000       3.367787        91.6421 
 489   0.0000       3.382573        92.0445 
 490   0.0000       3.386538        92.1524 
 491   0.0000       3.386597        92.1540 
 492   0.0000       3.406870        92.7056 
 493   0.0000       3.414402        92.9106 
 494   0.0000       3.423620        93.1614 
 495   0.0000       3.431461        93.3748 
 496   0.0000       3.438292        93.5607 
 497   0.0000       3.446641        93.7879 
 498   0.0000       3.459469        94.1369 
 499   0.0000       3.459671        94.1424 
 500   0.0000       3.469719        94.4158 
 501   0.0000       3.478667        94.6593 
 502   0.0000       3.486806        94.8808 
 503   0.0000       3.493600        95.0657 
 504   0.0000       3.505475        95.3888 
 505   0.0000       3.521171        95.8159 
 506   0.0000       3.530928        96.0814 
 507   0.0000       3.541827        96.3780 
 508   0.0000       3.546979        96.5182 
 509   0.0000       3.578623        97.3793 
 510   0.0000       3.589069        97.6635 
 511   0.0000       3.590308        97.6973 
 512   0.0000       3.603397        98.0534 
 513   0.0000       3.606197        98.1296 
 514   0.0000       3.625391        98.6519 
 515   0.0000       3.635910        98.9382 
 516   0.0000       3.645905        99.2101 
 517   0.0000       3.647614        99.2566 
 518   0.0000       3.657751        99.5325 
 519   0.0000       3.670119        99.8690 
 520   0.0000       3.686662       100.3192 
 521   0.0000       3.692861       100.4878 
 522   0.0000       3.705699       100.8372 
 523   0.0000       3.710776       100.9753 
 524   0.0000       3.717630       101.1619 
 525   0.0000       3.726561       101.4049 
 526   0.0000       3.730334       101.5075 
 527   0.0000       3.750052       102.0441 
 528   0.0000       3.763029       102.3972 
 529   0.0000       3.770603       102.6033 
 530   0.0000       3.772468       102.6541 
 531   0.0000       3.777901       102.8019 
 532   0.0000       3.796891       103.3187 
 533   0.0000       3.797291       103.3295 
 534   0.0000       3.808989       103.6479 
 535   0.0000       3.816895       103.8630 
 536   0.0000       3.828019       104.1657 
 537   0.0000       3.844141       104.6044 
 538   0.0000       3.858965       105.0078 
 539   0.0000       3.861498       105.0767 
 540   0.0000       3.865694       105.1909 
 541   0.0000       3.887814       105.7928 
 542   0.0000       3.897664       106.0608 
 543   0.0000       3.905624       106.2774 
 544   0.0000       3.915149       106.5366 
 545   0.0000       3.931059       106.9695 
 546   0.0000       3.939434       107.1975 
 547   0.0000       3.945310       107.3573 
 548   0.0000       3.945851       107.3721 
 549   0.0000       3.956666       107.6663 
 550   0.0000       3.961435       107.7961 
 551   0.0000       3.970336       108.0383 
 552   0.0000       3.990880       108.5974 
 553   0.0000       3.993010       108.6553 
 554   0.0000       4.005343       108.9909 
 555   0.0000       4.009249       109.0972 
 556   0.0000       4.029046       109.6359 
 557   0.0000       4.037447       109.8645 
 558   0.0000       4.051276       110.2408 
 559   0.0000       4.056309       110.3778 
 560   0.0000       4.056736       110.3894 
 561   0.0000       4.072091       110.8072 
 562   0.0000       4.076963       110.9398 
 563   0.0000       4.085264       111.1657 
 564   0.0000       4.099768       111.5604 
 565   0.0000       4.107842       111.7801 
 566   0.0000       4.112890       111.9174 
 567   0.0000       4.113299       111.9286 
 568   0.0000       4.117041       112.0304 
 569   0.0000       4.117383       112.0397 
 570   0.0000       4.122512       112.1793 
 571   0.0000       4.136729       112.5661 
 572   0.0000       4.143047       112.7381 
 573   0.0000       4.157187       113.1228 
 574   0.0000       4.157842       113.1406 
 575   0.0000       4.161659       113.2445 
 576   0.0000       4.169486       113.4575 
 577   0.0000       4.174469       113.5931 
 578   0.0000       4.186729       113.9267 
 579   0.0000       4.199239       114.2671 
 580   0.0000       4.204148       114.4007 
 581   0.0000       4.217769       114.7713 
 582   0.0000       4.239612       115.3657 
 583   0.0000       4.252222       115.7088 
 584   0.0000       4.258839       115.8889 
 585   0.0000       4.270964       116.2188 
 586   0.0000       4.302830       117.0859 
 587   0.0000       4.327216       117.7495 
 588   0.0000       4.334506       117.9479 
 589   0.0000       4.345689       118.2522 
 590   0.0000       4.353542       118.4659 
 591   0.0000       4.353986       118.4780 
 592   0.0000       4.374704       119.0418 
 593   0.0000       4.388664       119.4216 
 594   0.0000       4.390147       119.4620 
 595   0.0000       4.405747       119.8865 
 596   0.0000       4.427587       120.4808 
 597   0.0000       4.432932       120.6262 
 598   0.0000       4.472925       121.7145 
 599   0.0000       4.482031       121.9623 
 600   0.0000       4.487565       122.1129 
 601   0.0000       4.501417       122.4898 
 602   0.0000       4.512916       122.8027 
 603   0.0000       4.526096       123.1613 
 604   0.0000       4.526840       123.1816 
 605   0.0000       4.551761       123.8597 
 606   0.0000       4.555160       123.9522 
 607   0.0000       4.567283       124.2821 
 608   0.0000       4.574457       124.4773 
 609   0.0000       4.582755       124.7031 
 610   0.0000       4.585743       124.7844 
 611   0.0000       4.592922       124.9798 
 612   0.0000       4.596182       125.0685 
 613   0.0000       4.621016       125.7442 
 614   0.0000       4.636246       126.1587 
 615   0.0000       4.640843       126.2838 
 616   0.0000       4.649136       126.5094 
 617   0.0000       4.655250       126.6758 
 618   0.0000       4.693320       127.7117 
 619   0.0000       4.708574       128.1268 
 620   0.0000       4.709295       128.1464 
 621   0.0000       4.719025       128.4112 
 622   0.0000       4.730454       128.7222 
 623   0.0000       4.732300       128.7724 
 624   0.0000       4.751598       129.2976 
 625   0.0000       4.752000       129.3085 
 626   0.0000       4.764138       129.6388 
 627   0.0000       4.770907       129.8230 
 628   0.0000       4.782599       130.1411 
 629   0.0000       4.786181       130.2386 
 630   0.0000       4.799748       130.6078 
 631   0.0000       4.832395       131.4962 
 632   0.0000       4.895593       133.2159 
 633   0.0000       4.910411       133.6191 
 634   0.0000       4.918341       133.8349 
 635   0.0000       4.929700       134.1439 
 636   0.0000       4.949237       134.6756 
 637   0.0000       4.970868       135.2642 
 638   0.0000       5.023173       136.6875 
 639   0.0000       5.033802       136.9767 
 640   0.0000       5.075877       138.1216 
 641   0.0000       5.094340       138.6240 
 642   0.0000       5.106590       138.9574 
 643   0.0000       5.114909       139.1837 
 644   0.0000       5.134029       139.7040 
 645   0.0000       5.142633       139.9382 
 646   0.0000       5.144262       139.9825 
 647   0.0000       5.150083       140.1409 
 648   0.0000       5.158699       140.3753 
 649   0.0000       5.171011       140.7104 
 650   0.0000       5.184507       141.0776 
 651   0.0000       5.189735       141.2199 
 652   0.0000       5.193342       141.3180 
 653   0.0000       5.210234       141.7777 
 654   0.0000       5.215525       141.9217 
 655   0.0000       5.219238       142.0227 
 656   0.0000       5.238203       142.5388 
 657   0.0000       5.249314       142.8411 
 658   0.0000       5.259855       143.1279 
 659   0.0000       5.272930       143.4837 
 660   0.0000       5.286275       143.8468 
 661   0.0000       5.296995       144.1386 
 662   0.0000       5.304366       144.3391 
 663   0.0000       5.309989       144.4922 
 664   0.0000       5.322723       144.8387 
 665   0.0000       5.326800       144.9496 
 666   0.0000       5.362787       145.9288 
 667   0.0000       5.365100       145.9918 
 668   0.0000       5.380370       146.4073 
 669   0.0000       5.409954       147.2123 
 670   0.0000       5.424928       147.6198 
 671   0.0000       5.436201       147.9265 
 672   0.0000       5.460186       148.5792 
 673   0.0000       5.465501       148.7238 
 674   0.0000       5.485592       149.2705 
 675   0.0000       5.492815       149.4671 
 676   0.0000       5.522647       150.2789 
 677   0.0000       5.524140       150.3195 
 678   0.0000       5.546367       150.9243 
 679   0.0000       5.576288       151.7385 
 680   0.0000       5.576993       151.7577 
 681   0.0000       5.600066       152.3855 
 682   0.0000       5.603541       152.4801 
 683   0.0000       5.622835       153.0051 
 684   0.0000       5.625008       153.0642 
 685   0.0000       5.636451       153.3756 
 686   0.0000       5.646909       153.6602 
 687   0.0000       5.647488       153.6760 
 688   0.0000       5.678696       154.5252 
 689   0.0000       5.719546       155.6368 
 690   0.0000       5.742024       156.2484 
 691   0.0000       5.772084       157.0664 
 692   0.0000       5.798387       157.7821 
 693   0.0000       5.849214       159.1652 
 694   0.0000       5.929271       161.3437 
 695   0.0000       6.013090       163.6245 
 696   0.0000       6.049619       164.6185 
 697   0.0000       6.066589       165.0803 
 698   0.0000       6.094401       165.8371 
 699   0.0000       6.164388       167.7415 
 700   0.0000       6.211471       169.0227 
 701   0.0000       6.326851       172.1624 
 702   0.0000       6.339338       172.5022 
 703   0.0000       6.374085       173.4477 
 704   0.0000       6.423548       174.7936 
 705   0.0000       6.428398       174.9256 
 706   0.0000       6.459061       175.7600 
 707   0.0000       6.562685       178.5798 
 708   0.0000       6.639902       180.6809 
 709   0.0000       6.712940       182.6684 
 710   0.0000       6.727479       183.0640 
 711   0.0000       6.736043       183.2970 
 712   0.0000       6.773304       184.3110 
 713   0.0000       6.784021       184.6026 
 714   0.0000       6.846654       186.3069 
 715   0.0000       6.979187       189.9133 
 716   0.0000       7.016722       190.9347 
 717   0.0000       7.084401       192.7763 
 718   0.0000       7.098922       193.1715 
 719   0.0000       7.119158       193.7221 
 720   0.0000       7.259716       197.5469 
 721   0.0000       7.506535       204.2632 
 722   0.0000       7.533673       205.0017 
 723   0.0000       7.750368       210.8982 
 724   0.0000      22.719664       618.2335 
 725   0.0000      22.964557       624.8974 
 726   0.0000      23.073885       627.8723 
 727   0.0000      23.234935       632.2547 
 728   0.0000      23.333938       634.9487 
 729   0.0000      23.385015       636.3386 
 730   0.0000      23.681432       644.4045 
 731   0.0000      23.848913       648.9619 
 732   0.0000      23.860367       649.2736 
 733   0.0000      23.875939       649.6973 
 734   0.0000      24.024750       653.7467 
 735   0.0000      24.063713       654.8069 
 736   0.0000      33.294071       905.9777 
 737   0.0000      44.187640      1202.4068 
 738   0.0000      44.282141      1204.9783 
 739   0.0000      44.863558      1220.7995 

                 SPIN DOWN ORBITALS
  NO   OCC          E(Eh)            E(eV) 
   0   1.0000    -483.684110    -13161.7137 
   1   1.0000     -62.988525     -1714.0049 
   2   1.0000     -56.675216     -1542.2110 
   3   1.0000     -56.672694     -1542.1424 
   4   1.0000     -56.672647     -1542.1411 
   5   1.0000     -19.514005      -531.0031 
   6   1.0000     -19.506066      -530.7870 
   7   1.0000     -19.469980      -529.8051 
   8   1.0000     -14.752188      -401.4274 
   9   1.0000     -10.663779      -290.1762 
  10   1.0000     -10.624873      -289.1175 
  11   1.0000     -10.609315      -288.6942 
  12   1.0000     -10.608252      -288.6652 
  13   1.0000     -10.565539      -287.5029 
  14   1.0000     -10.562658      -287.4245 
  15   1.0000     -10.552141      -287.1383 
  16   1.0000     -10.550398      -287.0909 
  17   1.0000     -10.528823      -286.5039 
  18   1.0000     -10.433570      -283.9119 
  19   1.0000     -10.433563      -283.9117 
  20   1.0000     -10.432551      -283.8841 
  21   1.0000      -9.070993      -246.8343 
  22   1.0000      -6.857452      -186.6008 
  23   1.0000      -6.846504      -186.3028 
  24   1.0000      -6.844536      -186.2493 
  25   1.0000      -2.938271       -79.9544 
  26   1.0000      -2.935508       -79.8792 
  27   1.0000      -2.933976       -79.8375 
  28   1.0000      -2.925207       -79.5989 
  29   1.0000      -2.925136       -79.5970 
  30   1.0000      -1.396633       -38.0043 
  31   1.0000      -1.354251       -36.8510 
  32   1.0000      -1.303863       -35.4799 
  33   1.0000      -1.270151       -34.5626 
  34   1.0000      -1.196669       -32.5630 
  35   1.0000      -1.115604       -30.3571 
  36   1.0000      -1.090614       -29.6771 
  37   1.0000      -1.060712       -28.8634 
[...]
      f-2     :     0.000003
      f+3     :    -0.000001
      f-3     :    -0.000005
  4 O s       :     0.000237  s :     0.000237
      pz      :     0.019429  p :     0.020059
      px      :     0.000278
      py      :     0.000353
      dz2     :    -0.000022  d :    -0.000567
      dxz     :    -0.000310
      dyz     :    -0.000056
      dx2y2   :    -0.000107
      dxy     :    -0.000072
      f0      :     0.000003  f :    -0.000021
      f+1     :    -0.000005
      f-1     :    -0.000002
      f+2     :     0.000011
      f-2     :    -0.000017
      f+3     :    -0.000006
      f-3     :    -0.000004
  5 C s       :    -0.001565  s :    -0.001565
      pz      :    -0.011904  p :    -0.016294
      px      :    -0.002511
      py      :    -0.001879
      dz2     :     0.000107  d :     0.025470
      dxz     :     0.011705
      dyz     :     0.012988
      dx2y2   :     0.000187
      dxy     :     0.000483
      f0      :     0.000429  f :     0.004938
      f+1     :     0.000031
      f-1     :     0.000021
      f+2     :     0.000503
      f-2     :     0.003679
      f+3     :     0.000095
      f-3     :     0.000180
  6 O s       :     0.000295  s :     0.000295
      pz      :     0.034976  p :     0.035067
      px      :    -0.000146
      py      :     0.000237
      dz2     :    -0.000001  d :    -0.000658
      dxz     :     0.000001
      dyz     :    -0.000486
      dx2y2   :    -0.000060
      dxy     :    -0.000113
      f0      :    -0.000022  f :    -0.000073
      f+1     :    -0.000001
      f-1     :    -0.000010
      f+2     :    -0.000027
      f-2     :     0.000004
      f+3     :    -0.000013
      f-3     :    -0.000005
  7 N s       :     0.004410  s :     0.004410
      pz      :     0.201279  p :     0.210102
      px      :     0.004250
      py      :     0.004573
      dz2     :    -0.000275  d :     0.001010
      dxz     :     0.002616
      dyz     :    -0.000221
      dx2y2   :    -0.000545
      dxy     :    -0.000565
      f0      :     0.000400  f :     0.000274
      f+1     :    -0.000093
      f-1     :    -0.000079
      f+2     :     0.000066
      f-2     :     0.000045
      f+3     :    -0.000022
      f-3     :    -0.000043
  8 C s       :     0.000173  s :     0.000173
      pz      :     0.081489  p :     0.078088
      px      :    -0.002268
      py      :    -0.001132
      dz2     :    -0.000089  d :     0.037606
      dxz     :     0.027563
      dyz     :     0.008208
      dx2y2   :     0.001040
      dxy     :     0.000884
      f0      :     0.000332  f :     0.005448
      f+1     :    -0.000043
      f-1     :    -0.000028
      f+2     :     0.003768
      f-2     :     0.001082
      f+3     :     0.000133
      f-3     :     0.000204
  9 C s       :     0.001835  s :     0.001835
      pz      :     0.112013  p :     0.115312
      px      :     0.002609
      py      :     0.000691
      dz2     :    -0.000419  d :     0.000598
      dxz     :    -0.002610
      dyz     :     0.004900
      dx2y2   :    -0.000467
      dxy     :    -0.000806
      f0      :    -0.000228  f :     0.000175
      f+1     :    -0.000085
      f-1     :    -0.000064
      f+2     :     0.000570
      f-2     :     0.000124
      f+3     :    -0.000087
      f-3     :    -0.000055
 10 C s       :    -0.001769  s :    -0.001769
      pz      :    -0.045831  p :    -0.052076
      px      :    -0.003570
      py      :    -0.002675
      dz2     :     0.000214  d :     0.031960
      dxz     :     0.023676
      dyz     :     0.006412
      dx2y2   :     0.000661
      dxy     :     0.000998
      f0      :     0.000476  f :     0.004292
      f+1     :     0.000042
      f-1     :     0.000048
      f+2     :     0.001098
      f-2     :     0.002362
      f+3     :     0.000134
      f-3     :     0.000132
 11 C s       :     0.004861  s :     0.004861
      pz      :     0.198280  p :     0.209062
      px      :     0.006547
      py      :     0.004235
      dz2     :    -0.000506  d :    -0.009329
      dxz     :    -0.003288
      dyz     :    -0.004399
      dx2y2   :    -0.000482
      dxy     :    -0.000653
      f0      :    -0.000555  f :    -0.001152
      f+1     :    -0.000126
      f-1     :    -0.000134
      f+2     :     0.000370
      f-2     :    -0.000569
      f+3     :    -0.000094
      f-3     :    -0.000045
 12 Brs       :     0.000843  s :     0.000843
      pz      :     0.117755  p :     0.108214
      px      :    -0.009530
      py      :    -0.000011
      dz2     :     0.000603  d :     0.010867
      dxz     :     0.009237
      dyz     :     0.000287
      dx2y2   :     0.000648
      dxy     :     0.000091
      f0      :     0.000483  f :     0.001328
      f+1     :    -0.000041
      f-1     :     0.000005
      f+2     :     0.000670
      f-2     :     0.000096
      f+3     :     0.000080
      f-3     :     0.000037
 13 C s       :    -0.000894  s :    -0.000894
      pz      :    -0.002181  p :    -0.006360
      px      :    -0.001518
      py      :    -0.002661
      dz2     :     0.000060  d :     0.030473
      dxz     :     0.013858
      dyz     :     0.015037
      dx2y2   :     0.000773
      dxy     :     0.000745
      f0      :     0.000340  f :     0.003967
      f+1     :     0.000002
      f-1     :     0.000026
      f+2     :     0.002843
      f-2     :     0.000510
      f+3     :     0.000101
      f-3     :     0.000145
 14 C s       :     0.001480  s :     0.001480
      pz      :     0.086748  p :     0.089431
      px      :     0.001406
      py      :     0.001277
      dz2     :    -0.000239  d :     0.003761
      dxz     :     0.003575
      dyz     :     0.001253
      dx2y2   :    -0.000692
      dxy     :    -0.000136
      f0      :    -0.000168  f :     0.000823
      f+1     :    -0.000066
      f-1     :    -0.000056
      f+2     :     0.000427
      f-2     :     0.000799
      f+3     :    -0.000039
      f-3     :    -0.000073
 15 C s       :    -0.000649  s :    -0.000649
      pz      :    -0.006657  p :    -0.008954
      px      :    -0.000480
      py      :    -0.001817
      dz2     :     0.000021  d :     0.009804
      dxz     :     0.002894
      dyz     :     0.006712
      dx2y2   :     0.000233
      dxy     :    -0.000056
      f0      :     0.000169  f :     0.001484
      f+1     :     0.000007
      f-1     :     0.000011
      f+2     :     0.001152
      f-2     :     0.000095
      f+3     :    -0.000017
      f-3     :     0.000067
 16 O s       :     0.000180  s :     0.000180
      pz      :     0.024709  p :     0.024530
      px      :     0.000196
      py      :    -0.000374
      dz2     :    -0.000003  d :    -0.000392
      dxz     :    -0.000221
      dyz     :    -0.000049
      dx2y2   :    -0.000041
      dxy     :    -0.000077
      f0      :    -0.000012  f :    -0.000043
      f+1     :    -0.000006
      f-1     :    -0.000001
      f+2     :    -0.000010
      f-2     :    -0.000003
      f+3     :    -0.000008
      f-3     :    -0.000004
 17 H s       :     0.000015  s :     0.000015
      pz      :     0.000007  p :     0.000019
      px      :    -0.000027
      py      :     0.000039
      dz2     :     0.000000  d :     0.000031
      dxz     :     0.000005
      dyz     :     0.000005
      dx2y2   :     0.000018
      dxy     :     0.000002
 18 H s       :    -0.000026  s :    -0.000026
      pz      :     0.000032  p :     0.000027
      px      :    -0.000004
      py      :    -0.000002
      dz2     :     0.000014  d :     0.000020
      dxz     :     0.000000
      dyz     :     0.000000
      dx2y2   :    -0.000000
      dxy     :     0.000005
 19 H s       :     0.000281  s :     0.000281
      pz      :     0.000036  p :     0.000034
      px      :     0.000003
      py      :    -0.000006
      dz2     :    -0.000000  d :     0.000008
      dxz     :     0.000007
      dyz     :     0.000001
      dx2y2   :     0.000001
      dxy     :    -0.000000
 20 H s       :     0.000281  s :     0.000281
      pz      :     0.000036  p :     0.000034
      px      :     0.000003
      py      :    -0.000005
      dz2     :    -0.000000  d :     0.000008
      dxz     :     0.000007
      dyz     :     0.000001
      dx2y2   :     0.000001
      dxy     :    -0.000000
 21 H s       :     0.000015  s :     0.000015
      pz      :     0.000007  p :     0.000019
      px      :    -0.000027
      py      :     0.000039
      dz2     :     0.000000  d :     0.000031
      dxz     :     0.000005
      dyz     :     0.000005
      dx2y2   :     0.000018
      dxy     :     0.000002
 22 H s       :    -0.000026  s :    -0.000026
      pz      :     0.000032  p :     0.000027
      px      :    -0.000004
      py      :    -0.000002
      dz2     :     0.000014  d :     0.000020
      dxz     :     0.000000
      dyz     :     0.000000
      dx2y2   :    -0.000000
      dxy     :     0.000005
 23 H s       :    -0.000034  s :    -0.000034
      pz      :    -0.000003  p :    -0.000007
      px      :    -0.000003
      py      :    -0.000000
      dz2     :     0.000000  d :    -0.000000
      dxz     :    -0.000000
      dyz     :    -0.000000
      dx2y2   :    -0.000000
      dxy     :    -0.000000
 24 H s       :    -0.000011  s :    -0.000011
      pz      :    -0.000000  p :     0.000001
      px      :     0.000000
      py      :     0.000001
      dz2     :    -0.000000  d :    -0.000000
      dxz     :     0.000000
      dyz     :    -0.000000
      dx2y2   :     0.000000
      dxy     :    -0.000000
 25 H s       :    -0.000011  s :    -0.000011
      pz      :    -0.000000  p :     0.000001
      px      :     0.000000
      py      :     0.000001
      dz2     :    -0.000000  d :    -0.000000
      dxz     :     0.000000
      dyz     :    -0.000000
      dx2y2   :     0.000000
      dxy     :    -0.000000
 26 H s       :    -0.004834  s :    -0.004834
      pz      :     0.015521  p :     0.017029
      px      :     0.000117
      py      :     0.001392
      dz2     :     0.000026  d :     0.005002
      dxz     :     0.000184
      dyz     :     0.004345
      dx2y2   :     0.000283
      dxy     :     0.000164
 27 H s       :    -0.002733  s :    -0.002733
      pz      :     0.007009  p :     0.007707
      px      :     0.000253
      py      :     0.000445
      dz2     :     0.000006  d :     0.001658
      dxz     :     0.000465
      dyz     :     0.001045
      dx2y2   :     0.000056
      dxy     :     0.000086
 28 H s       :     0.000761  s :     0.000761
      pz      :    -0.003103  p :    -0.003766
      px      :    -0.000303
      py      :    -0.000360
      dz2     :    -0.000003  d :    -0.000802
      dxz     :    -0.000126
      dyz     :    -0.000531
      dx2y2   :    -0.000061
      dxy     :    -0.000080
 29 H s       :    -0.000168  s :    -0.000168
      pz      :    -0.000596  p :    -0.000939
      px      :    -0.000183
      py      :    -0.000160
      dz2     :    -0.000000  d :    -0.000123
      dxz     :    -0.000135
      dyz     :     0.000087
      dx2y2   :    -0.000067
      dxy     :    -0.000008
 30 H s       :    -0.000253  s :    -0.000253
      pz      :    -0.000441  p :    -0.000634
      px      :    -0.000081
      py      :    -0.000112
      dz2     :    -0.000001  d :    -0.000131
      dxz     :    -0.000070
      dyz     :    -0.000027
      dx2y2   :    -0.000027
      dxy     :    -0.000007


                      *****************************
                      * MAYER POPULATION ANALYSIS *
                      *****************************

  NA   - Mulliken gross atomic population
  ZA   - Total nuclear charge
  QA   - Mulliken gross atomic charge
  VA   - Mayer's total valence
  BVA  - Mayer's bonded valence
  FA   - Mayer's free valence

  ATOM       NA         ZA         QA         VA         BVA        FA
  0 C      6.3260     6.0000    -0.3260     3.8039     3.8039     0.0000
  1 C      5.9092     6.0000     0.0908     3.9420     3.9420     0.0000
  2 C      6.3258     6.0000    -0.3258     3.8039     3.8039     0.0000
  3 C      6.2900     6.0000    -0.2900     3.8224     3.8224     0.0000
  4 O      8.2817     8.0000    -0.2817     2.1164     2.1159     0.0005
  5 C      5.5154     6.0000     0.4846     4.2402     4.2397     0.0005
  6 O      8.3540     8.0000    -0.3540     2.1295     2.1279     0.0017
  7 N      7.0547     7.0000    -0.0547     3.3749     3.3073     0.0676
  8 C      5.8516     6.0000     0.1484     3.9889     3.9715     0.0175
  9 C      6.0768     6.0000    -0.0768     3.9480     3.9261     0.0219
 10 C      6.0311     6.0000    -0.0311     3.8480     3.8425     0.0055
 11 C      6.0471     6.0000    -0.0471     4.1371     4.0717     0.0654
 12 Br    34.8299    35.0000     0.1701     1.4669     1.4483     0.0186
 13 C      5.9985     6.0000     0.0015     3.8044     3.8023     0.0021
 14 C      5.9981     6.0000     0.0019     3.6480     3.6333     0.0147
 15 C      5.8467     6.0000     0.1533     3.9995     3.9994     0.0002
 16 O      8.2622     8.0000    -0.2622     2.1932     2.1924     0.0008
 17 H      0.8616     1.0000     0.1384     0.9992     0.9992     0.0000
 18 H      0.8752     1.0000     0.1248     0.9944     0.9944     0.0000
 19 H      0.8692     1.0000     0.1308     0.9940     0.9940     0.0000
 20 H      0.8691     1.0000     0.1309     0.9939     0.9939     0.0000
 21 H      0.8618     1.0000     0.1382     0.9992     0.9992     0.0000
 22 H      0.8751     1.0000     0.1249     0.9945     0.9945     0.0000
 23 H      0.8782     1.0000     0.1218     0.9947     0.9947     0.0000
 24 H      0.8723     1.0000     0.1277     0.9949     0.9949     0.0000
 25 H      0.8723     1.0000     0.1277     0.9948     0.9948     0.0000
 26 H      0.8178     1.0000     0.1822     1.0870     1.0869     0.0002
 27 H      0.8059     1.0000     0.1941     1.0246     1.0246     0.0000
 28 H      0.8258     1.0000     0.1742     0.9871     0.9871     0.0000
 29 H      0.8408     1.0000     0.1592     0.9980     0.9980     0.0000
 30 H      0.8760     1.0000     0.1240     0.9991     0.9991     0.0000

  Mayer bond orders larger than 0.100000
B(  0-C ,  1-C ) :   0.9873 B(  0-C , 17-H ) :   0.9701 B(  0-C , 18-H ) :   0.9747 
B(  0-C , 19-H ) :   0.9692 B(  1-C ,  2-C ) :   0.9874 B(  1-C ,  3-C ) :   0.9904 
B(  1-C ,  4-O ) :   0.7886 B(  2-C , 20-H ) :   0.9691 B(  2-C , 21-H ) :   0.9700 
B(  2-C , 22-H ) :   0.9747 B(  3-C , 23-H ) :   0.9710 B(  3-C , 24-H ) :   0.9736 
B(  3-C , 25-H ) :   0.9736 B(  4-O ,  5-C ) :   1.2472 B(  5-C ,  6-O ) :   1.9303 
B(  5-C ,  7-N ) :   1.0176 B(  7-N ,  8-C ) :   1.3181 B(  7-N , 26-H ) :   0.9022 
B(  8-C ,  9-C ) :   1.2865 B(  8-C , 14-C ) :   1.1620 B(  9-C , 10-C ) :   1.5394 
B(  9-C , 27-H ) :   0.8996 B( 10-C , 11-C ) :   1.2615 B( 10-C , 28-H ) :   0.9392 
B( 11-C , 12-Br) :   1.3560 B( 11-C , 13-C ) :   1.2610 B( 13-C , 14-C ) :   1.4917 
B( 13-C , 29-H ) :   0.9260 B( 14-C , 15-C ) :   0.8982 B( 15-C , 16-O ) :   2.0285 
B( 15-C , 30-H ) :   1.0237 B( 16-O , 26-H ) :   0.1089 


------------------
HIRSHFELD ANALYSIS
------------------

Total integrated alpha density =     75.999865972
Total integrated beta density  =     74.999865483

  ATOM     CHARGE      SPIN    
   0 C   -0.074489    0.001502
   1 C    0.115478    0.000856
   2 C   -0.074482    0.001503
   3 C   -0.068423    0.000007
   4 O   -0.118046    0.020596
   5 C    0.286745    0.008526
   6 O   -0.227129    0.035844
   7 N   -0.011755    0.227495
   8 C    0.138403    0.114268
   9 C    0.026025    0.121658
  10 C    0.018935   -0.023228
  11 C    0.086822    0.207254
  12 Br   0.121414    0.125258
  13 C    0.020128    0.021891
  14 C    0.019523    0.099291
  15 C    0.176350    0.000542
  16 O   -0.178833    0.024733
  17 H    0.029161    0.000122
  18 H    0.032106    0.000023
  19 H    0.046213    0.000364
  20 H    0.046217    0.000364
  21 H    0.029166    0.000122
  22 H    0.032109    0.000023
  23 H    0.044793   -0.000045
  24 H    0.034917   -0.000005
  25 H    0.034918   -0.000005
  26 H    0.131281    0.010283
  27 H    0.067837    0.005722
  28 H    0.078004   -0.003133
  29 H    0.073556   -0.000824
  30 H    0.063325   -0.001005

  TOTAL   1.000269    1.000000

-------
TIMINGS
-------

Total SCF time: 0 days 0 hours 2 min 24 sec 

Total time                  ....     144.880 sec
Sum of individual times     ....     142.339 sec  ( 98.2%)

Fock matrix formation       ....     130.762 sec  ( 90.3%)
  Split-RI-J                ....       6.720 sec  (  5.1% of F)
  Chain of spheres X        ....     101.621 sec  ( 77.7% of F)
  XC integration            ....      21.589 sec  ( 16.5% of F)
    Basis function eval.    ....       1.548 sec  (  7.2% of XC)
    Density eval.           ....       7.387 sec  ( 34.2% of XC)
    XC-Functional eval.     ....       0.499 sec  (  2.3% of XC)
    XC-Potential eval.      ....       9.921 sec  ( 46.0% of XC)
Diagonalization             ....       4.993 sec  (  3.4%)
Density matrix formation    ....       0.199 sec  (  0.1%)
Population analysis         ....       1.976 sec  (  1.4%)
Initial guess               ....       0.431 sec  (  0.3%)
Orbital Transformation      ....       0.000 sec  (  0.0%)
Orbital Orthonormalization  ....       0.000 sec  (  0.0%)
DIIS solution               ....       2.203 sec  (  1.5%)
Grid generation             ....       1.774 sec  (  1.2%)

Maximum memory used throughout the entire SCF-calculation: 163.7 MB

-------------------------   --------------------
FINAL SINGLE POINT ENERGY     -3319.905725626287
-------------------------   --------------------


                            ***************************************
                            *     ORCA property calculations      *
                            ***************************************

                                    ---------------------
                                    Active property flags
                                    ---------------------
   (+) Dipole Moment


------------------------------------------------------------------------------
                       ORCA ELECTRIC PROPERTIES CALCULATION
------------------------------------------------------------------------------

Dipole Moment Calculation                       ... on
Quadrupole Moment Calculation                   ... off
Polarizability Calculation                      ... off
GBWName                                         ... arbr_23_r2scan3c_wB97MV_ox.gbw
Electron density                                ... arbr_23_r2scan3c_wB97MV_ox.scfp
The origin for moment calculation is the CENTER OF MASS  = (-0.555349, -0.019968 -0.000003)

-------------
DIPOLE MOMENT
-------------
                                X             Y             Z
Electronic contribution:    -84.96829      -2.76106      -0.00027
Nuclear contribution   :     84.41337       3.03525       0.00020
                        -----------------------------------------
Total Dipole Moment    :     -0.55493       0.27418      -0.00008
                        -----------------------------------------
Magnitude (a.u.)       :      0.61897
Magnitude (Debye)      :      1.57329



--------------------
Rotational spectrum 
--------------------
 
Rotational constants in cm-1:     0.031778     0.004284     0.003872 
Rotational constants in MHz :   952.670155   128.428716   116.083328 

 Dipole components along the rotational axes: 
x,y,z [a.u.] :    -0.550817    -0.282350    -0.000079 
x,y,z [Debye]:    -1.400065    -0.717675    -0.000202 

 

Timings for individual modules:

Sum of individual times         ...      146.105 sec (=   2.435 min)
GTO integral calculation        ...        0.950 sec (=   0.016 min)   0.7 %
SCF iterations                  ...      145.155 sec (=   2.419 min)  99.3 %
                             ****ORCA TERMINATED NORMALLY****
TOTAL RUN TIME: 0 days 0 hours 2 minutes 26 seconds 771 msec
