
                                 *****************
                                 * O   R   C   A *
                                 *****************

                                            #,                                       
                                            ###                                      
                                            ####                                     
                                            #####                                    
                                            ######                                   
                                           ########,                                 
                                     ,,################,,,,,                         
                               ,,#################################,,                 
                          ,,##########################################,,             
                       ,#########################################, ''#####,          
                    ,#############################################,,   '####,        
                  ,##################################################,,,,####,       
                ,###########''''           ''''###############################       
              ,#####''   ,,,,##########,,,,          '''####'''          '####       
            ,##' ,,,,###########################,,,                        '##       
           ' ,,###''''                  '''############,,,                           
         ,,##''                                '''############,,,,        ,,,,,,###''
      ,#''                                            '''#######################'''  
     '                                                          ''''####''''         
             ,#######,   #######,   ,#######,      ##                                
            ,#'     '#,  ##    ##  ,#'     '#,    #''#        ######   ,####,        
            ##       ##  ##   ,#'  ##            #'  '#       #        #'  '#        
            ##       ##  #######   ##           ,######,      #####,   #    #        
            '#,     ,#'  ##    ##  '#,     ,#' ,#      #,         ##   #,  ,#        
             '#######'   ##     ##  '#######'  #'      '#     #####' # '####'        



                  #######################################################
                  #                        -***-                        #
                  #          Department of theory and spectroscopy      #
                  #    Directorship and core code : Frank Neese         #
                  #        Max Planck Institute fuer Kohlenforschung    #
                  #                Kaiser Wilhelm Platz 1               #
                  #                 D-45470 Muelheim/Ruhr               #
                  #                      Germany                        #
                  #                                                     #
                  #                  All rights reserved                #
                  #                        -***-                        #
                  #######################################################


                         Program Version 5.0.4 -  RELEASE  -


 With contributions from (in alphabetic order):
   Daniel Aravena         : Magnetic Suceptibility
   Michael Atanasov       : Ab Initio Ligand Field Theory (pilot matlab implementation)
   Alexander A. Auer      : GIAO ZORA, VPT2 properties, NMR spectrum
   Ute Becker             : Parallelization
   Giovanni Bistoni       : ED, misc. LED, open-shell LED, HFLD
   Martin Brehm           : Molecular dynamics
   Dmytro Bykov           : SCF Hessian
   Vijay G. Chilkuri      : MRCI spin determinant printing, contributions to CSF-ICE
   Dipayan Datta          : RHF DLPNO-CCSD density
   Achintya Kumar Dutta   : EOM-CC, STEOM-CC
   Dmitry Ganyushin       : Spin-Orbit,Spin-Spin,Magnetic field MRCI
   Miquel Garcia          : C-PCM and meta-GGA Hessian, CC/C-PCM, Gaussian charge scheme
   Yang Guo               : DLPNO-NEVPT2, F12-NEVPT2, CIM, IAO-localization
   Andreas Hansen         : Spin unrestricted coupled pair/coupled cluster methods
   Benjamin Helmich-Paris : MC-RPA, TRAH-SCF, COSX integrals
   Lee Huntington         : MR-EOM, pCC
   Robert Izsak           : Overlap fitted RIJCOSX, COSX-SCS-MP3, EOM
   Marcus Kettner         : VPT2
   Christian Kollmar      : KDIIS, OOCD, Brueckner-CCSD(T), CCSD density, CASPT2, CASPT2-K
   Simone Kossmann        : Meta GGA functionals, TD-DFT gradient, OOMP2, MP2 Hessian
   Martin Krupicka        : Initial AUTO-CI
   Lucas Lang             : DCDCAS
   Marvin Lechner         : AUTO-CI (C++ implementation), FIC-MRCC
   Dagmar Lenk            : GEPOL surface, SMD
   Dimitrios Liakos       : Extrapolation schemes; Compound Job, initial MDCI parallelization
   Dimitrios Manganas     : Further ROCIS development; embedding schemes
   Dimitrios Pantazis     : SARC Basis sets
   Anastasios Papadopoulos: AUTO-CI, single reference methods and gradients
   Taras Petrenko         : DFT Hessian,TD-DFT gradient, ASA, ECA, R-Raman, ABS, FL, XAS/XES, NRVS
   Peter Pinski           : DLPNO-MP2, DLPNO-MP2 Gradient
   Christoph Reimann      : Effective Core Potentials
   Marius Retegan         : Local ZFS, SOC
   Christoph Riplinger    : Optimizer, TS searches, QM/MM, DLPNO-CCSD(T), (RO)-DLPNO pert. Triples
   Tobias Risthaus        : Range-separated hybrids, TD-DFT gradient, RPA, STAB
   Michael Roemelt        : Original ROCIS implementation
   Masaaki Saitow         : Open-shell DLPNO-CCSD energy and density
   Barbara Sandhoefer     : DKH picture change effects
   Avijit Sen             : IP-ROCIS
   Kantharuban Sivalingam : CASSCF convergence, NEVPT2, FIC-MRCI
   Bernardo de Souza      : ESD, SOC TD-DFT
   Georgi Stoychev        : AutoAux, RI-MP2 NMR, DLPNO-MP2 response
   Willem Van den Heuvel  : Paramagnetic NMR
   Boris Wezisla          : Elementary symmetry handling
   Frank Wennmohs         : Technical directorship


 We gratefully acknowledge several colleagues who have allowed us to
 interface, adapt or use parts of their codes:
   Stefan Grimme, W. Hujo, H. Kruse, P. Pracht,  : VdW corrections, initial TS optimization,
                  C. Bannwarth, S. Ehlert          DFT functionals, gCP, sTDA/sTD-DF
   Ed Valeev, F. Pavosevic, A. Kumar             : LibInt (2-el integral package), F12 methods
   Garnet Chan, S. Sharma, J. Yang, R. Olivares  : DMRG
   Ulf Ekstrom                                   : XCFun DFT Library
   Mihaly Kallay                                 : mrcc  (arbitrary order and MRCC methods)
   Jiri Pittner, Ondrej Demel                    : Mk-CCSD
   Frank Weinhold                                : gennbo (NPA and NBO analysis)
   Christopher J. Cramer and Donald G. Truhlar   : smd solvation model
   Lars Goerigk                                  : TD-DFT with DH, B97 family of functionals
   V. Asgeirsson, H. Jonsson                     : NEB implementation
   FAccTs GmbH                                   : IRC, NEB, NEB-TS, DLPNO-Multilevel, CI-OPT
                                                   MM, QMMM, 2- and 3-layer-ONIOM, Crystal-QMMM,
                                                   LR-CPCM, SF, NACMEs, symmetry and pop. for TD-DFT,
                                                   nearIR, NL-DFT gradient (VV10), updates on ESD,
                                                   ML-optimized integration grids
   S Lehtola, MJT Oliveira, MAL Marques          : LibXC Library
   Liviu Ungur et al                             : ANISO software


 Your calculation uses the libint2 library for the computation of 2-el integrals
 For citations please refer to: http://libint.valeyev.net

 Your ORCA version has been built with support for libXC version: 5.1.0
 For citations please refer to: https://tddft.org/programs/libxc/

 This ORCA versions uses:
   CBLAS   interface :  Fast vector & matrix operations
   LAPACKE interface :  Fast linear algebra routines
   SCALAPACK package :  Parallel linear algebra routines
   Shared memory     :  Shared parallel matrices
   BLAS/LAPACK       :  OpenBLAS 0.3.15  USE64BITINT DYNAMIC_ARCH NO_AFFINITY SkylakeX SINGLE_THREADED
        Core in use  :  SkylakeX
   Copyright (c) 2011-2014, The OpenBLAS Project


Your calculation utilizes the DFT-NL dispersion correction.
Cite in your paper:
Vydrov, O. A.; Van Voorhis, T. J. Chem. Phys. 2010, 133, 244103
Hujo, W.; Grimme, S. J. Chem. Theory Comput. 2011, 7, 3866 
   

================================================================================

----- Orbital basis set information -----
Your calculation utilizes the basis: def2-TZVPP
   F. Weigend and R. Ahlrichs, Phys. Chem. Chem. Phys. 7, 3297 (2005).

----- AuxJ basis set information -----
Your calculation utilizes the auxiliary basis: def2/J
   F. Weigend, Phys. Chem. Chem. Phys. 8, 1057 (2006).

================================================================================
                                        WARNINGS
                       Please study these warnings very carefully!
================================================================================

Using LibXC functional ID 531 : wB97M-V exchange-correlation functional
[ 1]  N. Mardirossian and M. Head-Gordon, J. Chem. Phys. 144, 214110 (2016)
Using LibXC functional ID 531 : wB97M-V exchange-correlation functional
[ 1]  N. Mardirossian and M. Head-Gordon, J. Chem. Phys. 144, 214110 (2016)

WARNING: B97M-V or wB97M-V functional requested.
  ===> : libXC variant has now been activated.
         Any manually given DFX/HFX/RangeSep scaling parameters are IGNORED!

Your calculation utilizes LibXC
 by S Lehtola, C Steigemann, MJT Oliveira & MAL Marques
Please cite in your paper:
 S Lehtola, C Steigemann, MJT Oliveira & MAL Marques, SoftwareX, 7, (2018), 1.
   


WARNING: your system is open-shell and RHF/RKS was chosen
  ===> : WILL SWITCH to UHF/UKS


INFO   : the flag for use of the SHARK integral package has been found!

================================================================================
                                       INPUT FILE
================================================================================
NAME = arbr_06_r2scan3c_wB97MV_ox.inp
|  1> %PAL NPROCS 16 END
|  2> %maxcore 4000
|  3> # arbr_06_r2scan3c.out
|  4> ! wB97m-v def2-TZVPP def2/J RIJCOSX Hirshfeld
|  5> * xyz 1 2
|  6>    O       -4.32090        -0.63610         0.00003
|  7>    C       -3.57899         0.30852        -0.00002
|  8>    C       -2.10139         0.20742        -0.00001
|  9>    C       -1.48285        -1.04063        -0.00001
| 10>    C       -0.10379        -1.13196        -0.00001
| 11>    C        0.64993         0.03698         0.00000
| 12>   Br        2.53689        -0.08398         0.00000
| 13>    C        0.05243         1.28786         0.00000
| 14>    C       -1.33197         1.36418        -0.00001
| 15>    H       -3.97599         1.34230         0.00000
| 16>    H       -2.10120        -1.92928        -0.00002
| 17>    H        0.39047        -2.09329        -0.00001
| 18>    H        0.66101         2.18094         0.00001
| 19>    H       -1.81841         2.33313        -0.00000
| 20> *
| 21> 
| 22>                          ****END OF INPUT****
================================================================================

                       ****************************
                       * Single Point Calculation *
                       ****************************

---------------------------------
CARTESIAN COORDINATES (ANGSTROEM)
---------------------------------
  O     -4.320900   -0.636100    0.000030
  C     -3.578990    0.308520   -0.000020
  C     -2.101390    0.207420   -0.000010
  C     -1.482850   -1.040630   -0.000010
  C     -0.103790   -1.131960   -0.000010
  C      0.649930    0.036980    0.000000
  Br     2.536890   -0.083980    0.000000
  C      0.052430    1.287860    0.000000
  C     -1.331970    1.364180   -0.000010
  H     -3.975990    1.342300    0.000000
  H     -2.101200   -1.929280   -0.000020
  H      0.390470   -2.093290   -0.000010
  H      0.661010    2.180940    0.000010
  H     -1.818410    2.333130   -0.000000

----------------------------
CARTESIAN COORDINATES (A.U.)
----------------------------
  NO LB      ZA    FRAG     MASS         X           Y           Z
   0 O     8.0000    0    15.999   -8.165318   -1.202055    0.000057
   1 C     6.0000    0    12.011   -6.763311    0.583018   -0.000038
   2 C     6.0000    0    12.011   -3.971052    0.391967   -0.000019
   3 C     6.0000    0    12.011   -2.802180   -1.966506   -0.000019
   4 C     6.0000    0    12.011   -0.196135   -2.139094   -0.000019
   5 C     6.0000    0    12.011    1.228190    0.069882    0.000000
   6 Br   35.0000    0    79.900    4.794027   -0.158699    0.000000
   7 C     6.0000    0    12.011    0.099078    2.433703    0.000000
   8 C     6.0000    0    12.011   -2.517059    2.577927   -0.000019
   9 H     1.0000    0     1.008   -7.513532    2.536579    0.000000
  10 H     1.0000    0     1.008   -3.970693   -3.645811   -0.000038
  11 H     1.0000    0     1.008    0.737881   -3.955745   -0.000019
  12 H     1.0000    0     1.008    1.249128    4.121379    0.000019
  13 H     1.0000    0     1.008   -3.436297    4.408977   -0.000000

--------------------------------
INTERNAL COORDINATES (ANGSTROEM)
--------------------------------
 O      0   0   0     0.000000000000     0.00000000     0.00000000
 C      1   0   0     1.201140039712     0.00000000     0.00000000
 C      2   1   0     1.481054681671   124.23211770     0.00000000
 C      3   2   1     1.392917992597   120.27742974     0.00000000
 C      4   3   2     1.382080913876   120.15220478   179.99955204
 C      5   4   3     1.390868276330   119.02453679     0.00000000
 Br     6   5   4     1.890832981307   119.14567061   180.00000085
 C      6   5   4     1.386256478578   121.65439645     0.00000000
 C      8   6   5     1.386502110529   118.68755453     0.00000000
 H      2   1   3     1.107388860699   120.84553928   180.00472038
 H      4   3   2     1.082615141729   118.80536438     0.00000000
 H      5   4   3     1.080947878716   120.99854609   180.00000000
 H      8   6   5     1.080722676222   120.19582267   179.99987055
 H      9   8   6     1.084199232706   119.81337164   179.99938026

---------------------------
INTERNAL COORDINATES (A.U.)
---------------------------
 O      0   0   0     0.000000000000     0.00000000     0.00000000
 C      1   0   0     2.269825723543     0.00000000     0.00000000
 C      2   1   0     2.798787737720   124.23211770     0.00000000
 C      3   2   1     2.632233533019   120.27742974     0.00000000
 C      4   3   2     2.611754422145   120.15220478   179.99955204
 C      5   4   3     2.628360130622   119.02453679     0.00000000
 Br     6   5   4     3.573156499657   119.14567061   180.00000085
 C      6   5   4     2.619645095887   121.65439645     0.00000000
 C      8   6   5     2.620109273003   118.68755453     0.00000000
 H      2   1   3     2.092661670476   120.84553928   180.00472038
 H      4   3   2     2.045846126303   118.80536438     0.00000000
 H      5   4   3     2.042695455816   120.99854609   180.00000000
 H      8   6   5     2.042269884778   120.19582267   179.99987055
 H      9   8   6     2.048839624422   119.81337164   179.99938026

---------------------
BASIS SET INFORMATION
---------------------
There are 4 groups of distinct atoms

 Group   1 Type O   : 11s6p2d1f contracted to 5s3p2d1f pattern {62111/411/11/1}
 Group   2 Type C   : 11s6p2d1f contracted to 5s3p2d1f pattern {62111/411/11/1}
 Group   3 Type Br  : 17s13p8d1f contracted to 6s5p4d1f pattern {842111/64111/5111/1}
 Group   4 Type H   : 5s2p1d contracted to 3s2p1d pattern {311/11/1}

Atom   0O    basis set group =>   1
Atom   1C    basis set group =>   2
Atom   2C    basis set group =>   2
Atom   3C    basis set group =>   2
Atom   4C    basis set group =>   2
Atom   5C    basis set group =>   2
Atom   6Br   basis set group =>   3
Atom   7C    basis set group =>   2
Atom   8C    basis set group =>   2
Atom   9H    basis set group =>   4
Atom  10H    basis set group =>   4
Atom  11H    basis set group =>   4
Atom  12H    basis set group =>   4
Atom  13H    basis set group =>   4
---------------------------------
AUXILIARY/J BASIS SET INFORMATION
---------------------------------
There are 4 groups of distinct atoms

 Group   1 Type O   : 12s5p4d2f1g contracted to 6s4p3d1f1g pattern {711111/2111/211/2/1}
 Group   2 Type C   : 12s5p4d2f1g contracted to 6s4p3d1f1g pattern {711111/2111/211/2/1}
 Group   3 Type Br  : 19s5p5d3f1g contracted to 8s4p3d2f1g pattern {121111111/2111/311/21/1}
 Group   4 Type H   : 5s2p1d contracted to 3s1p1d pattern {311/2/1}

Atom   0O    basis set group =>   1
Atom   1C    basis set group =>   2
Atom   2C    basis set group =>   2
Atom   3C    basis set group =>   2
Atom   4C    basis set group =>   2
Atom   5C    basis set group =>   2
Atom   6Br   basis set group =>   3
Atom   7C    basis set group =>   2
Atom   8C    basis set group =>   2
Atom   9H    basis set group =>   4
Atom  10H    basis set group =>   4
Atom  11H    basis set group =>   4
Atom  12H    basis set group =>   4
Atom  13H    basis set group =>   4


           ************************************************************
           *        Program running with 16 parallel MPI-processes    *
           *              working on a common directory               *
           ************************************************************
------------------------------------------------------------------------------
                           ORCA GTO INTEGRAL CALCULATION
                           -- RI-GTO INTEGRALS CHOSEN --
------------------------------------------------------------------------------
------------------------------------------------------------------------------
                   ___                                                        
                  /   \      - P O W E R E D   B Y -                         
                 /     \                                                     
                 |  |  |   _    _      __       _____    __    __             
                 |  |  |  | |  | |    /  \     |  _  \  |  |  /  |          
                  \  \/   | |  | |   /    \    | | | |  |  | /  /          
                 / \  \   | |__| |  /  /\  \   | |_| |  |  |/  /          
                |  |  |   |  __  | /  /__\  \  |    /   |      \           
                |  |  |   | |  | | |   __   |  |    \   |  |\   \          
                \     /   | |  | | |  |  |  |  | |\  \  |  | \   \       
                 \___/    |_|  |_| |__|  |__|  |_| \__\ |__|  \__/        
                                                                              
                      - O R C A' S   B I G   F R I E N D -                    
                                      &                                       
                       - I N T E G R A L  F E E D E R -                       
                                                                              
 v1 FN, 2020, v2 2021                                                         
------------------------------------------------------------------------------


Reading SHARK input file arbr_06_r2scan3c_wB97MV_ox.SHARKINP.tmp ... ok
----------------------
SHARK INTEGRAL PACKAGE
----------------------

Number of atoms                             ...     14
Number of basis functions                   ...    366
Number of shells                            ...    134
Maximum angular momentum                    ...      3
Integral batch strategy                     ... SHARK/LIBINT Hybrid
RI-J (if used) integral strategy            ... SPLIT-RIJ (Revised 2003 algorithm where possible)
Printlevel                                  ...      1
Contraction scheme used                     ... SEGMENTED contraction
Coulomb Range Separation                    ... NOT USED
Exchange Range Separation                   ... Long Range
   Mu parameter                             ...  0.300000
   Scaling (regular/separated)              ...  0.150000  0.850000
Finite Nucleus Model                        ... NOT USED
Auxiliary Coulomb fitting basis             ... AVAILABLE
   # of basis functions in Aux-J            ...    505
   # of shells in Aux-J                     ...    163
   Maximum angular momentum in Aux-J        ...      4
Auxiliary J/K fitting basis                 ... NOT available
Auxiliary Correlation fitting basis         ... NOT available
Auxiliary 'external' fitting basis          ... NOT available
Integral threshold                          ...     1.000000e-10
Primitive cut-off                           ...     1.000000e-11
Primitive pair pre-selection threshold      ...     1.000000e-11

Calculating pre-screening integrals         ... done (  0.0 sec) Dimension = 134
Organizing shell pair data                  ... done (  0.1 sec)
Shell pair information
Total number of shell pairs                 ...      9045
Shell pairs after pre-screening             ...      7808
Total number of primitive shell pairs       ...     28937
Primitive shell pairs kept                  ...     18031
          la=0 lb=0:   1560 shell pairs
          la=1 lb=0:   2091 shell pairs
          la=1 lb=1:    718 shell pairs
          la=2 lb=0:   1272 shell pairs
          la=2 lb=1:    863 shell pairs
          la=2 lb=2:    276 shell pairs
          la=3 lb=0:    471 shell pairs
          la=3 lb=1:    317 shell pairs
          la=3 lb=2:    199 shell pairs
          la=3 lb=3:     41 shell pairs

Calculating one electron integrals          ... done (  0.0 sec)
Calculating RI/J V-Matrix + Cholesky decomp.... done (  0.0 sec)
Calculating Nuclear repulsion               ... done (  0.0 sec) ENN=    589.212369708903 Eh

SHARK setup successfully completed in   0.3 seconds

Maximum memory used throughout the entire GTOINT-calculation: 24.9 MB


           ************************************************************
           *        Program running with 16 parallel MPI-processes    *
           *              working on a common directory               *
           ************************************************************
-------------------------------------------------------------------------------
                                 ORCA SCF
-------------------------------------------------------------------------------

------------
SCF SETTINGS
------------
Hamiltonian:
 Density Functional     Method          .... DFT(GTOs)
  Functional kind                       .... Exchange-Correlation
  Functional name                       .... wB97M-V exchange-correlation functional
  Functional family                     .... Hybrid MGGA
  Functional refs                              
    [ 0] N. Mardirossian and M. Head-Gordon, J. Chem. Phys. 144, 214110 (2016)
  Fraction of HF Exchange (short range) .... 0.1500
  Fraction of HF Exchange (long range)  .... 1.0000
  Range separation parameter mu         .... 0.3000
  Functional external parameters         .... 0
   Density functional embedding theory  .... OFF
 Long-range corrected/Screened/Range-Separated Hybrid DFT is turned on
   Amount of maximum screened exact exchange              ....  0.850000
   Range separation parameter mu (erf(mu*r12)/r12)        ....  0.300000
   NL short-range parameter             ....  6.000000
   NL long-range parameter              ....  0.010000
 RI-approximation to the Coulomb term is turned on
   Number of AuxJ basis functions       .... 505
   RIJ-COSX (HFX calculated with COS-X)).... on


General Settings:
 Integral files         IntName         .... arbr_06_r2scan3c_wB97MV_ox
 Hartree-Fock type      HFTyp           .... UHF
 Total Charge           Charge          ....    1
 Multiplicity           Mult            ....    2
 Number of Electrons    NEL             ....   89
 Basis Dimension        Dim             ....  366
 Nuclear Repulsion      ENuc            ....    589.2123697089 Eh

Convergence Acceleration:
 DIIS                   CNVDIIS         .... on
   Start iteration      DIISMaxIt       ....    12
   Startup error        DIISStart       ....  0.200000
   # of expansion vecs  DIISMaxEq       ....     5
   Bias factor          DIISBfac        ....   1.050
   Max. coefficient     DIISMaxC        ....  10.000
 Trust-Rad. Augm. Hess. CNVTRAH         .... auto
   Auto Start mean grad. ratio tolernc. ....  1.125000
   Auto Start start iteration           ....    20
   Auto Start num. interpolation iter.  ....    10
   Max. Number of Micro iterations      ....    16
   Max. Number of Macro iterations      .... Maxiter - #DIIS iter
   Number of Davidson start vectors     ....     2
   Converg. threshold I  (grad. norm)   ....   5.000e-05
   Converg. threshold II (energy diff.) ....   1.000e-06
   Grad. Scal. Fac. for Micro threshold ....   0.100
   Minimum threshold for Micro iter.    ....   0.010
   NR start threshold (gradient norm)   ....   0.001
   Initial trust radius                 ....   0.400
   Minimum AH scaling param. (alpha)    ....   1.000
   Maximum AH scaling param. (alpha)    .... 1000.000
   Orbital update algorithm             .... Taylor
   White noise on init. David. guess    .... on
   Maximum white noise                  ....   0.010
   Quad. conv. algorithm                .... NR
 SOSCF                  CNVSOSCF        .... off
 Level Shifting         CNVShift        .... on
   Level shift para.    LevelShift      ....    0.2500
   Turn off err/grad.   ShiftErr        ....    0.0010
 Zerner damping         CNVZerner       .... off
 Static damping         CNVDamp         .... on
   Fraction old density DampFac         ....    0.7000
   Max. Damping (<1)    DampMax         ....    0.9800
   Min. Damping (>=0)   DampMin         ....    0.0000
   Turn off err/grad.   DampErr         ....    0.1000
 Fernandez-Rico         CNVRico         .... off

SCF Procedure:
 Maximum # iterations   MaxIter         ....   125
 SCF integral mode      SCFMode         .... Direct
   Integral package                     .... SHARK and LIBINT hybrid scheme
 Reset frequency        DirectResetFreq ....    20
 Integral Threshold     Thresh          ....  1.000e-10 Eh
 Primitive CutOff       TCut            ....  1.000e-11 Eh

Convergence Tolerance:
 Convergence Check Mode ConvCheckMode   .... Total+1el-Energy
 Convergence forced     ConvForced      .... 0
 Energy Change          TolE            ....  1.000e-06 Eh
 1-El. energy change                    ....  1.000e-03 Eh
 DIIS Error             TolErr          ....  1.000e-06


Diagonalization of the overlap matrix:
Smallest eigenvalue                        ... 7.949e-06
Time for diagonalization                   ...    0.018 sec
Threshold for overlap eigenvalues          ... 1.000e-08
Number of eigenvalues below threshold      ... 0
Time for construction of square roots      ...    0.010 sec
Total time needed                          ...    0.029 sec

Time for model grid setup =    0.072 sec

------------------------------
INITIAL GUESS: MODEL POTENTIAL
------------------------------
Loading Hartree-Fock densities                     ... done
Calculating cut-offs                               ... done
Initializing the effective Hamiltonian             ... done
Setting up the integral package (SHARK)            ... done
Starting the Coulomb interaction                   ... done (   0.0 sec)
Reading the grid                                   ... done
Mapping shells                                     ... done
Starting the XC term evaluation                    ... done (   0.0 sec)
  promolecular density results
     # of electrons  =     89.997076005
     EX              =   -134.702988173
     EC              =     -3.551843978
     EX+EC           =   -138.254832151
Transforming the Hamiltonian                       ... done (   0.0 sec)
Diagonalizing the Hamiltonian                      ... done (   0.0 sec)
Back transforming the eigenvectors                 ... done (   0.0 sec)
Now organizing SCF variables                       ... done
                      ------------------
                      INITIAL GUESS DONE (   0.2 sec)
                      ------------------
-------------------
DFT GRID GENERATION
-------------------

General Integration Accuracy     IntAcc      ... 4.388
Radial Grid Type                 RadialGrid  ... OptM3 with GC (2021)
Angular Grid (max. ang.)         AngularGrid ... 4 (Lebedev-302)
Angular grid pruning method      GridPruning ... 4 (adaptive)
Weight generation scheme         WeightScheme... Becke
Basis function cutoff            BFCut       ... 1.0000e-10
Integration weight cutoff        WCut        ... 1.0000e-14
Angular grids for H and He will be reduced by one unit
Partially contracted basis set               ... off
Rotationally invariant grid construction     ... off

Total number of grid points                  ...    75517
Total number of batches                      ...     1186
Average number of points per batch           ...       63
Average number of grid points per atom       ...     5394
Time for grid setup =    0.355 sec

--------------------
COSX GRID GENERATION
--------------------

GRIDX 1
-------
General Integration Accuracy     IntAcc      ... 3.816
Radial Grid Type                 RadialGrid  ... OptM3 with GC (2021)
Angular Grid (max. ang.)         AngularGrid ... 1 (Lebedev-50)
Angular grid pruning method      GridPruning ... 4 (adaptive)
Weight generation scheme         WeightScheme... Becke
Basis function cutoff            BFCut       ... 1.0000e-10
Integration weight cutoff        WCut        ... 1.0000e-14
Angular grids for H and He will be reduced by one unit
Partially contracted basis set               ... on
Rotationally invariant grid construction     ... off

Total number of grid points                  ...     9434
Total number of batches                      ...      155
Average number of points per batch           ...       60
Average number of grid points per atom       ...      674
UseSFitting                                  ... on

GRIDX 2
-------
General Integration Accuracy     IntAcc      ... 4.020
Radial Grid Type                 RadialGrid  ... OptM3 with GC (2021)
Angular Grid (max. ang.)         AngularGrid ... 2 (Lebedev-110)
Angular grid pruning method      GridPruning ... 4 (adaptive)
Weight generation scheme         WeightScheme... Becke
Basis function cutoff            BFCut       ... 1.0000e-10
Integration weight cutoff        WCut        ... 1.0000e-14
Angular grids for H and He will be reduced by one unit
Partially contracted basis set               ... on
Rotationally invariant grid construction     ... off

Total number of grid points                  ...    20906
Total number of batches                      ...      335
Average number of points per batch           ...       62
Average number of grid points per atom       ...     1493
UseSFitting                                  ... on

GRIDX 3
-------
General Integration Accuracy     IntAcc      ... 4.338
Radial Grid Type                 RadialGrid  ... OptM3 with GC (2021)
Angular Grid (max. ang.)         AngularGrid ... 3 (Lebedev-194)
Angular grid pruning method      GridPruning ... 4 (adaptive)
Weight generation scheme         WeightScheme... Becke
Basis function cutoff            BFCut       ... 1.0000e-10
Integration weight cutoff        WCut        ... 1.0000e-14
Angular grids for H and He will be reduced by one unit
Partially contracted basis set               ... on
Rotationally invariant grid construction     ... off

Total number of grid points                  ...    46332
Total number of batches                      ...      731
Average number of points per batch           ...       63
Average number of grid points per atom       ...     3309
UseSFitting                                  ... on

Time for X-Grid setup             =    0.292 sec

--------------
SCF ITERATIONS
--------------
ITER       Energy         Delta-E        Max-DP      RMS-DP      [F,P]     Damp
               ***  Starting incremental Fock matrix formation  ***
  0  -2918.7267978903   0.000000000000 0.09125185  0.00064818  0.1368626 0.7000
  1  -2918.8398213868  -0.113023496457 0.08324851  0.00053600  0.0668677 0.7000
                               ***Turning on DIIS***
  2  -2918.8934967662  -0.053675379421 0.13037152  0.00099810  0.0252997 0.0000
  3  -2918.9773883992  -0.083891632996 0.06684769  0.00041347  0.0341403 0.0000
  4  -2918.9971335383  -0.019745139100 0.01864864  0.00017645  0.0076570 0.0000
  5  -2918.9993013122  -0.002167773872 0.01399040  0.00011145  0.0063751 0.0000
  6  -2919.0004503048  -0.001148992613 0.00691612  0.00007514  0.0060051 0.0000
  7  -2919.0012652591  -0.000814954348 0.00795677  0.00006655  0.0054216 0.0000
  8  -2919.0018873698  -0.000622110673 0.00690386  0.00004730  0.0042802 0.0000
  9  -2919.0022611694  -0.000373799648 0.00560948  0.00003381  0.0034794 0.0000
 10  -2919.0024837522  -0.000222582726 0.00472255  0.00003320  0.0022080 0.0000
 11  -2919.0026272536  -0.000143501408 0.00358065  0.00002281  0.0018622 0.0000
 12  -2919.0027094738  -0.000082220227 0.00307217  0.00002148  0.0012354 0.0000
 13  -2919.0027598344  -0.000050360583 0.00400038  0.00002416  0.0008932 0.0000
               *** Restarting incremental Fock matrix formation ***
                                   *** Resetting DIIS ***
 14  -2919.0027593473   0.000000487078 0.00056340  0.00001245  0.0003075 0.0000
 15  -2919.0027625991  -0.000003251776 0.00055692  0.00000326  0.0003645 0.0000
 16  -2919.0027646708  -0.000002071697 0.00034992  0.00000455  0.0002217 0.0000
 17  -2919.0027676316  -0.000002960867 0.00032291  0.00000349  0.0001500 0.0000
 18  -2919.0027691433  -0.000001511628 0.00028405  0.00000279  0.0001122 0.0000
                 **** Energy Check signals convergence ****

               *****************************************************
               *                     SUCCESS                       *
               *           SCF CONVERGED AFTER  19 CYCLES          *
               *****************************************************

Old exchange energy                            =    -32.408240732 Eh
New exchange energy                            =    -32.408236974 Eh
Exchange energy change after final integration =      0.000003759 Eh
Total energy after final integration           =  -2919.002766215 Eh
Final COS-X integration done in                =     3.985 sec

------------------
NL GRID GENERATION
------------------

General Integration Accuracy     IntAcc      ... 4.004
Radial Grid Type                 RadialGrid  ... OptM3 with GC (2021)
Angular Grid (max. ang.)         AngularGrid ... 2 (Lebedev-110)
Angular grid pruning method      GridPruning ... 4 (adaptive)
Weight generation scheme         WeightScheme... Becke
Basis function cutoff            BFCut       ... 1.0000e-10
Integration weight cutoff        WCut        ... 1.0000e-14
Angular grids for H and He will be reduced by one unit
Partially contracted basis set               ... off
Rotationally invariant grid construction     ... off

Total number of grid points                  ...    26364
Total number of batches                      ...      420
Average number of points per batch           ...       62
Average number of grid points per atom       ...     1883
Final grid set up in    0.1 sec

-------------------------------------------------------------------------------
                    post-SCF DFT-NL dispersion correction                      
-------------------------------------------------------------------------------

SCF Energy:   -2919.002766215 
NL    Energy:  0.352880352 
SC+NL Energy: -2918.649885863 
NL done in:    0.2 sec
-------------------------------------------------------------------------------

----------------
TOTAL SCF ENERGY
----------------

Total Energy       :        -2918.64988586 Eh          -79420.50105 eV

Components:
Nuclear Repulsion  :          589.21236971 Eh           16033.28370 eV
Electronic Energy  :        -3507.86225557 Eh          -95453.78475 eV
One Electron Energy:        -5201.58850289 Eh         -141542.41904 eV
Two Electron Energy:         1693.72624732 Eh           46088.63429 eV
Max COSX asymmetry :            0.00000132 Eh               0.00004 eV

Virial components:
Potential Energy   :        -5833.44792295 Eh         -158736.18798 eV
Kinetic Energy     :         2914.79803709 Eh           79315.68692 eV
Virial Ratio       :            2.00132148


DFT components:
N(Alpha)           :       45.000030163787 electrons
N(Beta)            :       44.000027825364 electrons
N(Total)           :       89.000057989151 electrons
NL Energy, E(C,NL) :        0.352880352340 Eh       
E(XC)              :     -106.853710670860 Eh       
DFET-embed. en.    :        0.000000000000 Eh       

---------------
SCF CONVERGENCE
---------------

  Last Energy change         ...   -8.3071e-07  Tolerance :   1.0000e-06
  Last MAX-Density change    ...    0.0000e+00  Tolerance :   1.0000e-05
  Last RMS-Density change    ...    0.0000e+00  Tolerance :   1.0000e-06
  Last DIIS Error            ...    6.5162e-05  Tolerance :   1.0000e-06

             **** THE GBW FILE WAS UPDATED (arbr_06_r2scan3c_wB97MV_ox.gbw) ****
             **** DENSITY arbr_06_r2scan3c_wB97MV_ox.scfp WAS UPDATED ****
             **** ENERGY FILE WAS UPDATED (arbr_06_r2scan3c_wB97MV_ox.en.tmp) ****
----------------------
UHF SPIN CONTAMINATION
----------------------

Warning: in a DFT calculation there is little theoretical justification to 
         calculate <S**2> as in Hartree-Fock theory. We will do it anyways
         but you should keep in mind that the values have only limited relevance

Expectation value of <S**2>     :     0.774723
Ideal value S*(S+1) for S=0.5   :     0.750000
Deviation                       :     0.024723

             **** THE GBW FILE WAS UPDATED (arbr_06_r2scan3c_wB97MV_ox.gbw) ****
             **** DENSITY arbr_06_r2scan3c_wB97MV_ox.scfp WAS UPDATED ****
----------------
ORBITAL ENERGIES
----------------
                 SPIN UP ORBITALS
  NO   OCC          E(Eh)            E(eV) 
   0   1.0000    -483.739023    -13163.2080 
   1   1.0000     -63.042503     -1715.4737 
   2   1.0000     -56.728875     -1543.6712 
   3   1.0000     -56.728325     -1543.6562 
   4   1.0000     -56.726543     -1543.6077 
   5   1.0000     -19.516767      -531.0782 
   6   1.0000     -10.653879      -289.9068 
   7   1.0000     -10.609169      -288.6902 
   8   1.0000     -10.596333      -288.3409 
   9   1.0000     -10.584233      -288.0116 
  10   1.0000     -10.577298      -287.8229 
  11   1.0000     -10.572375      -287.6890 
  12   1.0000     -10.568498      -287.5834 
  13   1.0000      -9.125208      -248.3095 
  14   1.0000      -6.909736      -188.0235 
  15   1.0000      -6.904666      -187.8855 
  16   1.0000      -6.897265      -187.6841 
  17   1.0000      -2.992017       -81.4169 
  18   1.0000      -2.991056       -81.3908 
  19   1.0000      -2.985616       -81.2427 
  20   1.0000      -2.981117       -81.1203 
  21   1.0000      -2.980181       -81.0948 
  22   1.0000      -1.362765       -37.0827 
  23   1.0000      -1.234880       -33.6028 
  24   1.0000      -1.161599       -31.6087 
  25   1.0000      -1.099391       -29.9159 
  26   1.0000      -1.086757       -29.5722 
  27   1.0000      -0.965112       -26.2620 
  28   1.0000      -0.954613       -25.9763 
  29   1.0000      -0.892434       -24.2844 
  30   1.0000      -0.827354       -22.5134 
  31   1.0000      -0.801688       -21.8150 
  32   1.0000      -0.771481       -20.9931 
  33   1.0000      -0.753722       -20.5098 
  34   1.0000      -0.741994       -20.1907 
  35   1.0000      -0.739452       -20.1215 
  36   1.0000      -0.723134       -19.6775 
  37   1.0000      -0.691736       -18.8231 
  38   1.0000      -0.672265       -18.2932 
  39   1.0000      -0.664757       -18.0890 
  40   1.0000      -0.632739       -17.2177 
  41   1.0000      -0.600511       -16.3407 
  42   1.0000      -0.568143       -15.4599 
  43   1.0000      -0.562427       -15.3044 
  44   1.0000      -0.545291       -14.8381 
  45   0.0000      -0.192894        -5.2489 
  46   0.0000      -0.150171        -4.0864 
  47   0.0000      -0.121788        -3.3140 
  48   0.0000      -0.077977        -2.1219 
  49   0.0000      -0.030267        -0.8236 
  50   0.0000      -0.021821        -0.5938 
  51   0.0000      -0.003443        -0.0937 
  52   0.0000       0.006301         0.1715 
  53   0.0000       0.014278         0.3885 
  54   0.0000       0.022862         0.6221 
  55   0.0000       0.033138         0.9017 
  56   0.0000       0.055495         1.5101 
  57   0.0000       0.062460         1.6996 
  58   0.0000       0.081152         2.2083 
  59   0.0000       0.084312         2.2942 
  60   0.0000       0.099986         2.7208 
  61   0.0000       0.111850         3.0436 
  62   0.0000       0.122561         3.3351 
  63   0.0000       0.124985         3.4010 
  64   0.0000       0.125893         3.4257 
  65   0.0000       0.133693         3.6380 
  66   0.0000       0.141991         3.8638 
  67   0.0000       0.166400         4.5280 
  68   0.0000       0.168437         4.5834 
  69   0.0000       0.174856         4.7581 
  70   0.0000       0.181245         4.9319 
  71   0.0000       0.188858         5.1391 
  72   0.0000       0.194283         5.2867 
  73   0.0000       0.212054         5.7703 
  74   0.0000       0.224004         6.0955 
  75   0.0000       0.232704         6.3322 
  76   0.0000       0.239275         6.5110 
  77   0.0000       0.250644         6.8204 
  78   0.0000       0.252403         6.8682 
  79   0.0000       0.263791         7.1781 
  80   0.0000       0.289097         7.8667 
  81   0.0000       0.292894         7.9700 
  82   0.0000       0.305716         8.3190 
  83   0.0000       0.313305         8.5254 
  84   0.0000       0.321251         8.7417 
  85   0.0000       0.329302         8.9608 
  86   0.0000       0.341813         9.3012 
  87   0.0000       0.360409         9.8072 
  88   0.0000       0.380309        10.3487 
  89   0.0000       0.399764        10.8781 
  90   0.0000       0.404763        11.0142 
  91   0.0000       0.422178        11.4880 
  92   0.0000       0.430274        11.7084 
  93   0.0000       0.433934        11.8080 
  94   0.0000       0.434151        11.8138 
  95   0.0000       0.449210        12.2236 
  96   0.0000       0.451632        12.2895 
  97   0.0000       0.460935        12.5427 
  98   0.0000       0.520248        14.1567 
  99   0.0000       0.522123        14.2077 
 100   0.0000       0.546442        14.8694 
 101   0.0000       0.549822        14.9614 
 102   0.0000       0.553930        15.0732 
 103   0.0000       0.569504        15.4970 
 104   0.0000       0.571786        15.5591 
 105   0.0000       0.604326        16.4446 
 106   0.0000       0.624421        16.9914 
 107   0.0000       0.644671        17.5424 
 108   0.0000       0.645473        17.5642 
 109   0.0000       0.657312        17.8864 
 110   0.0000       0.667347        18.1594 
 111   0.0000       0.688407        18.7325 
 112   0.0000       0.702242        19.1090 
 113   0.0000       0.706928        19.2365 
 114   0.0000       0.720276        19.5997 
 115   0.0000       0.738976        20.1086 
 116   0.0000       0.748361        20.3639 
 117   0.0000       0.767364        20.8810 
 118   0.0000       0.807364        21.9695 
 119   0.0000       0.820637        22.3307 
 120   0.0000       0.833757        22.6877 
 121   0.0000       0.852101        23.1869 
 122   0.0000       0.859886        23.3987 
 123   0.0000       0.868561        23.6347 
 124   0.0000       0.878606        23.9081 
 125   0.0000       0.894723        24.3467 
 126   0.0000       0.907618        24.6975 
 127   0.0000       0.931468        25.3465 
 128   0.0000       0.938994        25.5513 
 129   0.0000       0.963353        26.2142 
 130   0.0000       1.011070        27.5126 
 131   0.0000       1.031513        28.0689 
 132   0.0000       1.034820        28.1589 
 133   0.0000       1.043109        28.3844 
 134   0.0000       1.061329        28.8802 
 135   0.0000       1.066812        29.0294 
 136   0.0000       1.071772        29.1644 
 137   0.0000       1.085661        29.5423 
 138   0.0000       1.130842        30.7718 
 139   0.0000       1.138301        30.9748 
 140   0.0000       1.141384        31.0586 
 141   0.0000       1.160695        31.5841 
 142   0.0000       1.171748        31.8849 
 143   0.0000       1.181364        32.1466 
 144   0.0000       1.199044        32.6276 
 145   0.0000       1.211834        32.9757 
 146   0.0000       1.231046        33.4985 
 147   0.0000       1.242918        33.8215 
 148   0.0000       1.248109        33.9628 
 149   0.0000       1.263909        34.3927 
 150   0.0000       1.287772        35.0421 
 151   0.0000       1.301193        35.4073 
 152   0.0000       1.307025        35.5660 
 153   0.0000       1.342707        36.5369 
 154   0.0000       1.344959        36.5982 
 155   0.0000       1.350311        36.7438 
 156   0.0000       1.355751        36.8919 
 157   0.0000       1.375260        37.4227 
 158   0.0000       1.399382        38.0791 
 159   0.0000       1.410427        38.3797 
 160   0.0000       1.418578        38.6015 
 161   0.0000       1.424589        38.7650 
 162   0.0000       1.446377        39.3579 
 163   0.0000       1.448358        39.4118 
 164   0.0000       1.472925        40.0803 
 165   0.0000       1.473514        40.0964 
 166   0.0000       1.499984        40.8166 
 167   0.0000       1.514139        41.2018 
 168   0.0000       1.522604        41.4322 
 169   0.0000       1.532215        41.6937 
 170   0.0000       1.533682        41.7336 
 171   0.0000       1.552232        42.2384 
 172   0.0000       1.582962        43.0746 
 173   0.0000       1.614286        43.9270 
 174   0.0000       1.621301        44.1178 
 175   0.0000       1.629562        44.3426 
 176   0.0000       1.672244        45.5041 
 177   0.0000       1.681280        45.7499 
 178   0.0000       1.691861        46.0379 
 179   0.0000       1.711837        46.5814 
 180   0.0000       1.714030        46.6411 
 181   0.0000       1.733018        47.1578 
 182   0.0000       1.778319        48.3905 
 183   0.0000       1.801426        49.0193 
 184   0.0000       1.825995        49.6878 
 185   0.0000       1.862671        50.6859 
 186   0.0000       1.865965        50.7755 
 187   0.0000       1.895478        51.5786 
 188   0.0000       1.922313        52.3088 
 189   0.0000       1.958922        53.3050 
 190   0.0000       1.964844        53.4661 
 191   0.0000       1.982452        53.9453 
 192   0.0000       2.034292        55.3559 
 193   0.0000       2.042455        55.5780 
 194   0.0000       2.051044        55.8118 
 195   0.0000       2.089422        56.8561 
 196   0.0000       2.117715        57.6260 
 197   0.0000       2.160975        58.8031 
 198   0.0000       2.198256        59.8176 
 199   0.0000       2.225201        60.5508 
 200   0.0000       2.241468        60.9935 
 201   0.0000       2.255349        61.3712 
 202   0.0000       2.324069        63.2411 
 203   0.0000       2.374623        64.6168 
 204   0.0000       2.412652        65.6516 
 205   0.0000       2.432825        66.2005 
 206   0.0000       2.464498        67.0624 
 207   0.0000       2.490740        67.7765 
 208   0.0000       2.522747        68.6474 
 209   0.0000       2.556676        69.5707 
 210   0.0000       2.572144        69.9916 
 211   0.0000       2.575157        70.0736 
 212   0.0000       2.586591        70.3847 
 213   0.0000       2.589323        70.4591 
 214   0.0000       2.617292        71.2201 
 215   0.0000       2.622405        71.3593 
 216   0.0000       2.670543        72.6692 
 217   0.0000       2.683328        73.0171 
 218   0.0000       2.689971        73.1978 
 219   0.0000       2.697418        73.4005 
 220   0.0000       2.697504        73.4028 
 221   0.0000       2.702885        73.5492 
 222   0.0000       2.762047        75.1591 
 223   0.0000       2.765576        75.2551 
 224   0.0000       2.794165        76.0331 
 225   0.0000       2.807330        76.3913 
 226   0.0000       2.819988        76.7358 
 227   0.0000       2.824425        76.8565 
 228   0.0000       2.840934        77.3058 
 229   0.0000       2.873721        78.1979 
 230   0.0000       2.880603        78.3852 
 231   0.0000       2.888027        78.5872 
 232   0.0000       2.893571        78.7381 
 233   0.0000       2.896600        78.8205 
 234   0.0000       2.901593        78.9563 
 235   0.0000       2.962264        80.6073 
 236   0.0000       2.985004        81.2261 
 237   0.0000       3.002262        81.6957 
 238   0.0000       3.012011        81.9610 
 239   0.0000       3.019302        82.1594 
 240   0.0000       3.028119        82.3993 
 241   0.0000       3.033455        82.5445 
 242   0.0000       3.056832        83.1806 
 243   0.0000       3.068946        83.5103 
 244   0.0000       3.070149        83.5430 
 245   0.0000       3.085773        83.9682 
 246   0.0000       3.107117        84.5489 
 247   0.0000       3.139464        85.4291 
 248   0.0000       3.172516        86.3285 
 249   0.0000       3.173103        86.3445 
 250   0.0000       3.183852        86.6370 
 251   0.0000       3.219599        87.6097 
 252   0.0000       3.224752        87.7500 
 253   0.0000       3.260168        88.7137 
 254   0.0000       3.274503        89.1038 
 255   0.0000       3.283225        89.3411 
 256   0.0000       3.294667        89.6524 
 257   0.0000       3.304429        89.9181 
 258   0.0000       3.328394        90.5702 
 259   0.0000       3.362828        91.5072 
 260   0.0000       3.376396        91.8764 
 261   0.0000       3.379189        91.9524 
 262   0.0000       3.382430        92.0406 
 263   0.0000       3.399124        92.4949 
 264   0.0000       3.413778        92.8936 
 265   0.0000       3.444459        93.7285 
 266   0.0000       3.461779        94.1998 
 267   0.0000       3.472026        94.4786 
 268   0.0000       3.522727        95.8583 
 269   0.0000       3.551671        96.6459 
 270   0.0000       3.557031        96.7917 
 271   0.0000       3.614916        98.3669 
 272   0.0000       3.637450        98.9800 
 273   0.0000       3.639470        99.0350 
 274   0.0000       3.642229        99.1101 
 275   0.0000       3.683985       100.2463 
 276   0.0000       3.698570       100.6432 
 277   0.0000       3.711411       100.9926 
 278   0.0000       3.721081       101.2558 
 279   0.0000       3.737455       101.7013 
 280   0.0000       3.746114       101.9369 
 281   0.0000       3.752517       102.1112 
 282   0.0000       3.776654       102.7680 
 283   0.0000       3.788052       103.0781 
 284   0.0000       3.795405       103.2782 
 285   0.0000       3.848256       104.7164 
 286   0.0000       3.881740       105.6275 
 287   0.0000       3.890954       105.8782 
 288   0.0000       3.906758       106.3083 
 289   0.0000       3.958149       107.7067 
 290   0.0000       3.965487       107.9064 
 291   0.0000       3.986493       108.4780 
 292   0.0000       3.997637       108.7812 
 293   0.0000       4.018145       109.3393 
 294   0.0000       4.030105       109.6647 
 295   0.0000       4.042953       110.0144 
 296   0.0000       4.071864       110.8010 
 297   0.0000       4.078214       110.9738 
 298   0.0000       4.081497       111.0632 
 299   0.0000       4.107660       111.7751 
 300   0.0000       4.123571       112.2081 
 301   0.0000       4.157768       113.1386 
 302   0.0000       4.179794       113.7380 
 303   0.0000       4.190999       114.0429 
 304   0.0000       4.204850       114.4198 
 305   0.0000       4.215208       114.7016 
 306   0.0000       4.236769       115.2883 
 307   0.0000       4.298251       116.9614 
 308   0.0000       4.332472       117.8926 
 309   0.0000       4.371120       118.9442 
 310   0.0000       4.372204       118.9737 
 311   0.0000       4.401330       119.7663 
 312   0.0000       4.425793       120.4319 
 313   0.0000       4.451909       121.1426 
 314   0.0000       4.483189       121.9938 
 315   0.0000       4.511449       122.7628 
 316   0.0000       4.540298       123.5478 
 317   0.0000       4.558587       124.0455 
 318   0.0000       4.572881       124.4344 
 319   0.0000       4.586814       124.8136 
 320   0.0000       4.608180       125.3950 
 321   0.0000       4.623493       125.8116 
 322   0.0000       4.675518       127.2273 
 323   0.0000       4.720471       128.4505 
 324   0.0000       4.789949       130.3411 
 325   0.0000       4.817348       131.0867 
 326   0.0000       4.844229       131.8182 
 327   0.0000       4.866949       132.4364 
 328   0.0000       4.916583       133.7870 
 329   0.0000       4.956731       134.8795 
 330   0.0000       5.001173       136.0888 
 331   0.0000       5.068400       137.9182 
 332   0.0000       5.079579       138.2224 
 333   0.0000       5.152246       140.1997 
 334   0.0000       5.153185       140.2253 
 335   0.0000       5.161880       140.4619 
 336   0.0000       5.170830       140.7054 
 337   0.0000       5.227583       142.2498 
 338   0.0000       5.304815       144.3514 
 339   0.0000       5.435529       147.9083 
 340   0.0000       5.469576       148.8347 
 341   0.0000       5.484091       149.2297 
 342   0.0000       5.515377       150.0811 
 343   0.0000       5.586730       152.0227 
 344   0.0000       5.637978       153.4172 
 345   0.0000       5.669711       154.2807 
 346   0.0000       5.782997       157.3633 
 347   0.0000       5.991455       163.0358 
 348   0.0000       6.069082       165.1481 
 349   0.0000       6.170117       167.8974 
 350   0.0000       6.300159       171.4360 
 351   0.0000       6.381104       173.6387 
 352   0.0000       6.504694       177.0017 
 353   0.0000       6.725224       183.0026 
 354   0.0000       6.855175       186.5388 
 355   0.0000       7.021013       191.0515 
 356   0.0000       7.055026       191.9770 
 357   0.0000       7.679177       208.9610 
 358   0.0000      22.539190       613.3225 
 359   0.0000      23.036081       626.8436 
 360   0.0000      23.254588       632.7895 
 361   0.0000      23.287433       633.6833 
 362   0.0000      23.377477       636.1335 
 363   0.0000      23.580036       641.6454 
 364   0.0000      24.077354       655.1781 
 365   0.0000      44.135335      1200.9835 

                 SPIN DOWN ORBITALS
  NO   OCC          E(Eh)            E(eV) 
   0   1.0000    -483.738092    -13163.1827 
   1   1.0000     -63.042216     -1715.4659 
   2   1.0000     -56.728613     -1543.6641 
   3   1.0000     -56.726241     -1543.5995 
   4   1.0000     -56.726224     -1543.5990 
   5   1.0000     -19.513711      -530.9951 
   6   1.0000     -10.650068      -289.8031 
   7   1.0000     -10.610315      -288.7214 
   8   1.0000     -10.591582      -288.2116 
   9   1.0000     -10.582523      -287.9651 
  10   1.0000     -10.576284      -287.7953 
  11   1.0000     -10.573198      -287.7113 
  12   1.0000     -10.569011      -287.5974 
  13   1.0000      -9.124030      -248.2775 
  14   1.0000      -6.909279      -188.0110 
  15   1.0000      -6.901247      -187.7925 
  16   1.0000      -6.896711      -187.6691 
  17   1.0000      -2.990581       -81.3779 
  18   1.0000      -2.989001       -81.3349 
  19   1.0000      -2.985342       -81.2353 
  20   1.0000      -2.978946       -81.0613 
  21   1.0000      -2.978557       -81.0507 
  22   1.0000      -1.357483       -36.9390 
  23   1.0000      -1.227648       -33.4060 
  24   1.0000      -1.152105       -31.3504 
  25   1.0000      -1.097544       -29.8657 
  26   1.0000      -1.073472       -29.2107 
  27   1.0000      -0.960611       -26.1396 
  28   1.0000      -0.949945       -25.8493 
  29   1.0000      -0.890017       -24.2186 
  30   1.0000      -0.824638       -22.4395 
  31   1.0000      -0.797636       -21.7048 
  32   1.0000      -0.769314       -20.9341 
  33   1.0000      -0.750379       -20.4189 
  34   1.0000      -0.740194       -20.1417 
  35   1.0000      -0.720074       -19.5942 
  36   1.0000      -0.715109       -19.4591 
  37   1.0000      -0.669330       -18.2134 
  38   1.0000      -0.667075       -18.1520 
  39   1.0000      -0.662255       -18.0209 
  40   1.0000      -0.595857       -16.2141 
  41   1.0000      -0.587414       -15.9843 
  42   1.0000      -0.566303       -15.4099 
  43   1.0000      -0.541203       -14.7269 
  44   0.0000      -0.339678        -9.2431 
  45   0.0000      -0.167076        -4.5464 
  46   0.0000      -0.136181        -3.7057 
  47   0.0000      -0.115399        -3.1402 
  48   0.0000      -0.064641        -1.7590 
  49   0.0000      -0.029114        -0.7922 
  50   0.0000      -0.021358        -0.5812 
  51   0.0000      -0.002741        -0.0746 
  52   0.0000       0.007245         0.1971 
  53   0.0000       0.014899         0.4054 
  54   0.0000       0.033921         0.9230 
  55   0.0000       0.034031         0.9260 
  56   0.0000       0.056980         1.5505 
  57   0.0000       0.064227         1.7477 
  58   0.0000       0.082325         2.2402 
  59   0.0000       0.086375         2.3504 
  60   0.0000       0.101347         2.7578 
  61   0.0000       0.113160         3.0792 
  62   0.0000       0.124254         3.3811 
  63   0.0000       0.127551         3.4708 
  64   0.0000       0.127837         3.4786 
  65   0.0000       0.136545         3.7156 
  66   0.0000       0.145005         3.9458 
  67   0.0000       0.170096         4.6286 
  68   0.0000       0.170750         4.6463 
  69   0.0000       0.179089         4.8733 
  70   0.0000       0.183681         4.9982 
  71   0.0000       0.195559         5.3214 
  72   0.0000       0.196823         5.3558 
  73   0.0000       0.214402         5.8342 
  74   0.0000       0.229613         6.2481 
  75   0.0000       0.234021         6.3680 
  76   0.0000       0.241940         6.5835 
  77   0.0000       0.256407         6.9772 
  78   0.0000       0.258053         7.0220 
  79   0.0000       0.265987         7.2379 
  80   0.0000       0.294070         8.0021 
  81   0.0000       0.294639         8.0175 
  82   0.0000       0.307019         8.3544 
  83   0.0000       0.316051         8.6002 
  84   0.0000       0.322730         8.7819 
  85   0.0000       0.333312         9.0699 
  86   0.0000       0.342689         9.3250 
  87   0.0000       0.362578         9.8663 
  88   0.0000       0.381787        10.3890 
  89   0.0000       0.401436        10.9236 
  90   0.0000       0.406570        11.0633 
  91   0.0000       0.423659        11.5284 
  92   0.0000       0.432832        11.7780 
  93   0.0000       0.436177        11.8690 
  94   0.0000       0.438448        11.9308 
  95   0.0000       0.450734        12.2651 
  96   0.0000       0.452749        12.3199 
  97   0.0000       0.466299        12.6886 
  98   0.0000       0.522136        14.2081 
  99   0.0000       0.527658        14.3583 
 100   0.0000       0.549051        14.9404 
 101   0.0000       0.552479        15.0337 
 102   0.0000       0.555207        15.1079 
 103   0.0000       0.572371        15.5750 
 104   0.0000       0.576673        15.6921 
 105   0.0000       0.608009        16.5448 
 106   0.0000       0.625097        17.0097 
 107   0.0000       0.645220        17.5573 
 108   0.0000       0.651499        17.7282 
 109   0.0000       0.658361        17.9149 
 110   0.0000       0.668638        18.1946 
 111   0.0000       0.689667        18.7668 
 112   0.0000       0.706817        19.2335 
 113   0.0000       0.708570        19.2812 
 114   0.0000       0.723049        19.6752 
 115   0.0000       0.741865        20.1872 
 116   0.0000       0.750008        20.4087 
 117   0.0000       0.771381        20.9904 
 118   0.0000       0.810258        22.0482 
 119   0.0000       0.824633        22.4394 
 120   0.0000       0.837231        22.7822 
 121   0.0000       0.853846        23.2343 
 122   0.0000       0.863795        23.5051 
 123   0.0000       0.870932        23.6993 
 124   0.0000       0.881225        23.9794 
 125   0.0000       0.898355        24.4455 
 126   0.0000       0.908081        24.7101 
 127   0.0000       0.936148        25.4739 
 128   0.0000       0.940643        25.5962 
 129   0.0000       0.965641        26.2764 
 130   0.0000       1.012927        27.5631 
 131   0.0000       1.033818        28.1316 
 132   0.0000       1.038425        28.2570 
 133   0.0000       1.045569        28.4514 
 134   0.0000       1.064162        28.9573 
 135   0.0000       1.071598        29.1597 
 136   0.0000       1.075288        29.2601 
 137   0.0000       1.088436        29.6179 
 138   0.0000       1.134197        30.8631 
 139   0.0000       1.144323        31.1386 
 140   0.0000       1.145972        31.1835 
 141   0.0000       1.166729        31.7483 
 142   0.0000       1.173860        31.9424 
 143   0.0000       1.183677        32.2095 
 144   0.0000       1.201922        32.7059 
 145   0.0000       1.218147        33.1475 
 146   0.0000       1.238544        33.7025 
 147   0.0000       1.245801        33.9000 
 148   0.0000       1.253279        34.1035 
 149   0.0000       1.272075        34.6149 
 150   0.0000       1.299230        35.3538 
 151   0.0000       1.306898        35.5625 
 152   0.0000       1.311750        35.6945 
 153   0.0000       1.346836        36.6493 
 154   0.0000       1.350326        36.7442 
 155   0.0000       1.355110        36.8744 
 156   0.0000       1.355813        36.8936 
 157   0.0000       1.376822        37.4652 
 158   0.0000       1.402614        38.1671 
 159   0.0000       1.424669        38.7672 
 160   0.0000       1.425625        38.7932 
 161   0.0000       1.428391        38.8685 
 162   0.0000       1.455263        39.5997 
 163   0.0000       1.455373        39.6027 
 164   0.0000       1.475424        40.1483 
 165   0.0000       1.481198        40.3055 
 166   0.0000       1.516286        41.2602 
 167   0.0000       1.519520        41.3482 
 168   0.0000       1.525777        41.5185 
 169   0.0000       1.533897        41.7394 
 170   0.0000       1.550460        42.1902 
 171   0.0000       1.555869        42.3373 
 172   0.0000       1.587707        43.2037 
 173   0.0000       1.619328        44.0642 
 174   0.0000       1.628925        44.3253 
 175   0.0000       1.632767        44.4298 
 176   0.0000       1.680181        45.7201 
 177   0.0000       1.682790        45.7910 
 178   0.0000       1.693431        46.0806 
 179   0.0000       1.714840        46.6632 
 180   0.0000       1.722836        46.8808 
 181   0.0000       1.747628        47.5554 
 182   0.0000       1.781536        48.4781 
 183   0.0000       1.803796        49.0838 
 184   0.0000       1.830331        49.8058 
 185   0.0000       1.863681        50.7133 
 186   0.0000       1.874824        51.0165 
 187   0.0000       1.901540        51.7435 
 188   0.0000       1.926564        52.4245 
 189   0.0000       1.962850        53.4119 
 190   0.0000       1.975017        53.7429 
 191   0.0000       1.987747        54.0893 
 192   0.0000       2.038700        55.4758 
 193   0.0000       2.047709        55.7210 
 194   0.0000       2.055488        55.9327 
 195   0.0000       2.096641        57.0525 
 196   0.0000       2.124662        57.8150 
 197   0.0000       2.170257        59.0557 
 198   0.0000       2.207467        60.0682 
 199   0.0000       2.229800        60.6759 
 200   0.0000       2.246354        61.1264 
 201   0.0000       2.258747        61.4636 
 202   0.0000       2.331253        63.4366 
 203   0.0000       2.379314        64.7444 
 204   0.0000       2.417717        65.7894 
 205   0.0000       2.440664        66.4139 
 206   0.0000       2.479548        67.4719 
 207   0.0000       2.504021        68.1379 
 208   0.0000       2.527591        68.7793 
 209   0.0000       2.559044        69.6351 
 210   0.0000       2.576157        70.1008 
 211   0.0000       2.585552        70.3564 
 212   0.0000       2.591459        70.5172 
 213   0.0000       2.592721        70.5515 
 214   0.0000       2.624254        71.4096 
 215   0.0000       2.636546        71.7441 
 216   0.0000       2.680425        72.9381 
 217   0.0000       2.685043        73.0637 
 218   0.0000       2.696566        73.3773 
 219   0.0000       2.697876        73.4129 
 220   0.0000       2.700566        73.4861 
 221   0.0000       2.708960        73.7145 
 222   0.0000       2.766986        75.2935 
 223   0.0000       2.773722        75.4768 
 224   0.0000       2.796979        76.1097 
 225   0.0000       2.812558        76.5336 
 226   0.0000       2.827882        76.9506 
 227   0.0000       2.828376        76.9640 
 228   0.0000       2.844991        77.4161 
 229   0.0000       2.884273        78.4851 
 230   0.0000       2.885731        78.5247 
 231   0.0000       2.897556        78.8465 
 232   0.0000       2.901110        78.9432 
 233   0.0000       2.904950        79.0477 
 234   0.0000       2.907158        79.1078 
 235   0.0000       2.966296        80.7170 
 236   0.0000       2.990148        81.3661 
 237   0.0000       3.008202        81.8573 
 238   0.0000       3.018507        82.1378 
 239   0.0000       3.026780        82.3629 
 240   0.0000       3.028704        82.4152 
 241   0.0000       3.041739        82.7699 
 242   0.0000       3.059852        83.2628 
 243   0.0000       3.074082        83.6500 
 244   0.0000       3.078601        83.7730 
 245   0.0000       3.090874        84.1070 
 246   0.0000       3.112049        84.6832 
 247   0.0000       3.143667        85.5435 
 248   0.0000       3.178052        86.4792 
 249   0.0000       3.179327        86.5139 
 250   0.0000       3.196355        86.9772 
 251   0.0000       3.225189        87.7618 
 252   0.0000       3.227921        87.8362 
 253   0.0000       3.264384        88.8284 
 254   0.0000       3.277468        89.1844 
 255   0.0000       3.293254        89.6140 
 256   0.0000       3.299990        89.7973 
 257   0.0000       3.316357        90.2427 
 258   0.0000       3.332155        90.6725 
 259   0.0000       3.367371        91.6308 
 260   0.0000       3.378924        91.9452 
 261   0.0000       3.382159        92.0332 
 262   0.0000       3.386976        92.1643 
 263   0.0000       3.404507        92.6413 
 264   0.0000       3.420376        93.0732 
 265   0.0000       3.447036        93.7986 
 266   0.0000       3.464095        94.2628 
 267   0.0000       3.481330        94.7318 
 268   0.0000       3.525680        95.9386 
 269   0.0000       3.555057        96.7380 
 270   0.0000       3.560488        96.8858 
 271   0.0000       3.620007        98.5054 
 272   0.0000       3.640959        99.0755 
 273   0.0000       3.646397        99.2235 
 274   0.0000       3.646491        99.2261 
 275   0.0000       3.691868       100.4608 
 276   0.0000       3.704563       100.8063 
 277   0.0000       3.716725       101.1372 
 278   0.0000       3.726534       101.4041 
 279   0.0000       3.740208       101.7762 
 280   0.0000       3.750943       102.0683 
 281   0.0000       3.752888       102.1213 
 282   0.0000       3.779641       102.8493 
 283   0.0000       3.793336       103.2219 
 284   0.0000       3.796185       103.2994 
 285   0.0000       3.852303       104.8265 
 286   0.0000       3.885324       105.7250 
 287   0.0000       3.905201       106.2659 
 288   0.0000       3.916524       106.5740 
 289   0.0000       3.962770       107.8325 
 290   0.0000       3.975706       108.1845 
 291   0.0000       3.992279       108.6354 
 292   0.0000       4.002813       108.9221 
 293   0.0000       4.029683       109.6532 
 294   0.0000       4.041719       109.9808 
 295   0.0000       4.046909       110.1220 
 296   0.0000       4.080760       111.0431 
 297   0.0000       4.085521       111.1727 
 298   0.0000       4.089826       111.2898 
 299   0.0000       4.111126       111.8694 
 300   0.0000       4.137788       112.5949 
 301   0.0000       4.165152       113.3396 
 302   0.0000       4.183600       113.8415 
 303   0.0000       4.197573       114.2218 
 304   0.0000       4.211503       114.6008 
 305   0.0000       4.218361       114.7874 
 306   0.0000       4.240295       115.3843 
 307   0.0000       4.302059       117.0650 
 308   0.0000       4.335416       117.9727 
 309   0.0000       4.373808       119.0174 
 310   0.0000       4.382536       119.2549 
 311   0.0000       4.404628       119.8560 
 312   0.0000       4.430934       120.5718 
 313   0.0000       4.454666       121.2176 
 314   0.0000       4.485836       122.0658 
 315   0.0000       4.512395       122.7885 
 316   0.0000       4.548124       123.7607 
 317   0.0000       4.573275       124.4452 
 318   0.0000       4.580824       124.6506 
 319   0.0000       4.590533       124.9148 
 320   0.0000       4.617382       125.6454 
 321   0.0000       4.635304       126.1330 
 322   0.0000       4.682978       127.4303 
 323   0.0000       4.725592       128.5899 
 324   0.0000       4.793674       130.4425 
 325   0.0000       4.821545       131.2009 
 326   0.0000       4.848966       131.9471 
 327   0.0000       4.870529       132.5338 
 328   0.0000       4.919338       133.8620 
 329   0.0000       4.960417       134.9798 
 330   0.0000       5.005265       136.2002 
 331   0.0000       5.074645       138.0881 
 332   0.0000       5.080261       138.2409 
 333   0.0000       5.161032       140.4388 
 334   0.0000       5.161800       140.4597 
 335   0.0000       5.168212       140.6342 
 336   0.0000       5.174127       140.7952 
 337   0.0000       5.230890       142.3398 
 338   0.0000       5.308741       144.4582 
 339   0.0000       5.445459       148.1785 
 340   0.0000       5.476804       149.0314 
 341   0.0000       5.494908       149.5241 
 342   0.0000       5.523531       150.3029 
 343   0.0000       5.593468       152.2060 
 344   0.0000       5.644069       153.5829 
 345   0.0000       5.680704       154.5798 
 346   0.0000       5.790104       157.5567 
 347   0.0000       5.995537       163.1469 
 348   0.0000       6.078101       165.3935 
 349   0.0000       6.174945       168.0288 
 350   0.0000       6.313526       171.7998 
 351   0.0000       6.385221       173.7507 
 352   0.0000       6.518043       177.3650 
 353   0.0000       6.736777       183.3170 
 354   0.0000       6.859143       186.6468 
 355   0.0000       7.027317       191.2230 
 356   0.0000       7.057596       192.0470 
 357   0.0000       7.682077       209.0399 
 358   0.0000      22.541319       613.3805 
 359   0.0000      23.038785       626.9172 
 360   0.0000      23.258249       632.8891 
 361   0.0000      23.289344       633.7353 
 362   0.0000      23.377431       636.1322 
 363   0.0000      23.579436       641.6291 
 364   0.0000      24.079263       655.2301 
 365   0.0000      44.137878      1201.0527 

                    ********************************
                    * MULLIKEN POPULATION ANALYSIS *
                    ********************************

--------------------------------------------
MULLIKEN ATOMIC CHARGES AND SPIN POPULATIONS
--------------------------------------------
   0 O :   -0.185032    0.116368
   1 C :    0.136229   -0.060137
   2 C :    0.099218    0.304584
   3 C :   -0.078699   -0.019406
   4 C :   -0.013291    0.067957
   5 C :   -0.011587    0.239885
   6 Br:    0.290720    0.278373
   7 C :   -0.016997    0.113882
   8 C :   -0.068957   -0.035647
   9 H :    0.119219   -0.000845
  10 H :    0.187585   -0.000564
  11 H :    0.183463   -0.001898
  12 H :    0.184218   -0.002300
  13 H :    0.173911   -0.000252
Sum of atomic charges         :    1.0000000
Sum of atomic spin populations:    1.0000000

-----------------------------------------------------
MULLIKEN REDUCED ORBITAL CHARGES AND SPIN POPULATIONS
-----------------------------------------------------
CHARGE
  0 O s       :     3.840731  s :     3.840731
      pz      :     1.188841  p :     4.308882
      px      :     1.619746
      py      :     1.500295
      dz2     :     0.002789  d :     0.033522
      dxz     :     0.005589
      dyz     :     0.007655
      dx2y2   :     0.008405
      dxy     :     0.009083
      f0      :     0.000160  f :     0.001896
      f+1     :     0.000076
      f-1     :     0.000097
      f+2     :     0.000025
      f-2     :     0.000494
      f+3     :     0.000495
      f-3     :     0.000551
  1 C s       :     3.238027  s :     3.238027
      pz      :     0.741680  p :     2.439693
      px      :     0.796559
      py      :     0.901454
      dz2     :     0.006064  d :     0.170468
      dxz     :     0.018423
      dyz     :     0.020731
      dx2y2   :     0.094591
      dxy     :     0.030659
      f0      :     0.002009  f :     0.015582
      f+1     :     0.000909
      f-1     :     0.000922
      f+2     :     0.000453
      f-2     :     0.001933
      f+3     :     0.003326
      f-3     :     0.006030
  2 C s       :     3.237543  s :     3.237543
      pz      :     0.775910  p :     2.537189
      px      :     0.849344
      py      :     0.911934
      dz2     :     0.005886  d :     0.116568
      dxz     :     0.016273
      dyz     :     0.023776
      dx2y2   :     0.034959
      dxy     :     0.035674
      f0      :     0.001568  f :     0.009482
      f+1     :     0.000713
      f-1     :     0.000587
      f+2     :     0.000430
      f-2     :     0.001006
      f+3     :     0.001736
      f-3     :     0.003443
  3 C s       :     3.197919  s :     3.197919
      pz      :     0.848764  p :     2.792492
      px      :     0.963762
      py      :     0.979966
      dz2     :     0.003193  d :     0.080971
      dxz     :     0.015197
      dyz     :     0.010307
      dx2y2   :     0.020733
      dxy     :     0.031542
      f0      :     0.001440  f :     0.007317
      f+1     :     0.000564
      f-1     :     0.000512
      f+2     :     0.000736
      f-2     :     0.000346
      f+3     :     0.001121
      f-3     :     0.002598
  4 C s       :     3.142479  s :     3.142479
      pz      :     0.882268  p :     2.777164
      px      :     0.943520
      py      :     0.951376
      dz2     :     0.004464  d :     0.086327
      dxz     :     0.016026
      dyz     :     0.010272
      dx2y2   :     0.017572
      dxy     :     0.037993
      f0      :     0.001466  f :     0.007322
      f+1     :     0.000594
      f-1     :     0.000558
      f+2     :     0.000595
      f-2     :     0.000473
      f+3     :     0.001221
      f-3     :     0.002415
  5 C s       :     3.299558  s :     3.299558
      pz      :     0.827801  p :     2.531934
      px      :     0.772928
      py      :     0.931205
      dz2     :     0.007217  d :     0.170727
      dxz     :     0.025758
      dyz     :     0.028880
      dx2y2   :     0.059343
      dxy     :     0.049528
      f0      :     0.001683  f :     0.009368
      f+1     :     0.000838
      f-1     :     0.000567
      f+2     :     0.000517
      f-2     :     0.001104
      f+3     :     0.001493
      f-3     :     0.003166
  6 Brs       :     7.920322  s :     7.920322
      pz      :     5.650526  p :    16.728146
      px      :     5.135960
      py      :     5.941660
      dz2     :     2.006806  d :    10.053269
      dxz     :     2.017639
      dyz     :     2.000450
      dx2y2   :     2.020926
      dxy     :     2.007449
      f0      :     0.000764  f :     0.007544
      f+1     :     0.001322
      f-1     :     0.000096
      f+2     :     0.001233
      f-2     :     0.000063
      f+3     :     0.002723
      f-3     :     0.001344
  7 C s       :     3.154089  s :     3.154089
      pz      :     0.860114  p :     2.768143
      px      :     0.974706
      py      :     0.933323
      dz2     :     0.004230  d :     0.087421
      dxz     :     0.016579
      dyz     :     0.011269
      dx2y2   :     0.017233
      dxy     :     0.038110
      f0      :     0.001445  f :     0.007345
      f+1     :     0.000582
      f-1     :     0.000560
      f+2     :     0.000790
      f-2     :     0.000353
      f+3     :     0.001171
      f-3     :     0.002445
  8 C s       :     3.173845  s :     3.173845
      pz      :     0.887651  p :     2.808630
      px      :     0.932713
      py      :     0.988266
      dz2     :     0.003913  d :     0.079081
      dxz     :     0.014649
      dyz     :     0.009363
      dx2y2   :     0.021839
      dxy     :     0.029317
      f0      :     0.001467  f :     0.007401
      f+1     :     0.000586
      f-1     :     0.000505
      f+2     :     0.000632
      f-2     :     0.000427
      f+3     :     0.001181
      f-3     :     0.002603
  9 H s       :     0.846010  s :     0.846010
      pz      :     0.005462  p :     0.032246
      px      :     0.008239
      py      :     0.018546
      dz2     :     0.000219  d :     0.002525
      dxz     :     0.000060
      dyz     :     0.000557
      dx2y2   :     0.000797
      dxy     :     0.000892
 10 H s       :     0.775428  s :     0.775428
      pz      :     0.008157  p :     0.034556
      px      :     0.010715
      py      :     0.015684
      dz2     :     0.000149  d :     0.002431
      dxz     :     0.000255
      dyz     :     0.000429
      dx2y2   :     0.000975
      dxy     :     0.000622
 11 H s       :     0.779280  s :     0.779280
      pz      :     0.009007  p :     0.034788
      px      :     0.009375
      py      :     0.016406
      dz2     :     0.000161  d :     0.002468
      dxz     :     0.000167
      dyz     :     0.000545
      dx2y2   :     0.000896
      dxy     :     0.000699
 12 H s       :     0.778552  s :     0.778552
      pz      :     0.008902  p :     0.034774
      px      :     0.010334
      py      :     0.015538
      dz2     :     0.000161  d :     0.002456
      dxz     :     0.000233
      dyz     :     0.000459
      dx2y2   :     0.000991
      dxy     :     0.000612
 13 H s       :     0.788856  s :     0.788856
      pz      :     0.009053  p :     0.034811
      px      :     0.009034
      py      :     0.016724
      dz2     :     0.000162  d :     0.002423
      dxz     :     0.000156
      dyz     :     0.000555
      dx2y2   :     0.000871
      dxy     :     0.000679

SPIN
  0 O s       :     0.001616  s :     0.001616
      pz      :     0.112269  p :     0.115276
      px      :     0.000967
      py      :     0.002040
      dz2     :     0.000026  d :    -0.000449
      dxz     :    -0.000271
      dyz     :    -0.000198
      dx2y2   :    -0.000002
      dxy     :    -0.000005
      f0      :    -0.000038  f :    -0.000075
      f+1     :    -0.000010
      f-1     :    -0.000015
      f+2     :     0.000002
      f-2     :    -0.000013
      f+3     :    -0.000002
      f-3     :     0.000001
  1 C s       :    -0.000664  s :    -0.000664
      pz      :    -0.058788  p :    -0.068810
      px      :    -0.008322
      py      :    -0.001700
      dz2     :     0.000130  d :     0.008657
      dxz     :     0.008123
      dyz     :     0.001553
      dx2y2   :    -0.000939
      dxy     :    -0.000210
      f0      :     0.000117  f :     0.000680
      f+1     :     0.000023
      f-1     :     0.000027
      f+2     :     0.000243
      f-2     :     0.000224
      f+3     :     0.000020
      f-3     :     0.000027
  2 C s       :    -0.006417  s :    -0.006417
      pz      :     0.295340  p :     0.314778
      px      :     0.011453
[...]
      dxy     :    -0.000005


                     *******************************
                     * LOEWDIN POPULATION ANALYSIS *
                     *******************************

-------------------------------------------
LOEWDIN ATOMIC CHARGES AND SPIN POPULATIONS
-------------------------------------------
   0 O :    0.237840    0.099791
   1 C :   -0.141854   -0.014462
   2 C :    0.001977    0.229680
   3 C :    0.097284    0.013213
   4 C :    0.043081    0.072899
   5 C :   -0.252985    0.203274
   6 Br:    0.661939    0.284648
   7 C :    0.052711    0.107442
   8 C :    0.076398    0.004138
   9 H :    0.024773   -0.003369
  10 H :    0.053882   -0.001618
  11 H :    0.047305    0.002332
  12 H :    0.047967    0.004368
  13 H :    0.049682   -0.002337

----------------------------------------------------
LOEWDIN REDUCED ORBITAL CHARGES AND SPIN POPULATIONS
----------------------------------------------------
CHARGE
  0 O s       :     3.406767  s :     3.406767
      pz      :     1.131359  p :     4.277618
      px      :     1.584035
      py      :     1.562224
      dz2     :     0.007851  d :     0.071548
      dxz     :     0.006364
      dyz     :     0.008901
      dx2y2   :     0.023477
      dxy     :     0.024955
      f0      :     0.000405  f :     0.006227
      f+1     :     0.000456
      f-1     :     0.000597
      f+2     :     0.000034
      f-2     :     0.000784
      f+3     :     0.001840
      f-3     :     0.002111
  1 C s       :     2.769370  s :     2.769370
      pz      :     0.693747  p :     2.644418
      px      :     0.960903
      py      :     0.989768
      dz2     :     0.041512  d :     0.632452
      dxz     :     0.059333
      dyz     :     0.046073
      dx2y2   :     0.306113
      dxy     :     0.179421
      f0      :     0.005919  f :     0.095614
      f+1     :     0.006099
      f-1     :     0.006905
      f+2     :     0.003247
      f-2     :     0.012510
      f+3     :     0.019939
      f-3     :     0.040995
  2 C s       :     2.716592  s :     2.716592
      pz      :     0.687421  p :     2.730999
      px      :     1.005083
      py      :     1.038494
      dz2     :     0.035308  d :     0.494787
      dxz     :     0.048716
      dyz     :     0.075892
      dx2y2   :     0.182175
      dxy     :     0.152696
      f0      :     0.003823  f :     0.055645
      f+1     :     0.003999
      f-1     :     0.004076
      f+2     :     0.003690
      f-2     :     0.007523
      f+3     :     0.009636
      f-3     :     0.022899
  3 C s       :     2.714718  s :     2.714718
      pz      :     0.762955  p :     2.771936
      px      :     1.009449
      py      :     0.999531
      dz2     :     0.025437  d :     0.372865
      dxz     :     0.045505
      dyz     :     0.028643
      dx2y2   :     0.115771
      dxy     :     0.157508
      f0      :     0.002656  f :     0.043197
      f+1     :     0.003790
      f-1     :     0.003354
      f+2     :     0.005384
      f-2     :     0.002398
      f+3     :     0.008823
      f-3     :     0.016791
  4 C s       :     2.723424  s :     2.723424
      pz      :     0.784439  p :     2.809193
      px      :     1.031324
      py      :     0.993430
      dz2     :     0.026655  d :     0.380976
      dxz     :     0.050800
      dyz     :     0.026450
      dx2y2   :     0.120990
      dxy     :     0.156080
      f0      :     0.002730  f :     0.043326
      f+1     :     0.004003
      f-1     :     0.003503
      f+2     :     0.004605
      f-2     :     0.003452
      f+3     :     0.009006
      f-3     :     0.016027
  5 C s       :     2.787527  s :     2.787527
      pz      :     0.761149  p :     2.848494
      px      :     0.983394
      py      :     1.103951
      dz2     :     0.037862  d :     0.561970
      dxz     :     0.065913
      dyz     :     0.086550
      dx2y2   :     0.211631
      dxy     :     0.160014
      f0      :     0.003619  f :     0.054995
      f+1     :     0.004053
      f-1     :     0.004231
      f+2     :     0.003423
      f-2     :     0.008066
      f+3     :     0.009620
      f-3     :     0.021983
  6 Brs       :     7.586308  s :     7.586308
      pz      :     5.598094  p :    16.625953
      px      :     5.155040
      py      :     5.872819
      dz2     :     2.015971  d :    10.111065
      dxz     :     2.025691
      dyz     :     2.000575
      dx2y2   :     2.046781
      dxy     :     2.022048
      f0      :     0.001194  f :     0.014735
      f+1     :     0.002775
      f-1     :     0.000243
      f+2     :     0.001824
      f-2     :     0.000060
      f+3     :     0.005382
      f-3     :     0.003258
  7 C s       :     2.724435  s :     2.724435
      pz      :     0.767319  p :     2.795711
      px      :     1.029654
      py      :     0.998737
      dz2     :     0.026682  d :     0.383582
      dxz     :     0.049421
      dyz     :     0.031387
      dx2y2   :     0.115239
      dxy     :     0.160854
      f0      :     0.002718  f :     0.043561
      f+1     :     0.003822
      f-1     :     0.003641
      f+2     :     0.005751
      f-2     :     0.002621
      f+3     :     0.008959
      f-3     :     0.016047
  8 C s       :     2.713533  s :     2.713533
      pz      :     0.789457  p :     2.794159
      px      :     1.007917
      py      :     0.996785
      dz2     :     0.025631  d :     0.372762
      dxz     :     0.047701
      dyz     :     0.024792
      dx2y2   :     0.127492
      dxy     :     0.147146
      f0      :     0.002626  f :     0.043148
      f+1     :     0.003892
      f-1     :     0.003313
      f+2     :     0.004584
      f-2     :     0.003141
      f+3     :     0.008685
      f-3     :     0.016906
  9 H s       :     0.817262  s :     0.817262
      pz      :     0.022933  p :     0.131388
      px      :     0.032459
      py      :     0.075996
      dz2     :     0.002952  d :     0.026577
      dxz     :     0.000579
      dyz     :     0.005484
      dx2y2   :     0.008724
      dxy     :     0.008839
 10 H s       :     0.771277  s :     0.771277
      pz      :     0.032184  p :     0.145555
      px      :     0.050513
      py      :     0.062859
      dz2     :     0.002889  d :     0.029286
      dxz     :     0.002659
      dyz     :     0.005038
      dx2y2   :     0.009442
      dxy     :     0.009258
 11 H s       :     0.779405  s :     0.779405
      pz      :     0.034818  p :     0.143827
      px      :     0.040527
      py      :     0.068482
      dz2     :     0.002889  d :     0.029463
      dxz     :     0.001787
      dyz     :     0.006266
      dx2y2   :     0.009441
      dxy     :     0.009080
 12 H s       :     0.779005  s :     0.779005
      pz      :     0.034127  p :     0.143615
      px      :     0.045960
      py      :     0.063528
      dz2     :     0.002900  d :     0.029413
      dxz     :     0.002616
      dyz     :     0.005297
      dx2y2   :     0.009459
      dxy     :     0.009141
 13 H s       :     0.777563  s :     0.777563
      pz      :     0.034840  p :     0.143643
      px      :     0.040847
      py      :     0.067955
      dz2     :     0.002853  d :     0.029112
      dxz     :     0.001672
      dyz     :     0.006265
      dx2y2   :     0.009329
      dxy     :     0.008993

SPIN
  0 O s       :     0.000978  s :     0.000978
      pz      :     0.099108  p :     0.101019
      px      :     0.000496
      py      :     0.001415
      dz2     :     0.000007  d :    -0.001982
      dxz     :    -0.000702
      dyz     :    -0.000953
      dx2y2   :    -0.000182
      dxy     :    -0.000153
      f0      :    -0.000073  f :    -0.000224
      f+1     :    -0.000008
      f-1     :    -0.000015
      f+2     :    -0.000002
      f-2     :    -0.000091
      f+3     :    -0.000014
      f-3     :    -0.000021
  1 C s       :    -0.002037  s :    -0.002037
      pz      :    -0.042073  p :    -0.048532
      px      :    -0.004767
      py      :    -0.001691
      dz2     :     0.000159  d :     0.031522
      dxz     :     0.025939
      dyz     :     0.004767
      dx2y2   :     0.000267
      dxy     :     0.000390
      f0      :     0.000685  f :     0.004585
      f+1     :     0.000042
      f-1     :     0.000040
      f+2     :     0.001686
      f-2     :     0.001840
      f+3     :     0.000130
      f-3     :     0.000162
  2 C s       :     0.004685  s :     0.004685
      pz      :     0.228251  p :     0.238550
      px      :     0.005642
      py      :     0.004657
      dz2     :    -0.000689  d :    -0.011869
      dxz     :    -0.006514
      dyz     :    -0.003332
      dx2y2   :    -0.000660
      dxy     :    -0.000674
      f0      :    -0.000645  f :    -0.001685
      f+1     :    -0.000154
      f-1     :    -0.000151
      f+2     :    -0.000147
      f-2     :    -0.000390
      f+3     :    -0.000199
      f-3     :     0.000001
  3 C s       :    -0.001023  s :    -0.001023
      pz      :    -0.010996  p :    -0.015528
      px      :    -0.001600
      py      :    -0.002932
      dz2     :     0.000078  d :     0.026185
      dxz     :     0.013236
      dyz     :     0.011699
      dx2y2   :     0.000567
      dxy     :     0.000605
      f0      :     0.000364  f :     0.003579
      f+1     :     0.000007
      f-1     :     0.000029
      f+2     :     0.001876
      f-2     :     0.001099
      f+3     :     0.000093
      f-3     :     0.000111
  4 C s       :     0.000475  s :     0.000475
      pz      :     0.058003  p :     0.057395
      px      :     0.000383
      py      :    -0.000991
      dz2     :    -0.000209  d :     0.012910
      dxz     :     0.005252
      dyz     :     0.008024
      dx2y2   :    -0.000270
      dxy     :     0.000113
      f0      :     0.000086  f :     0.002119
      f+1     :    -0.000042
      f-1     :    -0.000022
      f+2     :     0.000657
      f-2     :     0.001410
      f+3     :     0.000021
      f-3     :     0.000008
  5 C s       :     0.003113  s :     0.003113
      pz      :     0.180794  p :     0.185710
      px      :     0.003358
      py      :     0.001558
      dz2     :    -0.000373  d :     0.013108
      dxz     :     0.006733
      dyz     :     0.006333
      dx2y2   :     0.000330
      dxy     :     0.000085
      f0      :    -0.000146  f :     0.001344
      f+1     :    -0.000125
      f-1     :    -0.000104
      f+2     :     0.001199
      f-2     :     0.000449
      f+3     :    -0.000047
      f-3     :     0.000118
  6 Brs       :     0.001396  s :     0.001396
      pz      :     0.279228  p :     0.274492
      px      :    -0.005441
      py      :     0.000706
      dz2     :     0.000948  d :     0.007745
      dxz     :     0.006541
      dyz     :     0.000044
      dx2y2   :     0.000300
      dxy     :    -0.000087
      f0      :     0.000460  f :     0.001015
      f+1     :    -0.000148
      f-1     :     0.000023
      f+2     :     0.000630
      f-2     :     0.000015
      f+3     :     0.000041
      f-3     :    -0.000005
  7 C s       :     0.001103  s :     0.001103
      pz      :     0.092281  p :     0.093084
      px      :     0.001506
      py      :    -0.000703
      dz2     :    -0.000333  d :     0.011393
      dxz     :     0.002049
      dyz     :     0.009978
      dx2y2   :    -0.000172
      dxy     :    -0.000129
      f0      :     0.000007  f :     0.001862
      f+1     :    -0.000067
      f-1     :    -0.000042
      f+2     :     0.001059
      f-2     :     0.000893
      f+3     :    -0.000017
      f-3     :     0.000030
  8 C s       :    -0.001367  s :    -0.001367
      pz      :    -0.024889  p :    -0.030215
      px      :    -0.002562
      py      :    -0.002764
      dz2     :     0.000129  d :     0.031679
      dxz     :     0.021283
      dyz     :     0.008904
      dx2y2   :     0.000611
      dxy     :     0.000751
      f0      :     0.000426  f :     0.004042
      f+1     :     0.000020
      f-1     :     0.000036
      f+2     :     0.001498
      f-2     :     0.001828
      f+3     :     0.000113
      f-3     :     0.000120
  9 H s       :     0.000091  s :     0.000091
      pz      :    -0.002197  p :    -0.002830
      px      :    -0.000248
      py      :    -0.000384
      dz2     :    -0.000005  d :    -0.000630
      dxz     :    -0.000052
      dyz     :    -0.000466
      dx2y2   :    -0.000052
      dxy     :    -0.000055
 10 H s       :    -0.000019  s :    -0.000019
      pz      :    -0.000930  p :    -0.001359
      px      :    -0.000232
      py      :    -0.000196
      dz2     :    -0.000002  d :    -0.000240
      dxz     :    -0.000132
      dyz     :    -0.000019
      dx2y2   :    -0.000067
      dxy     :    -0.000021
 11 H s       :    -0.001757  s :    -0.001757
      pz      :     0.003063  p :     0.003270
      px      :     0.000001
      py      :     0.000206
      dz2     :     0.000003  d :     0.000819
      dxz     :     0.000082
      dyz     :     0.000700
      dx2y2   :     0.000012
      dxy     :     0.000021
 12 H s       :    -0.002462  s :    -0.002462
      pz      :     0.005036  p :     0.005491
      px      :     0.000139
      py      :     0.000315
      dz2     :     0.000005  d :     0.001340
      dxz     :     0.000298
      dyz     :     0.000954
      dx2y2   :     0.000023
      dxy     :     0.000060
 13 H s       :     0.000290  s :     0.000290
      pz      :    -0.001647  p :    -0.002164
      px      :    -0.000269
      py      :    -0.000249
      dz2     :    -0.000002  d :    -0.000463
      dxz     :    -0.000140
      dyz     :    -0.000211
      dx2y2   :    -0.000060
      dxy     :    -0.000049


                      *****************************
                      * MAYER POPULATION ANALYSIS *
                      *****************************

  NA   - Mulliken gross atomic population
  ZA   - Total nuclear charge
  QA   - Mulliken gross atomic charge
  VA   - Mayer's total valence
  BVA  - Mayer's bonded valence
  FA   - Mayer's free valence

  ATOM       NA         ZA         QA         VA         BVA        FA
  0 O      8.1850     8.0000    -0.1850     2.2241     2.2115     0.0127
  1 C      5.8638     6.0000     0.1362     4.0478     4.0443     0.0035
  2 C      5.9008     6.0000     0.0992     3.5390     3.4501     0.0889
  3 C      6.0787     6.0000    -0.0787     3.9809     3.9791     0.0018
  4 C      6.0133     6.0000    -0.0133     3.8266     3.8202     0.0064
  5 C      6.0116     6.0000    -0.0116     4.1005     4.0459     0.0546
  6 Br    34.7093    35.0000     0.2907     1.6873     1.5957     0.0916
  7 C      6.0170     6.0000    -0.0170     3.8506     3.8358     0.0147
  8 C      6.0690     6.0000    -0.0690     3.9517     3.9487     0.0030
  9 H      0.8808     1.0000     0.1192     0.9964     0.9964    -0.0000
 10 H      0.8124     1.0000     0.1876     1.0030     1.0030    -0.0000
 11 H      0.8165     1.0000     0.1835     0.9828     0.9828     0.0000
 12 H      0.8158     1.0000     0.1842     0.9826     0.9826     0.0000
 13 H      0.8261     1.0000     0.1739     0.9931     0.9931     0.0000

  Mayer bond orders larger than 0.100000
B(  0-O ,  1-C ) :   2.1148 B(  1-C ,  2-C ) :   0.8752 B(  1-C ,  9-H ) :   1.0287 
B(  2-C ,  3-C ) :   1.2434 B(  2-C ,  8-C ) :   1.2761 B(  3-C ,  4-C ) :   1.5594 
B(  3-C , 10-H ) :   0.9231 B(  4-C ,  5-C ) :   1.2120 B(  4-C , 11-H ) :   0.9402 
B(  5-C ,  6-Br) :   1.4693 B(  5-C ,  7-C ) :   1.2161 B(  7-C ,  8-C ) :   1.5483 
B(  7-C , 12-H ) :   0.9382 B(  8-C , 13-H ) :   0.9282 


------------------
HIRSHFELD ANALYSIS
------------------

Total integrated alpha density =     45.000030158
Total integrated beta density  =     44.000027820

  ATOM     CHARGE      SPIN    
   0 O   -0.154871    0.101234
   1 C    0.177934   -0.017494
   2 C    0.091854    0.234937
   3 C    0.039850    0.010742
   4 C    0.028187    0.072301
   5 C    0.113833    0.204533
   6 Br   0.246468    0.285529
   7 C    0.036660    0.107097
   8 C    0.028707    0.000323
   9 H    0.063614   -0.002192
  10 H    0.082644   -0.000960
  11 H    0.082022    0.001741
  12 H    0.083369    0.003539
  13 H    0.079670   -0.001328

  TOTAL   0.999942    1.000002

-------
TIMINGS
-------

Total SCF time: 0 days 0 hours 0 min 43 sec 

Total time                  ....      43.229 sec
Sum of individual times     ....      42.433 sec  ( 98.2%)

Fock matrix formation       ....      39.104 sec  ( 90.5%)
  Split-RI-J                ....       2.119 sec  (  5.4% of F)
  Chain of spheres X        ....      27.306 sec  ( 69.8% of F)
  XC integration            ....       9.320 sec  ( 23.8% of F)
    Basis function eval.    ....       0.613 sec  (  6.6% of XC)
    Density eval.           ....       3.016 sec  ( 32.4% of XC)
    XC-Functional eval.     ....       0.335 sec  (  3.6% of XC)
    XC-Potential eval.      ....       4.749 sec  ( 51.0% of XC)
Diagonalization             ....       1.126 sec  (  2.6%)
Density matrix formation    ....       0.053 sec  (  0.1%)
Population analysis         ....       0.670 sec  (  1.5%)
Initial guess               ....       0.123 sec  (  0.3%)
Orbital Transformation      ....       0.000 sec  (  0.0%)
Orbital Orthonormalization  ....       0.000 sec  (  0.0%)
DIIS solution               ....       0.571 sec  (  1.3%)
Grid generation             ....       0.787 sec  (  1.8%)

Maximum memory used throughout the entire SCF-calculation: 88.5 MB

-------------------------   --------------------
FINAL SINGLE POINT ENERGY     -2918.649885862925
-------------------------   --------------------


                            ***************************************
                            *     ORCA property calculations      *
                            ***************************************

                                    ---------------------
                                    Active property flags
                                    ---------------------
   (+) Dipole Moment


------------------------------------------------------------------------------
                       ORCA ELECTRIC PROPERTIES CALCULATION
------------------------------------------------------------------------------

Dipole Moment Calculation                       ... on
Quadrupole Moment Calculation                   ... off
Polarizability Calculation                      ... off
GBWName                                         ... arbr_06_r2scan3c_wB97MV_ox.gbw
Electron density                                ... arbr_06_r2scan3c_wB97MV_ox.scfp
The origin for moment calculation is the CENTER OF MASS  = ( 0.325027, -0.026951 -0.000003)

-------------
DIPOLE MOMENT
-------------
                                X             Y             Z
Electronic contribution:     29.02451      -1.64883      -0.00000
Nuclear contribution   :    -29.25230       2.42546      -0.00002
                        -----------------------------------------
Total Dipole Moment    :     -0.22779       0.77663      -0.00003
                        -----------------------------------------
Magnitude (a.u.)       :      0.80935
Magnitude (Debye)      :      2.05720



--------------------
Rotational spectrum 
--------------------
 
Rotational constants in cm-1:     0.169249     0.015443     0.014152 
Rotational constants in MHz :  5073.952042   462.962825   424.252716 

 Dipole components along the rotational axes: 
x,y,z [a.u.] :    -0.225293    -0.777358    -0.000028 
x,y,z [Debye]:    -0.572650    -1.975887    -0.000071 

 

Timings for individual modules:

Sum of individual times         ...       44.044 sec (=   0.734 min)
GTO integral calculation        ...        0.549 sec (=   0.009 min)   1.2 %
SCF iterations                  ...       43.495 sec (=   0.725 min)  98.8 %
                             ****ORCA TERMINATED NORMALLY****
TOTAL RUN TIME: 0 days 0 hours 0 minutes 44 seconds 475 msec
