
                                 *****************
                                 * O   R   C   A *
                                 *****************

                                            #,                                       
                                            ###                                      
                                            ####                                     
                                            #####                                    
                                            ######                                   
                                           ########,                                 
                                     ,,################,,,,,                         
                               ,,#################################,,                 
                          ,,##########################################,,             
                       ,#########################################, ''#####,          
                    ,#############################################,,   '####,        
                  ,##################################################,,,,####,       
                ,###########''''           ''''###############################       
              ,#####''   ,,,,##########,,,,          '''####'''          '####       
            ,##' ,,,,###########################,,,                        '##       
           ' ,,###''''                  '''############,,,                           
         ,,##''                                '''############,,,,        ,,,,,,###''
      ,#''                                            '''#######################'''  
     '                                                          ''''####''''         
             ,#######,   #######,   ,#######,      ##                                
            ,#'     '#,  ##    ##  ,#'     '#,    #''#        ######   ,####,        
            ##       ##  ##   ,#'  ##            #'  '#       #        #'  '#        
            ##       ##  #######   ##           ,######,      #####,   #    #        
            '#,     ,#'  ##    ##  '#,     ,#' ,#      #,         ##   #,  ,#        
             '#######'   ##     ##  '#######'  #'      '#     #####' # '####'        



                  #######################################################
                  #                        -***-                        #
                  #          Department of theory and spectroscopy      #
                  #    Directorship and core code : Frank Neese         #
                  #        Max Planck Institute fuer Kohlenforschung    #
                  #                Kaiser Wilhelm Platz 1               #
                  #                 D-45470 Muelheim/Ruhr               #
                  #                      Germany                        #
                  #                                                     #
                  #                  All rights reserved                #
                  #                        -***-                        #
                  #######################################################


                         Program Version 5.0.4 -  RELEASE  -


 With contributions from (in alphabetic order):
   Daniel Aravena         : Magnetic Suceptibility
   Michael Atanasov       : Ab Initio Ligand Field Theory (pilot matlab implementation)
   Alexander A. Auer      : GIAO ZORA, VPT2 properties, NMR spectrum
   Ute Becker             : Parallelization
   Giovanni Bistoni       : ED, misc. LED, open-shell LED, HFLD
   Martin Brehm           : Molecular dynamics
   Dmytro Bykov           : SCF Hessian
   Vijay G. Chilkuri      : MRCI spin determinant printing, contributions to CSF-ICE
   Dipayan Datta          : RHF DLPNO-CCSD density
   Achintya Kumar Dutta   : EOM-CC, STEOM-CC
   Dmitry Ganyushin       : Spin-Orbit,Spin-Spin,Magnetic field MRCI
   Miquel Garcia          : C-PCM and meta-GGA Hessian, CC/C-PCM, Gaussian charge scheme
   Yang Guo               : DLPNO-NEVPT2, F12-NEVPT2, CIM, IAO-localization
   Andreas Hansen         : Spin unrestricted coupled pair/coupled cluster methods
   Benjamin Helmich-Paris : MC-RPA, TRAH-SCF, COSX integrals
   Lee Huntington         : MR-EOM, pCC
   Robert Izsak           : Overlap fitted RIJCOSX, COSX-SCS-MP3, EOM
   Marcus Kettner         : VPT2
   Christian Kollmar      : KDIIS, OOCD, Brueckner-CCSD(T), CCSD density, CASPT2, CASPT2-K
   Simone Kossmann        : Meta GGA functionals, TD-DFT gradient, OOMP2, MP2 Hessian
   Martin Krupicka        : Initial AUTO-CI
   Lucas Lang             : DCDCAS
   Marvin Lechner         : AUTO-CI (C++ implementation), FIC-MRCC
   Dagmar Lenk            : GEPOL surface, SMD
   Dimitrios Liakos       : Extrapolation schemes; Compound Job, initial MDCI parallelization
   Dimitrios Manganas     : Further ROCIS development; embedding schemes
   Dimitrios Pantazis     : SARC Basis sets
   Anastasios Papadopoulos: AUTO-CI, single reference methods and gradients
   Taras Petrenko         : DFT Hessian,TD-DFT gradient, ASA, ECA, R-Raman, ABS, FL, XAS/XES, NRVS
   Peter Pinski           : DLPNO-MP2, DLPNO-MP2 Gradient
   Christoph Reimann      : Effective Core Potentials
   Marius Retegan         : Local ZFS, SOC
   Christoph Riplinger    : Optimizer, TS searches, QM/MM, DLPNO-CCSD(T), (RO)-DLPNO pert. Triples
   Tobias Risthaus        : Range-separated hybrids, TD-DFT gradient, RPA, STAB
   Michael Roemelt        : Original ROCIS implementation
   Masaaki Saitow         : Open-shell DLPNO-CCSD energy and density
   Barbara Sandhoefer     : DKH picture change effects
   Avijit Sen             : IP-ROCIS
   Kantharuban Sivalingam : CASSCF convergence, NEVPT2, FIC-MRCI
   Bernardo de Souza      : ESD, SOC TD-DFT
   Georgi Stoychev        : AutoAux, RI-MP2 NMR, DLPNO-MP2 response
   Willem Van den Heuvel  : Paramagnetic NMR
   Boris Wezisla          : Elementary symmetry handling
   Frank Wennmohs         : Technical directorship


 We gratefully acknowledge several colleagues who have allowed us to
 interface, adapt or use parts of their codes:
   Stefan Grimme, W. Hujo, H. Kruse, P. Pracht,  : VdW corrections, initial TS optimization,
                  C. Bannwarth, S. Ehlert          DFT functionals, gCP, sTDA/sTD-DF
   Ed Valeev, F. Pavosevic, A. Kumar             : LibInt (2-el integral package), F12 methods
   Garnet Chan, S. Sharma, J. Yang, R. Olivares  : DMRG
   Ulf Ekstrom                                   : XCFun DFT Library
   Mihaly Kallay                                 : mrcc  (arbitrary order and MRCC methods)
   Jiri Pittner, Ondrej Demel                    : Mk-CCSD
   Frank Weinhold                                : gennbo (NPA and NBO analysis)
   Christopher J. Cramer and Donald G. Truhlar   : smd solvation model
   Lars Goerigk                                  : TD-DFT with DH, B97 family of functionals
   V. Asgeirsson, H. Jonsson                     : NEB implementation
   FAccTs GmbH                                   : IRC, NEB, NEB-TS, DLPNO-Multilevel, CI-OPT
                                                   MM, QMMM, 2- and 3-layer-ONIOM, Crystal-QMMM,
                                                   LR-CPCM, SF, NACMEs, symmetry and pop. for TD-DFT,
                                                   nearIR, NL-DFT gradient (VV10), updates on ESD,
                                                   ML-optimized integration grids
   S Lehtola, MJT Oliveira, MAL Marques          : LibXC Library
   Liviu Ungur et al                             : ANISO software


 Your calculation uses the libint2 library for the computation of 2-el integrals
 For citations please refer to: http://libint.valeyev.net

 Your ORCA version has been built with support for libXC version: 5.1.0
 For citations please refer to: https://tddft.org/programs/libxc/

 This ORCA versions uses:
   CBLAS   interface :  Fast vector & matrix operations
   LAPACKE interface :  Fast linear algebra routines
   SCALAPACK package :  Parallel linear algebra routines
   Shared memory     :  Shared parallel matrices
   BLAS/LAPACK       :  OpenBLAS 0.3.15  USE64BITINT DYNAMIC_ARCH NO_AFFINITY SkylakeX SINGLE_THREADED
        Core in use  :  SkylakeX
   Copyright (c) 2011-2014, The OpenBLAS Project


Your calculation utilizes the DFT-NL dispersion correction.
Cite in your paper:
Vydrov, O. A.; Van Voorhis, T. J. Chem. Phys. 2010, 133, 244103
Hujo, W.; Grimme, S. J. Chem. Theory Comput. 2011, 7, 3866 
   

================================================================================

----- Orbital basis set information -----
Your calculation utilizes the basis: def2-TZVPP
   F. Weigend and R. Ahlrichs, Phys. Chem. Chem. Phys. 7, 3297 (2005).

----- AuxJ basis set information -----
Your calculation utilizes the auxiliary basis: def2/J
   F. Weigend, Phys. Chem. Chem. Phys. 8, 1057 (2006).

================================================================================
                                        WARNINGS
                       Please study these warnings very carefully!
================================================================================

Using LibXC functional ID 531 : wB97M-V exchange-correlation functional
[ 1]  N. Mardirossian and M. Head-Gordon, J. Chem. Phys. 144, 214110 (2016)
Using LibXC functional ID 531 : wB97M-V exchange-correlation functional
[ 1]  N. Mardirossian and M. Head-Gordon, J. Chem. Phys. 144, 214110 (2016)

WARNING: B97M-V or wB97M-V functional requested.
  ===> : libXC variant has now been activated.
         Any manually given DFX/HFX/RangeSep scaling parameters are IGNORED!

Your calculation utilizes LibXC
 by S Lehtola, C Steigemann, MJT Oliveira & MAL Marques
Please cite in your paper:
 S Lehtola, C Steigemann, MJT Oliveira & MAL Marques, SoftwareX, 7, (2018), 1.
   


WARNING: your system is open-shell and RHF/RKS was chosen
  ===> : WILL SWITCH to UHF/UKS


INFO   : the flag for use of the SHARK integral package has been found!

================================================================================
                                       INPUT FILE
================================================================================
NAME = arbr_14_r2scan3c_wB97MV_ox.inp
|  1> %PAL NPROCS 16 END
|  2> %maxcore 4000
|  3> # arbr_14_r2scan3c.out
|  4> ! wB97m-v def2-TZVPP def2/J RIJCOSX Hirshfeld
|  5> * xyz 1 2
|  6>   Br        1.77666        -0.00639         0.00000
|  7>    C       -0.12749        -0.01338        -0.00003
|  8>    C       -0.79353         1.20717        -0.00001
|  9>    C       -2.17626         1.17083         0.00000
| 10>    C       -2.82223        -0.05811         0.00001
| 11>    C       -2.04683        -1.20524         0.00000
| 12>    N       -0.71336        -1.18552        -0.00001
| 13>    H       -0.24318         2.13620        -0.00000
| 14>    H       -2.74214         2.09356         0.00001
| 15>    H       -3.90087        -0.12767         0.00002
| 16>    H       -2.50524        -2.18727         0.00001
| 17> *
| 18> 
| 19>                          ****END OF INPUT****
================================================================================

                       ****************************
                       * Single Point Calculation *
                       ****************************

---------------------------------
CARTESIAN COORDINATES (ANGSTROEM)
---------------------------------
  Br     1.776660   -0.006390    0.000000
  C     -0.127490   -0.013380   -0.000030
  C     -0.793530    1.207170   -0.000010
  C     -2.176260    1.170830    0.000000
  C     -2.822230   -0.058110    0.000010
  C     -2.046830   -1.205240    0.000000
  N     -0.713360   -1.185520   -0.000010
  H     -0.243180    2.136200   -0.000000
  H     -2.742140    2.093560    0.000010
  H     -3.900870   -0.127670    0.000020
  H     -2.505240   -2.187270    0.000010

----------------------------
CARTESIAN COORDINATES (A.U.)
----------------------------
  NO LB      ZA    FRAG     MASS         X           Y           Z
   0 Br   35.0000    0    79.900    3.357401   -0.012075    0.000000
   1 C     6.0000    0    12.011   -0.240921   -0.025285   -0.000057
   2 C     6.0000    0    12.011   -1.499554    2.281221   -0.000019
   3 C     6.0000    0    12.011   -4.112535    2.212548    0.000000
   4 C     6.0000    0    12.011   -5.333242   -0.109812    0.000019
   5 C     6.0000    0    12.011   -3.867948   -2.277574    0.000000
   6 N     7.0000    0    14.007   -1.348055   -2.240308   -0.000019
   7 H     1.0000    0     1.008   -0.459544    4.036833   -0.000000
   8 H     1.0000    0     1.008   -5.181894    3.956255    0.000019
   9 H     1.0000    0     1.008   -7.371576   -0.241261    0.000038
  10 H     1.0000    0     1.008   -4.734217   -4.133341    0.000019

--------------------------------
INTERNAL COORDINATES (ANGSTROEM)
--------------------------------
 Br     0   0   0     0.000000000000     0.00000000     0.00000000
 C      1   0   0     1.904162830091     0.00000000     0.00000000
 C      2   1   0     1.390450137366   118.41045819     0.00000000
 C      3   2   1     1.383207449590   117.11532260   180.00151546
 C      4   3   2     1.388369822706   119.23330873     0.00000000
 C      5   4   3     1.384612724555   118.21551414     0.00000000
 N      2   1   3     1.310402929217   116.76755742   180.00286005
 H      3   2   1     1.079806400935   120.73705009     0.00000000
 H      4   3   2     1.082428208890   120.01395838   180.00034178
 H      5   4   3     1.080880586975   121.41766140   179.99987465
 H      6   5   4     1.083753961515   120.92026986   179.99982624

---------------------------
INTERNAL COORDINATES (A.U.)
---------------------------
 Br     0   0   0     0.000000000000     0.00000000     0.00000000
 C      1   0   0     3.598346263264     0.00000000     0.00000000
 C      2   1   0     2.627569962494   118.41045819     0.00000000
 C      3   2   1     2.613883266124   117.11532260   180.00151546
 C      4   3   2     2.623638737515   119.23330873     0.00000000
 C      5   4   3     2.616538850952   118.21551414     0.00000000
 N      2   1   3     2.476302661308   116.76755742   180.00286005
 H      3   2   1     2.040538375422   120.73705009     0.00000000
 H      4   3   2     2.045492874432   120.01395838   180.00034178
 H      5   4   3     2.042568292855   121.41766140   179.99987465
 H      6   5   4     2.047998183816   120.92026986   179.99982624

---------------------
BASIS SET INFORMATION
---------------------
There are 4 groups of distinct atoms

 Group   1 Type Br  : 17s13p8d1f contracted to 6s5p4d1f pattern {842111/64111/5111/1}
 Group   2 Type C   : 11s6p2d1f contracted to 5s3p2d1f pattern {62111/411/11/1}
 Group   3 Type N   : 11s6p2d1f contracted to 5s3p2d1f pattern {62111/411/11/1}
 Group   4 Type H   : 5s2p1d contracted to 3s2p1d pattern {311/11/1}

Atom   0Br   basis set group =>   1
Atom   1C    basis set group =>   2
Atom   2C    basis set group =>   2
Atom   3C    basis set group =>   2
Atom   4C    basis set group =>   2
Atom   5C    basis set group =>   2
Atom   6N    basis set group =>   3
Atom   7H    basis set group =>   4
Atom   8H    basis set group =>   4
Atom   9H    basis set group =>   4
Atom  10H    basis set group =>   4
---------------------------------
AUXILIARY/J BASIS SET INFORMATION
---------------------------------
There are 4 groups of distinct atoms

 Group   1 Type Br  : 19s5p5d3f1g contracted to 8s4p3d2f1g pattern {121111111/2111/311/21/1}
 Group   2 Type C   : 12s5p4d2f1g contracted to 6s4p3d1f1g pattern {711111/2111/211/2/1}
 Group   3 Type N   : 12s5p4d2f1g contracted to 6s4p3d1f1g pattern {711111/2111/211/2/1}
 Group   4 Type H   : 5s2p1d contracted to 3s1p1d pattern {311/2/1}

Atom   0Br   basis set group =>   1
Atom   1C    basis set group =>   2
Atom   2C    basis set group =>   2
Atom   3C    basis set group =>   2
Atom   4C    basis set group =>   2
Atom   5C    basis set group =>   2
Atom   6N    basis set group =>   3
Atom   7H    basis set group =>   4
Atom   8H    basis set group =>   4
Atom   9H    basis set group =>   4
Atom  10H    basis set group =>   4


           ************************************************************
           *        Program running with 16 parallel MPI-processes    *
           *              working on a common directory               *
           ************************************************************
------------------------------------------------------------------------------
                           ORCA GTO INTEGRAL CALCULATION
                           -- RI-GTO INTEGRALS CHOSEN --
------------------------------------------------------------------------------
------------------------------------------------------------------------------
                   ___                                                        
                  /   \      - P O W E R E D   B Y -                         
                 /     \                                                     
                 |  |  |   _    _      __       _____    __    __             
                 |  |  |  | |  | |    /  \     |  _  \  |  |  /  |          
                  \  \/   | |  | |   /    \    | | | |  |  | /  /          
                 / \  \   | |__| |  /  /\  \   | |_| |  |  |/  /          
                |  |  |   |  __  | /  /__\  \  |    /   |      \           
                |  |  |   | |  | | |   __   |  |    \   |  |\   \          
                \     /   | |  | | |  |  |  |  | |\  \  |  | \   \       
                 \___/    |_|  |_| |__|  |__|  |_| \__\ |__|  \__/        
                                                                              
                      - O R C A' S   B I G   F R I E N D -                    
                                      &                                       
                       - I N T E G R A L  F E E D E R -                       
                                                                              
 v1 FN, 2020, v2 2021                                                         
------------------------------------------------------------------------------


Reading SHARK input file arbr_14_r2scan3c_wB97MV_ox.SHARKINP.tmp ... ok
----------------------
SHARK INTEGRAL PACKAGE
----------------------

Number of atoms                             ...     11
Number of basis functions                   ...    290
Number of shells                            ...    106
Maximum angular momentum                    ...      3
Integral batch strategy                     ... SHARK/LIBINT Hybrid
RI-J (if used) integral strategy            ... SPLIT-RIJ (Revised 2003 algorithm where possible)
Printlevel                                  ...      1
Contraction scheme used                     ... SEGMENTED contraction
Coulomb Range Separation                    ... NOT USED
Exchange Range Separation                   ... Long Range
   Mu parameter                             ...  0.300000
   Scaling (regular/separated)              ...  0.150000  0.850000
Finite Nucleus Model                        ... NOT USED
Auxiliary Coulomb fitting basis             ... AVAILABLE
   # of basis functions in Aux-J            ...    396
   # of shells in Aux-J                     ...    128
   Maximum angular momentum in Aux-J        ...      4
Auxiliary J/K fitting basis                 ... NOT available
Auxiliary Correlation fitting basis         ... NOT available
Auxiliary 'external' fitting basis          ... NOT available
Integral threshold                          ...     1.000000e-10
Primitive cut-off                           ...     1.000000e-11
Primitive pair pre-selection threshold      ...     1.000000e-11

Calculating pre-screening integrals         ... done (  0.0 sec) Dimension = 106
Organizing shell pair data                  ... done (  0.1 sec)
Shell pair information
Total number of shell pairs                 ...      5671
Shell pairs after pre-screening             ...      5159
Total number of primitive shell pairs       ...     18546
Primitive shell pairs kept                  ...     12562
          la=0 lb=0:   1019 shell pairs
          la=1 lb=0:   1365 shell pairs
          la=1 lb=1:    470 shell pairs
          la=2 lb=0:    852 shell pairs
          la=2 lb=1:    573 shell pairs
          la=2 lb=2:    193 shell pairs
          la=3 lb=0:    315 shell pairs
          la=3 lb=1:    208 shell pairs
          la=3 lb=2:    136 shell pairs
          la=3 lb=3:     28 shell pairs

Calculating one electron integrals          ... done (  0.0 sec)
Calculating RI/J V-Matrix + Cholesky decomp.... done (  0.0 sec)
Calculating Nuclear repulsion               ... done (  0.0 sec) ENN=    438.414931333890 Eh

SHARK setup successfully completed in   0.2 seconds

Maximum memory used throughout the entire GTOINT-calculation: 22.4 MB


           ************************************************************
           *        Program running with 16 parallel MPI-processes    *
           *              working on a common directory               *
           ************************************************************
-------------------------------------------------------------------------------
                                 ORCA SCF
-------------------------------------------------------------------------------

------------
SCF SETTINGS
------------
Hamiltonian:
 Density Functional     Method          .... DFT(GTOs)
  Functional kind                       .... Exchange-Correlation
  Functional name                       .... wB97M-V exchange-correlation functional
  Functional family                     .... Hybrid MGGA
  Functional refs                              
    [ 0] N. Mardirossian and M. Head-Gordon, J. Chem. Phys. 144, 214110 (2016)
  Fraction of HF Exchange (short range) .... 0.1500
  Fraction of HF Exchange (long range)  .... 1.0000
  Range separation parameter mu         .... 0.3000
  Functional external parameters         .... 0
   Density functional embedding theory  .... OFF
 Long-range corrected/Screened/Range-Separated Hybrid DFT is turned on
   Amount of maximum screened exact exchange              ....  0.850000
   Range separation parameter mu (erf(mu*r12)/r12)        ....  0.300000
   NL short-range parameter             ....  6.000000
   NL long-range parameter              ....  0.010000
 RI-approximation to the Coulomb term is turned on
   Number of AuxJ basis functions       .... 396
   RIJ-COSX (HFX calculated with COS-X)).... on


General Settings:
 Integral files         IntName         .... arbr_14_r2scan3c_wB97MV_ox
 Hartree-Fock type      HFTyp           .... UHF
 Total Charge           Charge          ....    1
 Multiplicity           Mult            ....    2
 Number of Electrons    NEL             ....   75
 Basis Dimension        Dim             ....  290
 Nuclear Repulsion      ENuc            ....    438.4149313339 Eh

Convergence Acceleration:
 DIIS                   CNVDIIS         .... on
   Start iteration      DIISMaxIt       ....    12
   Startup error        DIISStart       ....  0.200000
   # of expansion vecs  DIISMaxEq       ....     5
   Bias factor          DIISBfac        ....   1.050
   Max. coefficient     DIISMaxC        ....  10.000
 Trust-Rad. Augm. Hess. CNVTRAH         .... auto
   Auto Start mean grad. ratio tolernc. ....  1.125000
   Auto Start start iteration           ....    20
   Auto Start num. interpolation iter.  ....    10
   Max. Number of Micro iterations      ....    16
   Max. Number of Macro iterations      .... Maxiter - #DIIS iter
   Number of Davidson start vectors     ....     2
   Converg. threshold I  (grad. norm)   ....   5.000e-05
   Converg. threshold II (energy diff.) ....   1.000e-06
   Grad. Scal. Fac. for Micro threshold ....   0.100
   Minimum threshold for Micro iter.    ....   0.010
   NR start threshold (gradient norm)   ....   0.001
   Initial trust radius                 ....   0.400
   Minimum AH scaling param. (alpha)    ....   1.000
   Maximum AH scaling param. (alpha)    .... 1000.000
   Orbital update algorithm             .... Taylor
   White noise on init. David. guess    .... on
   Maximum white noise                  ....   0.010
   Quad. conv. algorithm                .... NR
 SOSCF                  CNVSOSCF        .... off
 Level Shifting         CNVShift        .... on
   Level shift para.    LevelShift      ....    0.2500
   Turn off err/grad.   ShiftErr        ....    0.0010
 Zerner damping         CNVZerner       .... off
 Static damping         CNVDamp         .... on
   Fraction old density DampFac         ....    0.7000
   Max. Damping (<1)    DampMax         ....    0.9800
   Min. Damping (>=0)   DampMin         ....    0.0000
   Turn off err/grad.   DampErr         ....    0.1000
 Fernandez-Rico         CNVRico         .... off

SCF Procedure:
 Maximum # iterations   MaxIter         ....   125
 SCF integral mode      SCFMode         .... Direct
   Integral package                     .... SHARK and LIBINT hybrid scheme
 Reset frequency        DirectResetFreq ....    20
 Integral Threshold     Thresh          ....  1.000e-10 Eh
 Primitive CutOff       TCut            ....  1.000e-11 Eh

Convergence Tolerance:
 Convergence Check Mode ConvCheckMode   .... Total+1el-Energy
 Convergence forced     ConvForced      .... 0
 Energy Change          TolE            ....  1.000e-06 Eh
 1-El. energy change                    ....  1.000e-03 Eh
 DIIS Error             TolErr          ....  1.000e-06


Diagonalization of the overlap matrix:
Smallest eigenvalue                        ... 3.960e-05
Time for diagonalization                   ...    0.011 sec
Threshold for overlap eigenvalues          ... 1.000e-08
Number of eigenvalues below threshold      ... 0
Time for construction of square roots      ...    0.008 sec
Total time needed                          ...    0.020 sec

Time for model grid setup =    0.055 sec

------------------------------
INITIAL GUESS: MODEL POTENTIAL
------------------------------
Loading Hartree-Fock densities                     ... done
Calculating cut-offs                               ... done
Initializing the effective Hamiltonian             ... done
Setting up the integral package (SHARK)            ... done
Starting the Coulomb interaction                   ... done (   0.0 sec)
Reading the grid                                   ... done
Mapping shells                                     ... done
Starting the XC term evaluation                    ... done (   0.0 sec)
  promolecular density results
     # of electrons  =     75.997773846
     EX              =   -122.571491626
     EC              =     -3.082399660
     EX+EC           =   -125.653891286
Transforming the Hamiltonian                       ... done (   0.0 sec)
Diagonalizing the Hamiltonian                      ... done (   0.0 sec)
Back transforming the eigenvectors                 ... done (   0.0 sec)
Now organizing SCF variables                       ... done
                      ------------------
                      INITIAL GUESS DONE (   0.1 sec)
                      ------------------
-------------------
DFT GRID GENERATION
-------------------

General Integration Accuracy     IntAcc      ... 4.388
Radial Grid Type                 RadialGrid  ... OptM3 with GC (2021)
Angular Grid (max. ang.)         AngularGrid ... 4 (Lebedev-302)
Angular grid pruning method      GridPruning ... 4 (adaptive)
Weight generation scheme         WeightScheme... Becke
Basis function cutoff            BFCut       ... 1.0000e-10
Integration weight cutoff        WCut        ... 1.0000e-14
Angular grids for H and He will be reduced by one unit
Partially contracted basis set               ... off
Rotationally invariant grid construction     ... off

Total number of grid points                  ...    60368
Total number of batches                      ...      949
Average number of points per batch           ...       63
Average number of grid points per atom       ...     5488
Time for grid setup =    0.265 sec

--------------------
COSX GRID GENERATION
--------------------

GRIDX 1
-------
General Integration Accuracy     IntAcc      ... 3.816
Radial Grid Type                 RadialGrid  ... OptM3 with GC (2021)
Angular Grid (max. ang.)         AngularGrid ... 1 (Lebedev-50)
Angular grid pruning method      GridPruning ... 4 (adaptive)
Weight generation scheme         WeightScheme... Becke
Basis function cutoff            BFCut       ... 1.0000e-10
Integration weight cutoff        WCut        ... 1.0000e-14
Angular grids for H and He will be reduced by one unit
Partially contracted basis set               ... on
Rotationally invariant grid construction     ... off

Total number of grid points                  ...     7498
Total number of batches                      ...      121
Average number of points per batch           ...       61
Average number of grid points per atom       ...      682
UseSFitting                                  ... on

GRIDX 2
-------
General Integration Accuracy     IntAcc      ... 4.020
Radial Grid Type                 RadialGrid  ... OptM3 with GC (2021)
Angular Grid (max. ang.)         AngularGrid ... 2 (Lebedev-110)
Angular grid pruning method      GridPruning ... 4 (adaptive)
Weight generation scheme         WeightScheme... Becke
Basis function cutoff            BFCut       ... 1.0000e-10
Integration weight cutoff        WCut        ... 1.0000e-14
Angular grids for H and He will be reduced by one unit
Partially contracted basis set               ... on
Rotationally invariant grid construction     ... off

Total number of grid points                  ...    16633
Total number of batches                      ...      263
Average number of points per batch           ...       63
Average number of grid points per atom       ...     1512
UseSFitting                                  ... on

GRIDX 3
-------
General Integration Accuracy     IntAcc      ... 4.338
Radial Grid Type                 RadialGrid  ... OptM3 with GC (2021)
Angular Grid (max. ang.)         AngularGrid ... 3 (Lebedev-194)
Angular grid pruning method      GridPruning ... 4 (adaptive)
Weight generation scheme         WeightScheme... Becke
Basis function cutoff            BFCut       ... 1.0000e-10
Integration weight cutoff        WCut        ... 1.0000e-14
Angular grids for H and He will be reduced by one unit
Partially contracted basis set               ... on
Rotationally invariant grid construction     ... off

Total number of grid points                  ...    36919
Total number of batches                      ...      582
Average number of points per batch           ...       63
Average number of grid points per atom       ...     3356
UseSFitting                                  ... on

Time for X-Grid setup             =    0.203 sec

--------------
SCF ITERATIONS
--------------
ITER       Energy         Delta-E        Max-DP      RMS-DP      [F,P]     Damp
               ***  Starting incremental Fock matrix formation  ***
  0  -2821.4568681982   0.000000000000 0.02671611  0.00042435  0.0964705 0.7000
  1  -2821.5359875725  -0.079119374361 0.01983619  0.00032831  0.0526255 0.7000
                               ***Turning on DIIS***
  2  -2821.5746525145  -0.038664941982 0.04719620  0.00070279  0.0241512 0.0000
  3  -2821.6326479709  -0.057995456424 0.02626655  0.00024052  0.0208548 0.0000
  4  -2821.6472115910  -0.014563620044 0.00597041  0.00012429  0.0058266 0.0000
  5  -2821.6487467855  -0.001535194499 0.00510699  0.00006972  0.0056357 0.0000
  6  -2821.6495277870  -0.000781001569 0.00588980  0.00005522  0.0046729 0.0000
  7  -2821.6501037139  -0.000575926805 0.00718605  0.00005624  0.0039339 0.0000
  8  -2821.6506074854  -0.000503771561 0.00685151  0.00004620  0.0035307 0.0000
  9  -2821.6509552901  -0.000347804639 0.00583427  0.00003825  0.0027250 0.0000
 10  -2821.6511883186  -0.000233028551 0.00584262  0.00004002  0.0022781 0.0000
 11  -2821.6513666502  -0.000178331624 0.00432863  0.00002769  0.0019713 0.0000
 12  -2821.6514688400  -0.000102189740 0.00416484  0.00002969  0.0014806 0.0000
 13  -2821.6515375862  -0.000068746222 0.00243138  0.00001531  0.0012113 0.0000
 14  -2821.6515701212  -0.000032534987 0.00461390  0.00003052  0.0008496 0.0000
               *** Restarting incremental Fock matrix formation ***
                                   *** Resetting DIIS ***
 15  -2821.6515902087  -0.000020087480 0.00078682  0.00001203  0.0002590 0.0000
 16  -2821.6515928951  -0.000002686450 0.00014500  0.00000220  0.0002112 0.0000
 17  -2821.6515943841  -0.000001489010 0.00030386  0.00000478  0.0001876 0.0000
 18  -2821.6515968350  -0.000002450927 0.00017417  0.00000268  0.0001146 0.0000
                 **** Energy Check signals convergence ****

               *****************************************************
               *                     SUCCESS                       *
               *           SCF CONVERGED AFTER  19 CYCLES          *
               *****************************************************

Old exchange energy                            =    -28.682961372 Eh
New exchange energy                            =    -28.682956952 Eh
Exchange energy change after final integration =      0.000004420 Eh
Total energy after final integration           =  -2821.651593188 Eh
Final COS-X integration done in                =     2.412 sec

------------------
NL GRID GENERATION
------------------

General Integration Accuracy     IntAcc      ... 4.004
Radial Grid Type                 RadialGrid  ... OptM3 with GC (2021)
Angular Grid (max. ang.)         AngularGrid ... 2 (Lebedev-110)
Angular grid pruning method      GridPruning ... 4 (adaptive)
Weight generation scheme         WeightScheme... Becke
Basis function cutoff            BFCut       ... 1.0000e-10
Integration weight cutoff        WCut        ... 1.0000e-14
Angular grids for H and He will be reduced by one unit
Partially contracted basis set               ... off
Rotationally invariant grid construction     ... off

Total number of grid points                  ...    21372
Total number of batches                      ...      340
Average number of points per batch           ...       62
Average number of grid points per atom       ...     1943
Final grid set up in    0.1 sec

-------------------------------------------------------------------------------
                    post-SCF DFT-NL dispersion correction                      
-------------------------------------------------------------------------------

SCF Energy:   -2821.651593188 
NL    Energy:  0.299442248 
SC+NL Energy: -2821.352150940 
NL done in:    0.2 sec
-------------------------------------------------------------------------------

----------------
TOTAL SCF ENERGY
----------------

Total Energy       :        -2821.35215094 Eh          -76772.89509 eV

Components:
Nuclear Repulsion  :          438.41493133 Eh           11929.87678 eV
Electronic Energy  :        -3259.76708227 Eh          -88702.77187 eV
One Electron Energy:        -4770.85203368 Eh         -129821.48383 eV
Two Electron Energy:         1511.08495140 Eh           41118.71196 eV
Max COSX asymmetry :            0.00000091 Eh               0.00002 eV

Virial components:
Potential Energy   :        -5639.08943843 Eh         -153447.42474 eV
Kinetic Energy     :         2817.73728749 Eh           76674.52965 eV
Virial Ratio       :            2.00128290


DFT components:
N(Alpha)           :       38.000021063708 electrons
N(Beta)            :       37.000022100850 electrons
N(Total)           :       75.000043164558 electrons
NL Energy, E(C,NL) :        0.299442247589 Eh       
E(XC)              :      -97.697456745285 Eh       
DFET-embed. en.    :        0.000000000000 Eh       

---------------
SCF CONVERGENCE
---------------

  Last Energy change         ...   -7.7243e-07  Tolerance :   1.0000e-06
  Last MAX-Density change    ...    0.0000e+00  Tolerance :   1.0000e-05
  Last RMS-Density change    ...    0.0000e+00  Tolerance :   1.0000e-06
  Last DIIS Error            ...    8.4968e-05  Tolerance :   1.0000e-06

             **** THE GBW FILE WAS UPDATED (arbr_14_r2scan3c_wB97MV_ox.gbw) ****
             **** DENSITY arbr_14_r2scan3c_wB97MV_ox.scfp WAS UPDATED ****
             **** ENERGY FILE WAS UPDATED (arbr_14_r2scan3c_wB97MV_ox.en.tmp) ****
----------------------
UHF SPIN CONTAMINATION
----------------------

Warning: in a DFT calculation there is little theoretical justification to 
         calculate <S**2> as in Hartree-Fock theory. We will do it anyways
         but you should keep in mind that the values have only limited relevance

Expectation value of <S**2>     :     0.770873
Ideal value S*(S+1) for S=0.5   :     0.750000
Deviation                       :     0.020873

             **** THE GBW FILE WAS UPDATED (arbr_14_r2scan3c_wB97MV_ox.gbw) ****
             **** DENSITY arbr_14_r2scan3c_wB97MV_ox.scfp WAS UPDATED ****
----------------
ORBITAL ENERGIES
----------------
                 SPIN UP ORBITALS
  NO   OCC          E(Eh)            E(eV) 
   0   1.0000    -483.738835    -13163.2029 
   1   1.0000     -63.042318     -1715.4687 
   2   1.0000     -56.728638     -1543.6647 
   3   1.0000     -56.728415     -1543.6587 
   4   1.0000     -56.726256     -1543.5999 
   5   1.0000     -14.725989      -400.7145 
   6   1.0000     -10.675288      -290.4894 
   7   1.0000     -10.617185      -288.9083 
   8   1.0000     -10.602033      -288.4960 
   9   1.0000     -10.596891      -288.3561 
  10   1.0000     -10.579230      -287.8755 
  11   1.0000      -9.125098      -248.3066 
  12   1.0000      -6.908994      -188.0033 
  13   1.0000      -6.905585      -187.9105 
  14   1.0000      -6.896818      -187.6719 
  15   1.0000      -2.991880       -81.4132 
  16   1.0000      -2.991244       -81.3959 
  17   1.0000      -2.984754       -81.2193 
  18   1.0000      -2.981514       -81.1311 
  19   1.0000      -2.980118       -81.0931 
  20   1.0000      -1.317959       -35.8635 
  21   1.0000      -1.164700       -31.6931 
  22   1.0000      -1.161180       -31.5973 
  23   1.0000      -1.091769       -29.7085 
  24   1.0000      -0.981093       -26.6969 
  25   1.0000      -0.956662       -26.0321 
  26   1.0000      -0.854710       -23.2578 
  27   1.0000      -0.828193       -22.5363 
  28   1.0000      -0.786046       -21.3894 
  29   1.0000      -0.760914       -20.7055 
  30   1.0000      -0.750109       -20.4115 
  31   1.0000      -0.720594       -19.6084 
  32   1.0000      -0.681102       -18.5337 
  33   1.0000      -0.647056       -17.6073 
  34   1.0000      -0.604443       -16.4477 
  35   1.0000      -0.601084       -16.3563 
  36   1.0000      -0.580538       -15.7972 
  37   1.0000      -0.575836       -15.6693 
  38   0.0000      -0.170783        -4.6472 
  39   0.0000      -0.166624        -4.5341 
  40   0.0000      -0.117918        -3.2087 
  41   0.0000      -0.044653        -1.2151 
  42   0.0000      -0.021384        -0.5819 
  43   0.0000      -0.014335        -0.3901 
  44   0.0000       0.002776         0.0755 
  45   0.0000       0.008965         0.2439 
  46   0.0000       0.013132         0.3573 
  47   0.0000       0.053747         1.4625 
  48   0.0000       0.068541         1.8651 
  49   0.0000       0.079832         2.1723 
  50   0.0000       0.085009         2.3132 
  51   0.0000       0.110520         3.0074 
  52   0.0000       0.115250         3.1361 
  53   0.0000       0.119397         3.2490 
  54   0.0000       0.126517         3.4427 
  55   0.0000       0.135797         3.6952 
  56   0.0000       0.139573         3.7980 
  57   0.0000       0.163085         4.4378 
  58   0.0000       0.170724         4.6456 
  59   0.0000       0.178484         4.8568 
  60   0.0000       0.178821         4.8660 
  61   0.0000       0.206342         5.6149 
  62   0.0000       0.208506         5.6737 
  63   0.0000       0.218462         5.9447 
  64   0.0000       0.235878         6.4186 
  65   0.0000       0.241037         6.5590 
  66   0.0000       0.246858         6.7174 
  67   0.0000       0.269766         7.3407 
  68   0.0000       0.289895         7.8884 
  69   0.0000       0.296833         8.0772 
  70   0.0000       0.316652         8.6165 
  71   0.0000       0.327160         8.9025 
  72   0.0000       0.336217         9.1489 
  73   0.0000       0.339160         9.2290 
  74   0.0000       0.372159        10.1270 
  75   0.0000       0.390090        10.6149 
  76   0.0000       0.395673        10.7668 
  77   0.0000       0.407596        11.0913 
  78   0.0000       0.432773        11.7763 
  79   0.0000       0.438672        11.9369 
  80   0.0000       0.451461        12.2849 
  81   0.0000       0.486747        13.2450 
  82   0.0000       0.516237        14.0475 
  83   0.0000       0.521363        14.1870 
  84   0.0000       0.534994        14.5579 
  85   0.0000       0.545946        14.8560 
  86   0.0000       0.563978        15.3466 
  87   0.0000       0.567993        15.4559 
  88   0.0000       0.592575        16.1248 
  89   0.0000       0.624355        16.9896 
  90   0.0000       0.629460        17.1285 
  91   0.0000       0.643375        17.5071 
  92   0.0000       0.688115        18.7246 
  93   0.0000       0.693443        18.8695 
  94   0.0000       0.728815        19.8321 
  95   0.0000       0.729812        19.8592 
  96   0.0000       0.784088        21.3361 
  97   0.0000       0.835441        22.7335 
  98   0.0000       0.846637        23.0382 
  99   0.0000       0.851791        23.1784 
 100   0.0000       0.869682        23.6652 
 101   0.0000       0.906276        24.6610 
 102   0.0000       0.910974        24.7889 
 103   0.0000       0.920226        25.0406 
 104   0.0000       0.962943        26.2030 
 105   0.0000       0.993791        27.0424 
 106   0.0000       0.997485        27.1429 
 107   0.0000       1.010682        27.5021 
 108   0.0000       1.035057        28.1653 
 109   0.0000       1.066505        29.0211 
 110   0.0000       1.082825        29.4652 
 111   0.0000       1.090846        29.6834 
 112   0.0000       1.097026        29.8516 
 113   0.0000       1.113422        30.2978 
 114   0.0000       1.156893        31.4807 
 115   0.0000       1.175126        31.9768 
 116   0.0000       1.197460        32.5845 
 117   0.0000       1.209547        32.9134 
 118   0.0000       1.232567        33.5398 
 119   0.0000       1.236046        33.6345 
 120   0.0000       1.254035        34.1240 
 121   0.0000       1.254279        34.1307 
 122   0.0000       1.276936        34.7472 
 123   0.0000       1.282587        34.9010 
 124   0.0000       1.294917        35.2365 
 125   0.0000       1.319014        35.8922 
 126   0.0000       1.347572        36.6693 
 127   0.0000       1.358504        36.9668 
 128   0.0000       1.377193        37.4753 
 129   0.0000       1.389309        37.8050 
 130   0.0000       1.393864        37.9290 
 131   0.0000       1.410212        38.3738 
 132   0.0000       1.420302        38.6484 
 133   0.0000       1.424712        38.7684 
 134   0.0000       1.452188        39.5160 
 135   0.0000       1.461266        39.7631 
 136   0.0000       1.464642        39.8549 
 137   0.0000       1.492052        40.6008 
 138   0.0000       1.519731        41.3540 
 139   0.0000       1.535435        41.7813 
 140   0.0000       1.540605        41.9220 
 141   0.0000       1.557140        42.3719 
 142   0.0000       1.582182        43.0534 
 143   0.0000       1.600085        43.5405 
 144   0.0000       1.614983        43.9459 
 145   0.0000       1.627910        44.2977 
 146   0.0000       1.658206        45.1221 
 147   0.0000       1.698972        46.2314 
 148   0.0000       1.717865        46.7455 
 149   0.0000       1.726220        46.9728 
 150   0.0000       1.749030        47.5935 
 151   0.0000       1.790328        48.7173 
 152   0.0000       1.805125        49.1200 
 153   0.0000       1.815713        49.4081 
 154   0.0000       1.870713        50.9047 
 155   0.0000       1.914520        52.0968 
 156   0.0000       1.993477        54.2453 
 157   0.0000       2.028382        55.1951 
 158   0.0000       2.076336        56.5000 
 159   0.0000       2.100609        57.1605 
 160   0.0000       2.138402        58.1889 
 161   0.0000       2.210850        60.1603 
 162   0.0000       2.220829        60.4318 
 163   0.0000       2.252155        61.2843 
 164   0.0000       2.262009        61.5524 
 165   0.0000       2.302440        62.6526 
 166   0.0000       2.382616        64.8343 
 167   0.0000       2.403354        65.3986 
 168   0.0000       2.470050        67.2135 
 169   0.0000       2.493631        67.8551 
 170   0.0000       2.531608        68.8886 
 171   0.0000       2.542933        69.1967 
 172   0.0000       2.552413        69.4547 
 173   0.0000       2.568172        69.8835 
 174   0.0000       2.605158        70.8900 
 175   0.0000       2.615675        71.1761 
 176   0.0000       2.636357        71.7389 
 177   0.0000       2.656221        72.2794 
 178   0.0000       2.672211        72.7146 
 179   0.0000       2.732031        74.3423 
 180   0.0000       2.758347        75.0584 
 181   0.0000       2.766634        75.2839 
 182   0.0000       2.820209        76.7418 
 183   0.0000       2.822465        76.8032 
 184   0.0000       2.847948        77.4966 
 185   0.0000       2.860806        77.8465 
 186   0.0000       2.881865        78.4195 
 187   0.0000       2.887425        78.5708 
 188   0.0000       2.901236        78.9467 
 189   0.0000       2.962086        80.6024 
 190   0.0000       2.972131        80.8758 
 191   0.0000       2.980818        81.1122 
 192   0.0000       2.992934        81.4419 
 193   0.0000       2.996167        81.5298 
 194   0.0000       3.019648        82.1688 
 195   0.0000       3.030862        82.4739 
 196   0.0000       3.042963        82.8032 
 197   0.0000       3.099124        84.3314 
 198   0.0000       3.113065        84.7108 
 199   0.0000       3.125614        85.0523 
 200   0.0000       3.126098        85.0655 
 201   0.0000       3.188517        86.7639 
 202   0.0000       3.213575        87.4458 
 203   0.0000       3.232905        87.9718 
 204   0.0000       3.235142        88.0327 
 205   0.0000       3.245858        88.3243 
 206   0.0000       3.270418        88.9926 
 207   0.0000       3.291862        89.5761 
 208   0.0000       3.310307        90.0780 
 209   0.0000       3.346611        91.0659 
 210   0.0000       3.371789        91.7510 
 211   0.0000       3.385643        92.1280 
 212   0.0000       3.438816        93.5749 
 213   0.0000       3.492380        95.0325 
 214   0.0000       3.531195        96.0887 
 215   0.0000       3.544174        96.4419 
 216   0.0000       3.572047        97.2004 
 217   0.0000       3.583480        97.5114 
 218   0.0000       3.662491        99.6614 
 219   0.0000       3.664653        99.7203 
 220   0.0000       3.685825       100.2964 
 221   0.0000       3.686248       100.3079 
 222   0.0000       3.700470       100.6949 
 223   0.0000       3.713363       101.0457 
 224   0.0000       3.725059       101.3640 
 225   0.0000       3.749145       102.0194 
 226   0.0000       3.755871       102.2024 
 227   0.0000       3.823665       104.0472 
 228   0.0000       3.863795       105.1392 
 229   0.0000       3.879862       105.5764 
 230   0.0000       3.883124       105.6652 
 231   0.0000       3.900272       106.1318 
 232   0.0000       3.909678       106.3877 
 233   0.0000       3.962479       107.8245 
 234   0.0000       3.989413       108.5574 
 235   0.0000       4.003851       108.9503 
 236   0.0000       4.023550       109.4864 
 237   0.0000       4.049775       110.2000 
 238   0.0000       4.052859       110.2839 
 239   0.0000       4.133971       112.4911 
 240   0.0000       4.146448       112.8306 
 241   0.0000       4.187967       113.9604 
 242   0.0000       4.194708       114.1438 
 243   0.0000       4.199119       114.2638 
 244   0.0000       4.228420       115.0612 
 245   0.0000       4.275563       116.3440 
 246   0.0000       4.277386       116.3936 
 247   0.0000       4.316473       117.4572 
 248   0.0000       4.345999       118.2607 
 249   0.0000       4.382686       119.2589 
 250   0.0000       4.401422       119.7688 
 251   0.0000       4.459939       121.3611 
 252   0.0000       4.504193       122.5653 
 253   0.0000       4.526179       123.1636 
 254   0.0000       4.570025       124.3567 
 255   0.0000       4.590486       124.9135 
 256   0.0000       4.625110       125.8556 
 257   0.0000       4.718940       128.4089 
 258   0.0000       4.758305       129.4801 
 259   0.0000       4.769857       129.7944 
 260   0.0000       4.787601       130.2772 
 261   0.0000       4.799799       130.6092 
 262   0.0000       4.847601       131.9099 
 263   0.0000       4.863498       132.3425 
 264   0.0000       4.932778       134.2277 
 265   0.0000       4.947347       134.6242 
 266   0.0000       5.029810       136.8681 
 267   0.0000       5.037887       137.0879 
 268   0.0000       5.040837       137.1682 
 269   0.0000       5.096255       138.6761 
 270   0.0000       5.156471       140.3147 
 271   0.0000       5.183227       141.0428 
 272   0.0000       5.235053       142.4530 
 273   0.0000       5.240277       142.5952 
 274   0.0000       5.375861       146.2846 
 275   0.0000       5.425945       147.6475 
 276   0.0000       5.515940       150.0964 
 277   0.0000       5.600508       152.3976 
 278   0.0000       5.660473       154.0293 
 279   0.0000       5.781599       157.3253 
 280   0.0000       5.901404       160.5854 
 281   0.0000       5.945252       161.7785 
 282   0.0000       6.452766       175.5887 
 283   0.0000       7.622627       207.4222 
 284   0.0000      22.785440       620.0233 
 285   0.0000      23.074230       627.8817 
 286   0.0000      23.218641       631.8113 
 287   0.0000      23.383213       636.2896 
 288   0.0000      23.765937       646.7040 
 289   0.0000      32.663328       888.8143 

                 SPIN DOWN ORBITALS
  NO   OCC          E(Eh)            E(eV) 
   0   1.0000    -483.737731    -13163.1729 
   1   1.0000     -63.041982     -1715.4595 
   2   1.0000     -56.728292     -1543.6553 
   3   1.0000     -56.725983     -1543.5925 
   4   1.0000     -56.725878     -1543.5896 
   5   1.0000     -14.726427      -400.7264 
   6   1.0000     -10.672795      -290.4215 
   7   1.0000     -10.615511      -288.8627 
   8   1.0000     -10.598404      -288.3972 
   9   1.0000     -10.592762      -288.2437 
  10   1.0000     -10.580945      -287.9222 
  11   1.0000      -9.123704      -248.2686 
  12   1.0000      -6.908392      -187.9869 
  13   1.0000      -6.901597      -187.8020 
  14   1.0000      -6.896168      -187.6543 
  15   1.0000      -2.989993       -81.3619 
  16   1.0000      -2.988808       -81.3296 
  17   1.0000      -2.984391       -81.2094 
  18   1.0000      -2.978994       -81.0625 
  19   1.0000      -2.978393       -81.0462 
  20   1.0000      -1.314018       -35.7563 
  21   1.0000      -1.157797       -31.5053 
  22   1.0000      -1.153903       -31.3993 
  23   1.0000      -1.076286       -29.2872 
  24   1.0000      -0.976508       -26.5721 
  25   1.0000      -0.950873       -25.8746 
  26   1.0000      -0.850665       -23.1478 
  27   1.0000      -0.824051       -22.4236 
  28   1.0000      -0.782408       -21.2904 
  29   1.0000      -0.744476       -20.2582 
  30   1.0000      -0.737384       -20.0652 
  31   1.0000      -0.719504       -19.5787 
  32   1.0000      -0.678075       -18.4514 
  33   1.0000      -0.604948       -16.4615 
  34   1.0000      -0.595702       -16.2099 
  35   1.0000      -0.586629       -15.9630 
  36   1.0000      -0.579009       -15.7556 
  37   0.0000      -0.346402        -9.4261 
  38   0.0000      -0.151570        -4.1244 
  39   0.0000      -0.141102        -3.8396 
  40   0.0000      -0.112168        -3.0523 
  41   0.0000      -0.043136        -1.1738 
  42   0.0000      -0.019499        -0.5306 
  43   0.0000      -0.013472        -0.3666 
  44   0.0000       0.004109         0.1118 
  45   0.0000       0.014736         0.4010 
  46   0.0000       0.020508         0.5581 
  47   0.0000       0.054879         1.4933 
  48   0.0000       0.069236         1.8840 
  49   0.0000       0.082784         2.2527 
  50   0.0000       0.087486         2.3806 
  51   0.0000       0.111821         3.0428 
  52   0.0000       0.115098         3.1320 
  53   0.0000       0.125234         3.4078 
  54   0.0000       0.127994         3.4829 
  55   0.0000       0.137960         3.7541 
  56   0.0000       0.142851         3.8872 
  57   0.0000       0.166279         4.5247 
  58   0.0000       0.177221         4.8224 
  59   0.0000       0.181920         4.9503 
  60   0.0000       0.184718         5.0264 
  61   0.0000       0.208268         5.6673 
  62   0.0000       0.210889         5.7386 
  63   0.0000       0.224903         6.1199 
  64   0.0000       0.240266         6.5380 
  65   0.0000       0.246397         6.7048 
  66   0.0000       0.253301         6.8927 
  67   0.0000       0.275822         7.5055 
  68   0.0000       0.291203         7.9240 
  69   0.0000       0.300239         8.1699 
  70   0.0000       0.320166         8.7121 
  71   0.0000       0.328562         8.9406 
  72   0.0000       0.337628         9.1873 
  73   0.0000       0.343147         9.3375 
  74   0.0000       0.375343        10.2136 
  75   0.0000       0.392817        10.6891 
  76   0.0000       0.398850        10.8533 
  77   0.0000       0.410333        11.1657 
  78   0.0000       0.435564        11.8523 
  79   0.0000       0.443058        12.0562 
  80   0.0000       0.453992        12.3538 
  81   0.0000       0.490124        13.3369 
  82   0.0000       0.517890        14.0925 
  83   0.0000       0.522605        14.2208 
  84   0.0000       0.543589        14.7918 
  85   0.0000       0.549369        14.9491 
  86   0.0000       0.565735        15.3944 
  87   0.0000       0.572861        15.5883 
  88   0.0000       0.595401        16.2017 
  89   0.0000       0.625857        17.0304 
  90   0.0000       0.634590        17.2681 
  91   0.0000       0.647306        17.6141 
  92   0.0000       0.689737        18.7687 
  93   0.0000       0.699860        19.0441 
  94   0.0000       0.732462        19.9313 
  95   0.0000       0.734437        19.9850 
  96   0.0000       0.789415        21.4811 
  97   0.0000       0.837788        22.7974 
  98   0.0000       0.855631        23.2829 
  99   0.0000       0.856196        23.2983 
 100   0.0000       0.874293        23.7907 
 101   0.0000       0.912329        24.8257 
 102   0.0000       0.916444        24.9377 
 103   0.0000       0.923346        25.1255 
 104   0.0000       0.966559        26.3014 
 105   0.0000       0.995815        27.0975 
 106   0.0000       1.000475        27.2243 
 107   0.0000       1.012930        27.5632 
 108   0.0000       1.038989        28.2723 
 109   0.0000       1.073389        29.2084 
 110   0.0000       1.086182        29.5565 
 111   0.0000       1.097461        29.8634 
 112   0.0000       1.100434        29.9443 
 113   0.0000       1.120297        30.4848 
 114   0.0000       1.159827        31.5605 
 115   0.0000       1.177976        32.0544 
 116   0.0000       1.202285        32.7158 
 117   0.0000       1.218761        33.1642 
 118   0.0000       1.237013        33.6608 
 119   0.0000       1.247539        33.9473 
 120   0.0000       1.260615        34.3031 
 121   0.0000       1.262459        34.3533 
 122   0.0000       1.286881        35.0178 
 123   0.0000       1.288702        35.0674 
 124   0.0000       1.304537        35.4983 
 125   0.0000       1.325882        36.0791 
 126   0.0000       1.351445        36.7747 
 127   0.0000       1.371187        37.3119 
 128   0.0000       1.381770        37.5999 
 129   0.0000       1.401888        38.1473 
 130   0.0000       1.404113        38.2079 
 131   0.0000       1.422833        38.7173 
 132   0.0000       1.424901        38.7735 
 133   0.0000       1.434618        39.0379 
 134   0.0000       1.461913        39.7807 
 135   0.0000       1.466780        39.9131 
 136   0.0000       1.470235        40.0071 
 137   0.0000       1.510956        41.1152 
 138   0.0000       1.524905        41.4948 
 139   0.0000       1.540174        41.9103 
 140   0.0000       1.557221        42.3741 
 141   0.0000       1.562924        42.5293 
 142   0.0000       1.588896        43.2361 
 143   0.0000       1.604123        43.6504 
 144   0.0000       1.620324        44.0913 
 145   0.0000       1.633495        44.4497 
 146   0.0000       1.663856        45.2758 
 147   0.0000       1.705032        46.3963 
 148   0.0000       1.720926        46.8288 
 149   0.0000       1.738300        47.3015 
 150   0.0000       1.754325        47.7376 
 151   0.0000       1.796708        48.8909 
 152   0.0000       1.809876        49.2492 
 153   0.0000       1.825162        49.6652 
 154   0.0000       1.874891        51.0184 
 155   0.0000       1.919626        52.2357 
 156   0.0000       1.997002        54.3412 
 157   0.0000       2.035093        55.3777 
 158   0.0000       2.081279        56.6345 
 159   0.0000       2.107028        57.3351 
 160   0.0000       2.146841        58.4185 
 161   0.0000       2.216881        60.3244 
 162   0.0000       2.234232        60.7966 
 163   0.0000       2.258060        61.4449 
 164   0.0000       2.269559        61.7578 
 165   0.0000       2.310079        62.8605 
 166   0.0000       2.396025        65.1992 
 167   0.0000       2.409368        65.5622 
 168   0.0000       2.474559        67.3362 
 169   0.0000       2.509290        68.2813 
 170   0.0000       2.543994        69.2256 
 171   0.0000       2.552748        69.4638 
 172   0.0000       2.559137        69.6377 
 173   0.0000       2.576022        70.0971 
 174   0.0000       2.620297        71.3019 
 175   0.0000       2.621628        71.3381 
 176   0.0000       2.644032        71.9478 
 177   0.0000       2.666818        72.5678 
 178   0.0000       2.676668        72.8358 
 179   0.0000       2.740856        74.5825 
 180   0.0000       2.767936        75.3194 
 181   0.0000       2.777370        75.5761 
 182   0.0000       2.829818        77.0033 
 183   0.0000       2.832021        77.0632 
 184   0.0000       2.857935        77.7684 
 185   0.0000       2.870946        78.1224 
 186   0.0000       2.894897        78.7741 
 187   0.0000       2.898193        78.8638 
 188   0.0000       2.916139        79.3522 
 189   0.0000       2.969875        80.8144 
 190   0.0000       2.979851        81.0859 
 191   0.0000       2.988446        81.3197 
 192   0.0000       2.998713        81.5991 
 193   0.0000       3.002471        81.7014 
 194   0.0000       3.028618        82.4129 
 195   0.0000       3.040225        82.7287 
 196   0.0000       3.053987        83.1032 
 197   0.0000       3.107994        84.5728 
 198   0.0000       3.123873        85.0049 
 199   0.0000       3.135665        85.3258 
 200   0.0000       3.136175        85.3397 
 201   0.0000       3.195544        86.9552 
 202   0.0000       3.218786        87.5876 
 203   0.0000       3.239334        88.1468 
 204   0.0000       3.242671        88.2376 
 205   0.0000       3.254195        88.5511 
 206   0.0000       3.278934        89.2243 
 207   0.0000       3.296682        89.7073 
 208   0.0000       3.320598        90.3581 
 209   0.0000       3.356886        91.3455 
 210   0.0000       3.382018        92.0294 
 211   0.0000       3.392041        92.3021 
 212   0.0000       3.445255        93.7502 
 213   0.0000       3.498093        95.1880 
 214   0.0000       3.535529        96.2066 
 215   0.0000       3.549156        96.5775 
 216   0.0000       3.578737        97.3824 
 217   0.0000       3.592967        97.7696 
 218   0.0000       3.670377        99.8760 
 219   0.0000       3.671202        99.8985 
 220   0.0000       3.693299       100.4998 
 221   0.0000       3.694091       100.5213 
 222   0.0000       3.703086       100.7661 
 223   0.0000       3.718539       101.1866 
 224   0.0000       3.727415       101.4281 
 225   0.0000       3.754314       102.1601 
 226   0.0000       3.757724       102.2529 
 227   0.0000       3.829024       104.1930 
 228   0.0000       3.870542       105.3228 
 229   0.0000       3.887719       105.7902 
 230   0.0000       3.896020       106.0161 
 231   0.0000       3.911338       106.4329 
 232   0.0000       3.916717       106.5793 
 233   0.0000       3.973096       108.1134 
 234   0.0000       4.000020       108.8461 
 235   0.0000       4.021434       109.4288 
 236   0.0000       4.029057       109.6362 
 237   0.0000       4.059286       110.4588 
 238   0.0000       4.064674       110.6054 
 239   0.0000       4.137838       112.5963 
 240   0.0000       4.150659       112.9452 
 241   0.0000       4.192888       114.0943 
 242   0.0000       4.205800       114.4456 
 243   0.0000       4.206540       114.4658 
 244   0.0000       4.234923       115.2381 
 245   0.0000       4.281312       116.5004 
 246   0.0000       4.285249       116.6075 
 247   0.0000       4.328621       117.7878 
 248   0.0000       4.353360       118.4609 
 249   0.0000       4.390959       119.4841 
 250   0.0000       4.408821       119.9701 
 251   0.0000       4.466621       121.5429 
 252   0.0000       4.514007       122.8324 
 253   0.0000       4.537653       123.4758 
 254   0.0000       4.579776       124.6220 
 255   0.0000       4.602327       125.2357 
 256   0.0000       4.636631       126.1691 
 257   0.0000       4.729977       128.7092 
 258   0.0000       4.769678       129.7895 
 259   0.0000       4.772124       129.8561 
 260   0.0000       4.798063       130.5619 
 261   0.0000       4.812941       130.9668 
 262   0.0000       4.851090       132.0049 
 263   0.0000       4.872040       132.5749 
 264   0.0000       4.940048       134.4255 
 265   0.0000       4.958275       134.9215 
 266   0.0000       5.037024       137.0644 
 267   0.0000       5.041248       137.1793 
 268   0.0000       5.048977       137.3896 
 269   0.0000       5.101760       138.8259 
 270   0.0000       5.165020       140.5473 
 271   0.0000       5.189720       141.2195 
 272   0.0000       5.239555       142.5755 
 273   0.0000       5.249690       142.8513 
 274   0.0000       5.385714       146.5527 
 275   0.0000       5.435335       147.9030 
 276   0.0000       5.519298       150.1877 
 277   0.0000       5.606329       152.5560 
 278   0.0000       5.671645       154.3333 
 279   0.0000       5.794120       157.6660 
 280   0.0000       5.906960       160.7366 
 281   0.0000       5.954397       162.0274 
 282   0.0000       6.462014       175.8403 
 283   0.0000       7.625970       207.5132 
 284   0.0000      22.787960       620.0919 
 285   0.0000      23.076357       627.9396 
 286   0.0000      23.222436       631.9146 
 287   0.0000      23.385896       636.3626 
 288   0.0000      23.768730       646.7800 
 289   0.0000      32.663058       888.8070 

                    ********************************
                    * MULLIKEN POPULATION ANALYSIS *
                    ********************************

--------------------------------------------
MULLIKEN ATOMIC CHARGES AND SPIN POPULATIONS
--------------------------------------------
   0 Br:    0.306909    0.336754
   1 C :    0.134658    0.149379
   2 C :   -0.027121    0.239428
   3 C :   -0.066677   -0.102043
   4 C :    0.001985    0.276589
   5 C :    0.084176    0.122306
   6 N :   -0.178650   -0.018612
   7 H :    0.188788   -0.001787
   8 H :    0.182609   -0.000111
   9 H :    0.192218   -0.000760
  10 H :    0.181103   -0.001143
Sum of atomic charges         :    1.0000000
Sum of atomic spin populations:    1.0000000

-----------------------------------------------------
MULLIKEN REDUCED ORBITAL CHARGES AND SPIN POPULATIONS
-----------------------------------------------------
CHARGE
  0 Brs       :     7.932698  s :     7.932698
      pz      :     5.595486  p :    16.703419
      px      :     5.156097
      py      :     5.951837
      dz2     :     2.006882  d :    10.049769
      dxz     :     2.016448
      dyz     :     2.000411
      dx2y2   :     2.020941
      dxy     :     2.005087
      f0      :     0.000701  f :     0.007203
      f+1     :     0.001269
      f-1     :     0.000077
      f+2     :     0.001227
      f-2     :     0.000041
      f+3     :     0.002813
      f-3     :     0.001075
  1 C s       :     3.171891  s :     3.171891
      pz      :     0.840411  p :     2.474733
      px      :     0.786912
      py      :     0.847409
      dz2     :     0.005646  d :     0.205522
      dxz     :     0.027418
      dyz     :     0.035510
      dx2y2   :     0.079042
      dxy     :     0.057906
      f0      :     0.002162  f :     0.013196
      f+1     :     0.000966
      f-1     :     0.000925
      f+2     :     0.000704
      f-2     :     0.001438
      f+3     :     0.002019
      f-3     :     0.004982
  2 C s       :     3.189050  s :     3.189050
      pz      :     0.809243  p :     2.738985
      px      :     0.965312
      py      :     0.964430
      dz2     :     0.006097  d :     0.091866
      dxz     :     0.017648
      dyz     :     0.009480
      dx2y2   :     0.015945
      dxy     :     0.042696
      f0      :     0.001316  f :     0.007220
      f+1     :     0.000536
      f-1     :     0.000538
      f+2     :     0.000752
      f-2     :     0.000392
      f+3     :     0.001149
      f-3     :     0.002537
  3 C s       :     3.207793  s :     3.207793
      pz      :     0.878010  p :     2.771302
      px      :     0.910839
      py      :     0.982453
      dz2     :     0.004113  d :     0.080318
      dxz     :     0.012526
      dyz     :     0.011088
      dx2y2   :     0.025438
      dxy     :     0.027153
      f0      :     0.001538  f :     0.007264
      f+1     :     0.000556
      f-1     :     0.000535
      f+2     :     0.000649
      f-2     :     0.000327
      f+3     :     0.001088
      f-3     :     0.002571
  4 C s       :     3.210394  s :     3.210394
      pz      :     0.770085  p :     2.693678
      px      :     1.029289
      py      :     0.894304
      dz2     :     0.005599  d :     0.086927
      dxz     :     0.008719
      dyz     :     0.016721
      dx2y2   :     0.034970
      dxy     :     0.020918
      f0      :     0.001254  f :     0.007016
      f+1     :     0.000486
      f-1     :     0.000529
      f+2     :     0.000207
      f-2     :     0.000866
      f+3     :     0.001141
      f-3     :     0.002533
  5 C s       :     3.187115  s :     3.187115
      pz      :     0.766526  p :     2.597934
      px      :     0.827605
      py      :     1.003803
      dz2     :     0.003060  d :     0.119972
      dxz     :     0.025318
      dyz     :     0.011790
      dx2y2   :     0.031303
      dxy     :     0.048499
      f0      :     0.001707  f :     0.010802
      f+1     :     0.000933
      f-1     :     0.000514
      f+2     :     0.001294
      f-2     :     0.000439
      f+3     :     0.001806
      f-3     :     0.004109
  6 N s       :     3.612067  s :     3.612067
      pz      :     1.073986  p :     3.497237
      px      :     1.121287
      py      :     1.301964
      dz2     :     0.006358  d :     0.065487
      dxz     :     0.010564
      dyz     :     0.010722
      dx2y2   :     0.020463
      dxy     :     0.017380
      f0      :     0.000674  f :     0.003858
      f+1     :     0.000372
      f-1     :     0.000268
      f+2     :     0.000395
      f-2     :     0.000305
      f+3     :     0.000819
      f-3     :     0.001025
  7 H s       :     0.774868  s :     0.774868
      pz      :     0.007978  p :     0.033909
      px      :     0.009455
      py      :     0.016476
      dz2     :     0.000161  d :     0.002435
      dxz     :     0.000179
      dyz     :     0.000472
      dx2y2   :     0.000958
      dxy     :     0.000665
  8 H s       :     0.782344  s :     0.782344
      pz      :     0.008664  p :     0.032706
      px      :     0.009899
      py      :     0.014143
      dz2     :     0.000157  d :     0.002341
      dxz     :     0.000195
      dyz     :     0.000488
      dx2y2   :     0.000873
      dxy     :     0.000628
  9 H s       :     0.773855  s :     0.773855
      pz      :     0.007183  p :     0.031606
      px      :     0.017037
      py      :     0.007385
      dz2     :     0.000150  d :     0.002321
      dxz     :     0.000601
      dyz     :     0.000012
      dx2y2   :     0.000564
      dxy     :     0.000993
 10 H s       :     0.785967  s :     0.785967
      pz      :     0.007050  p :     0.030466
      px      :     0.007257
      py      :     0.016158
      dz2     :     0.000176  d :     0.002464
      dxz     :     0.000133
      dyz     :     0.000546
      dx2y2   :     0.000830
      dxy     :     0.000779

SPIN
  0 Brs       :     0.001127  s :     0.001127
      pz      :     0.340898  p :     0.339598
      px      :    -0.001187
      py      :    -0.000113
      dz2     :     0.000767  d :    -0.003572
      dxz     :    -0.004009
      dyz     :    -0.000089
      dx2y2   :    -0.000136
      dxy     :    -0.000105
      f0      :    -0.000074  f :    -0.000399
      f+1     :    -0.000193
      f-1     :     0.000007
      f+2     :    -0.000112
      f-2     :     0.000000
      f+3     :    -0.000022
      f-3     :    -0.000006
  1 C s       :     0.003196  s :     0.003196
      pz      :     0.136815  p :     0.142682
      px      :     0.002705
      py      :     0.003162
      dz2     :    -0.000245  d :     0.003190
      dxz     :     0.000503
      dyz     :     0.003090
      dx2y2   :     0.000073
      dxy     :    -0.000231
      f0      :     0.000004  f :     0.000311
      f+1     :    -0.000085
      f-1     :    -0.000070
      f+2     :     0.000298
      f-2     :     0.000123
      f+3     :    -0.000020
      f-3     :     0.000061
  2 C s       :    -0.001654  s :    -0.001654
      pz      :     0.227321  p :     0.241692
      px      :     0.010651
      py      :     0.003720
      dz2     :    -0.000949  d :    -0.000455
      dxz     :    -0.002281
      dyz     :     0.002282
      dx2y2   :    -0.000240
      dxy     :     0.000732
      f0      :    -0.000054  f :    -0.000154
      f+1     :    -0.000110
      f-1     :    -0.000114
      f+2     :     0.000015
      f-2     :     0.000126
      f+3     :    -0.000056
      f-3     :     0.000039
  3 C s       :     0.001484  s :     0.001484
      pz      :    -0.095554  p :    -0.113998
      px      :    -0.011402
      py      :    -0.007041
      dz2     :     0.000679  d :     0.009615
      dxz     :     0.006966
      dyz     :     0.002786
      dx2y2   :    -0.000306
      dxy     :    -0.000511
      f0      :     0.000139  f :     0.000856
      f+1     :     0.000033
      f-1     :     0.000039
      f+2     :     0.000404
      f-2     :     0.000144
      f+3     :     0.000034
      f-3     :     0.000063
  4 C s       :    -0.003730  s :    -0.003730
      pz      :     0.265447  p :     0.281432
      px      :     0.006961
      py      :     0.009024
      dz2     :    -0.001149  d :    -0.000838
      dxz     :    -0.000553
      dyz     :     0.000683
      dx2y2   :     0.000348
      dxy     :    -0.000168
      f0      :    -0.000097  f :    -0.000275
      f+1     :    -0.000143
      f-1     :    -0.000118
      f+2     :     0.000050
      f-2     :     0.000066
      f+3     :    -0.000072
      f-3     :     0.000039
  5 C s       :     0.005372  s :     0.005372
      pz      :     0.112192  p :     0.112930
      px      :     0.000658
      py      :     0.000080
      dz2     :    -0.000290  d :     0.003840
      dxz     :     0.002528
      dyz     :     0.002460
      dx2y2   :    -0.000465
      dxy     :    -0.000392
      f0      :    -0.000038  f :     0.000165
      f+1     :    -0.000084
      f-1     :    -0.000057
      f+2     :     0.000040
      f-2     :     0.000280
      f+3     :    -0.000017
      f-3     :     0.000041
  6 N s       :    -0.002693  s :    -0.002693
      pz      :    -0.011581  p :    -0.019374
      px      :    -0.003577
      py      :    -0.004216
      dz2     :     0.000023  d :     0.003201
      dxz     :     0.000827
      dyz     :     0.002083
      dx2y2   :     0.000074
      dxy     :     0.000193
      f0      :     0.000027  f :     0.000255
      f+1     :     0.000004
      f-1     :     0.000003
      f+2     :     0.000144
      f-2     :     0.000062
      f+3     :     0.000005
      f-3     :     0.000010
  7 H s       :    -0.005215  s :    -0.005215
      pz      :     0.002268  p :     0.003131
      px      :     0.000197
      py      :     0.000666
      dz2     :    -0.000002  d :     0.000297
      dxz     :     0.000055
      dyz     :     0.000187
      dx2y2   :     0.000043
      dxy     :     0.000014
  8 H s       :     0.001457  s :     0.001457
      pz      :    -0.001162  p :    -0.001441
      px      :    -0.000187
      py      :    -0.000093
      dz2     :     0.000002  d :    -0.000126
      dxz     :    -0.000026
      dyz     :    -0.000073
      dx2y2   :    -0.000024
      dxy     :    -0.000005
  9 H s       :    -0.005033  s :    -0.005033
      pz      :     0.002856  p :     0.003922
      px      :     0.000910
      py      :     0.000156
      dz2     :    -0.000002  d :     0.000352
      dxz     :     0.000289
      dyz     :    -0.000001
      dx2y2   :     0.000014
      dxy     :     0.000052
 10 H s       :    -0.002599  s :    -0.002599
      pz      :     0.001125  p :     0.001316
      px      :    -0.000013
      py      :     0.000204
      dz2     :    -0.000000  d :     0.000141
      dxz     :     0.000006
      dyz     :     0.000112
      dx2y2   :     0.000016
      dxy     :     0.000007


                     *******************************
                     * LOEWDIN POPULATION ANALYSIS *
                     *******************************

-------------------------------------------
LOEWDIN ATOMIC CHARGES AND SPIN POPULATIONS
-------------------------------------------
   0 Br:    0.674373    0.335925
   1 C :   -0.378927    0.140347
   2 C :    0.073988    0.192683
   3 C :    0.068706   -0.032655
   4 C :    0.120013    0.220387
   5 C :    0.025212    0.120888
   6 N :    0.210683    0.001143
   7 H :    0.050585    0.009677
   8 H :    0.051143   -0.004953
   9 H :    0.055283    0.012020
  10 H :    0.048941    0.004538

----------------------------------------------------
LOEWDIN REDUCED ORBITAL CHARGES AND SPIN POPULATIONS
----------------------------------------------------
CHARGE
  0 Brs       :     7.604334  s :     7.604334
      pz      :     5.547300  p :    16.601731
      px      :     5.169407
      py      :     5.885024
      dz2     :     2.016575  d :    10.105721
      dxz     :     2.024354
      dyz     :     2.000486
      dx2y2   :     2.046415
      dxy     :     2.017892
      f0      :     0.001134  f :     0.013841
      f+1     :     0.002723
      f-1     :     0.000216
      f+2     :     0.001773
      f-2     :     0.000028
      f+3     :     0.005476
      f-3     :     0.002492
  1 C s       :     2.794592  s :     2.794592
      pz      :     0.784004  p :     2.835454
      px      :     0.980498
      py      :     1.070952
      dz2     :     0.044736  d :     0.672637
      dxz     :     0.065582
      dyz     :     0.100597
      dx2y2   :     0.284481
      dxy     :     0.177241
      f0      :     0.004872  f :     0.076245
      f+1     :     0.004443
      f-1     :     0.006412
      f+2     :     0.004345
      f-2     :     0.010435
      f+3     :     0.012491
      f-3     :     0.033246
  2 C s       :     2.733000  s :     2.733000
      pz      :     0.717934  p :     2.763052
      px      :     1.039455
      py      :     1.005663
      dz2     :     0.027464  d :     0.385753
      dxz     :     0.054314
      dyz     :     0.028838
      dx2y2   :     0.115277
      dxy     :     0.159861
      f0      :     0.002684  f :     0.044207
      f+1     :     0.003800
      f-1     :     0.003634
      f+2     :     0.005790
      f-2     :     0.003122
      f+3     :     0.008825
      f-3     :     0.016352
  3 C s       :     2.721582  s :     2.721582
      pz      :     0.784969  p :     2.796473
      px      :     1.007374
      py      :     1.004130
      dz2     :     0.025356  d :     0.370174
      dxz     :     0.040176
      dyz     :     0.027452
      dx2y2   :     0.124663
      dxy     :     0.152528
      f0      :     0.002720  f :     0.043064
      f+1     :     0.003818
      f-1     :     0.003397
      f+2     :     0.004726
      f-2     :     0.002474
      f+3     :     0.008453
      f-3     :     0.017476
  4 C s       :     2.731610  s :     2.731610
      pz      :     0.686641  p :     2.727834
      px      :     1.009298
      py      :     1.031894
      dz2     :     0.025835  d :     0.377170
      dxz     :     0.019929
      dyz     :     0.059565
      dx2y2   :     0.158505
      dxy     :     0.113335
      f0      :     0.002551  f :     0.043374
      f+1     :     0.003147
      f-1     :     0.003869
      f+2     :     0.001637
      f-2     :     0.006811
      f+3     :     0.008538
      f-3     :     0.016820
  5 C s       :     2.737296  s :     2.737296
      pz      :     0.695962  p :     2.682635
      px      :     0.960120
      py      :     1.026553
      dz2     :     0.031965  d :     0.491390
      dxz     :     0.072419
      dyz     :     0.027408
      dx2y2   :     0.161091
      dxy     :     0.198507
      f0      :     0.003554  f :     0.063467
      f+1     :     0.005941
      f-1     :     0.003363
      f+2     :     0.008619
      f-2     :     0.003213
      f+3     :     0.011958
      f-3     :     0.026819
  6 N s       :     3.033067  s :     3.033067
      pz      :     0.988087  p :     3.528128
      px      :     1.208651
      py      :     1.331390
      dz2     :     0.019020  d :     0.209555
      dxz     :     0.028187
      dyz     :     0.020253
      dx2y2   :     0.071826
      dxy     :     0.070269
      f0      :     0.001335  f :     0.018568
      f+1     :     0.001831
      f-1     :     0.001262
      f+2     :     0.002121
      f-2     :     0.001046
      f+3     :     0.004153
      f-3     :     0.006821
  7 H s       :     0.777110  s :     0.777110
      pz      :     0.031453  p :     0.143083
      px      :     0.043932
      py      :     0.067698
      dz2     :     0.002947  d :     0.029221
      dxz     :     0.001997
      dyz     :     0.005423
      dx2y2   :     0.009588
      dxy     :     0.009265
  8 H s       :     0.777585  s :     0.777585
      pz      :     0.033091  p :     0.142275
      px      :     0.044058
      py      :     0.065127
      dz2     :     0.002875  d :     0.028996
      dxz     :     0.002165
      dyz     :     0.005615
      dx2y2   :     0.009222
      dxy     :     0.009120
  9 H s       :     0.774861  s :     0.774861
      pz      :     0.028976  p :     0.141078
      px      :     0.079538
      py      :     0.032564
      dz2     :     0.002923  d :     0.028778
      dxz     :     0.006902
      dyz     :     0.000059
      dx2y2   :     0.009362
      dxy     :     0.009533
 10 H s       :     0.785872  s :     0.785872
      pz      :     0.027908  p :     0.136656
      px      :     0.034876
      py      :     0.073872
      dz2     :     0.002985  d :     0.028532
      dxz     :     0.001365
      dyz     :     0.005601
      dx2y2   :     0.009208
      dxy     :     0.009372

SPIN
  0 Brs       :     0.001457  s :     0.001457
      pz      :     0.330399  p :     0.330069
      px      :    -0.001161
      py      :     0.000831
      dz2     :     0.000962  d :     0.003885
      dxz     :     0.003063
      dyz     :    -0.000038
      dx2y2   :    -0.000030
      dxy     :    -0.000071
      f0      :     0.000312  f :     0.000514
      f+1     :    -0.000177
      f-1     :     0.000032
      f+2     :     0.000364
      f-2     :     0.000001
      f+3     :    -0.000007
      f-3     :    -0.000011
  1 C s       :     0.001378  s :     0.001378
      pz      :     0.120339  p :     0.121060
      px      :     0.000590
      py      :     0.000131
      dz2     :    -0.000196  d :     0.016154
      dxz     :     0.007682
      dyz     :     0.007817
      dx2y2   :     0.000723
      dxy     :     0.000129
      f0      :    -0.000079  f :     0.001755
      f+1     :    -0.000091
      f-1     :    -0.000079
      f+2     :     0.001268
      f-2     :     0.000702
      f+3     :    -0.000032
      f-3     :     0.000067
  2 C s       :     0.003022  s :     0.003022
      pz      :     0.184768  p :     0.190018
      px      :     0.003618
      py      :     0.001631
      dz2     :    -0.000674  d :    -0.000529
      dxz     :    -0.004148
      dyz     :     0.005368
      dx2y2   :    -0.000558
      dxy     :    -0.000517
      f0      :    -0.000279  f :     0.000173
      f+1     :    -0.000124
      f-1     :    -0.000110
      f+2     :    -0.000036
      f-2     :     0.000824
      f+3     :    -0.000109
      f-3     :     0.000007
  3 C s       :    -0.002299  s :    -0.002299
      pz      :    -0.066328  p :    -0.074164
      px      :    -0.004458
      py      :    -0.003378
      dz2     :     0.000285  d :     0.038727
      dxz     :     0.025545
      dyz     :     0.011243
      dx2y2   :     0.000917
      dxy     :     0.000736
      f0      :     0.000627  f :     0.005081
      f+1     :     0.000057
      f-1     :     0.000058
      f+2     :     0.003046
      f-2     :     0.001014
      f+3     :     0.000157
      f-3     :     0.000122
  4 C s       :     0.003691  s :     0.003691
      pz      :     0.212160  p :     0.219160
      px      :     0.003293
      py      :     0.003707
      dz2     :    -0.000813  d :    -0.002072
      dxz     :    -0.001458
      dyz     :     0.001264
      dx2y2   :    -0.000605
      dxy     :    -0.000462
      f0      :    -0.000435  f :    -0.000392
      f+1     :    -0.000134
      f-1     :    -0.000133
      f+2     :     0.000103
      f-2     :     0.000321
      f+3     :    -0.000140
      f-3     :     0.000025
  5 C s       :     0.001101  s :     0.001101
      pz      :     0.099400  p :     0.099902
      px      :     0.001011
      py      :    -0.000509
      dz2     :    -0.000283  d :     0.017971
      dxz     :     0.010580
      dyz     :     0.007134
      dx2y2   :     0.000037
      dxy     :     0.000503
      f0      :    -0.000030  f :     0.001914
      f+1     :    -0.000082
      f-1     :    -0.000042
      f+2     :     0.000490
      f-2     :     0.001535
      f+3     :    -0.000012
      f-3     :     0.000055
  6 N s       :    -0.000654  s :    -0.000654
      pz      :    -0.006526  p :    -0.011825
      px      :    -0.002389
      py      :    -0.002910
      dz2     :     0.000063  d :     0.012325
      dxz     :     0.007239
      dyz     :     0.004812
      dx2y2   :     0.000149
      dxy     :     0.000062
      f0      :     0.000089  f :     0.001297
      f+1     :     0.000009
      f-1     :     0.000005
      f+2     :     0.000924
      f-2     :     0.000236
      f+3     :     0.000035
      f-3     :     0.000000
  7 H s       :    -0.004322  s :    -0.004322
      pz      :     0.010015  p :     0.011237
      px      :     0.000366
      py      :     0.000857
      dz2     :     0.000011  d :     0.002761
      dxz     :     0.000599
      dyz     :     0.001917
      dx2y2   :     0.000106
      dxy     :     0.000129
  8 H s       :     0.001139  s :     0.001139
      pz      :    -0.004100  p :    -0.004986
      px      :    -0.000412
      py      :    -0.000473
      dz2     :    -0.000005  d :    -0.001107
      dxz     :    -0.000253
      dyz     :    -0.000667
      dx2y2   :    -0.000113
      dxy     :    -0.000069
  9 H s       :    -0.004702  s :    -0.004702
      pz      :     0.012093  p :     0.013579
      px      :     0.001334
      py      :     0.000152
      dz2     :     0.000010  d :     0.003143
      dxz     :     0.002844
      dyz     :    -0.000001
      dx2y2   :     0.000170
      dxy     :     0.000119
 10 H s       :    -0.002276  s :    -0.002276
      pz      :     0.004993  p :     0.005476
      px      :     0.000056
      py      :     0.000428
      dz2     :     0.000005  d :     0.001338
      dxz     :     0.000118
      dyz     :     0.001128
      dx2y2   :     0.000049
      dxy     :     0.000038


                      *****************************
                      * MAYER POPULATION ANALYSIS *
                      *****************************

  NA   - Mulliken gross atomic population
  ZA   - Total nuclear charge
  QA   - Mulliken gross atomic charge
  VA   - Mayer's total valence
  BVA  - Mayer's bonded valence
  FA   - Mayer's free valence

  ATOM       NA         ZA         QA         VA         BVA        FA
  0 Br    34.6931    35.0000     0.3069     1.7142     1.5895     0.1248
  1 C      5.8653     6.0000     0.1347     4.1522     4.1273     0.0249
  2 C      6.0271     6.0000    -0.0271     3.8665     3.8125     0.0539
  3 C      6.0667     6.0000    -0.0667     3.9211     3.9118     0.0093
  4 C      5.9980     6.0000     0.0020     3.8363     3.7639     0.0724
  5 C      5.9158     6.0000     0.0842     3.9507     3.9352     0.0156
  6 N      7.1786     7.0000    -0.1786     3.0544     3.0538     0.0006
  7 H      0.8112     1.0000     0.1888     0.9785     0.9785     0.0000
  8 H      0.8174     1.0000     0.1826     0.9868     0.9868     0.0000
  9 H      0.8078     1.0000     0.1922     0.9794     0.9794     0.0000
 10 H      0.8189     1.0000     0.1811     0.9796     0.9796     0.0000

  Mayer bond orders larger than 0.100000
B(  0-Br,  1-C ) :   1.3599 B(  1-C ,  2-C ) :   1.2229 B(  1-C ,  6-N ) :   1.4112 
B(  2-C ,  3-C ) :   1.4306 B(  2-C ,  7-H ) :   0.9386 B(  3-C ,  4-C ) :   1.3905 
B(  3-C ,  8-H ) :   0.9491 B(  4-C ,  5-C ) :   1.2349 B(  4-C ,  9-H ) :   0.9455 
B(  5-C ,  6-N ) :   1.5242 B(  5-C , 10-H ) :   0.9672 


------------------
HIRSHFELD ANALYSIS
------------------

Total integrated alpha density =     38.000021061
Total integrated beta density  =     37.000022099

  ATOM     CHARGE      SPIN    
   0 Br   0.266289    0.334468
   1 C    0.157359    0.139861
   2 C    0.064186    0.194393
   3 C    0.038138   -0.037573
   4 C    0.087316    0.224372
   5 C    0.142356    0.118609
   6 N   -0.128696    0.004593
   7 H    0.090723    0.008062
   8 H    0.089011   -0.003621
   9 H    0.098699    0.011714
  10 H    0.094576    0.005122

  TOTAL   0.999957    0.999999

-------
TIMINGS
-------

Total SCF time: 0 days 0 hours 0 min 25 sec 

Total time                  ....      25.834 sec
Sum of individual times     ....      25.262 sec  ( 97.8%)

Fock matrix formation       ....      23.144 sec  ( 89.6%)
  Split-RI-J                ....       1.343 sec  (  5.8% of F)
  Chain of spheres X        ....      15.363 sec  ( 66.4% of F)
  XC integration            ....       6.191 sec  ( 26.8% of F)
    Basis function eval.    ....       0.399 sec  (  6.4% of XC)
    Density eval.           ....       1.828 sec  ( 29.5% of XC)
    XC-Functional eval.     ....       0.255 sec  (  4.1% of XC)
    XC-Potential eval.      ....       3.009 sec  ( 48.6% of XC)
Diagonalization             ....       0.674 sec  (  2.6%)
Density matrix formation    ....       0.032 sec  (  0.1%)
Population analysis         ....       0.405 sec  (  1.6%)
Initial guess               ....       0.077 sec  (  0.3%)
Orbital Transformation      ....       0.000 sec  (  0.0%)
Orbital Orthonormalization  ....       0.000 sec  (  0.0%)
DIIS solution               ....       0.352 sec  (  1.4%)
Grid generation             ....       0.577 sec  (  2.2%)

Maximum memory used throughout the entire SCF-calculation: 78.2 MB

-------------------------   --------------------
FINAL SINGLE POINT ENERGY     -2821.352150940166
-------------------------   --------------------


                            ***************************************
                            *     ORCA property calculations      *
                            ***************************************

                                    ---------------------
                                    Active property flags
                                    ---------------------
   (+) Dipole Moment


------------------------------------------------------------------------------
                       ORCA ELECTRIC PROPERTIES CALCULATION
------------------------------------------------------------------------------

Dipole Moment Calculation                       ... on
Quadrupole Moment Calculation                   ... off
Polarizability Calculation                      ... off
GBWName                                         ... arbr_14_r2scan3c_wB97MV_ox.gbw
Electron density                                ... arbr_14_r2scan3c_wB97MV_ox.scfp
The origin for moment calculation is the CENTER OF MASS  = ( 0.320701, -0.023427 -0.000006)

-------------
DIPOLE MOMENT
-------------
                                X             Y             Z
Electronic contribution:     21.89231      -1.01520      -0.00001
Nuclear contribution   :    -24.37310       1.78073       0.00002
                        -----------------------------------------
Total Dipole Moment    :     -2.48080       0.76552       0.00001
                        -----------------------------------------
Magnitude (a.u.)       :      2.59622
Magnitude (Debye)      :      6.59908



--------------------
Rotational spectrum 
--------------------
 
Rotational constants in cm-1:     0.198373     0.034075     0.029080 
Rotational constants in MHz :  5947.064147  1021.547128   871.795837 

 Dipole components along the rotational axes: 
x,y,z [a.u.] :     2.479867     0.768531     0.000010 
x,y,z [Debye]:     6.303321     1.953450     0.000025 

 

Timings for individual modules:

Sum of individual times         ...       26.551 sec (=   0.443 min)
GTO integral calculation        ...        0.483 sec (=   0.008 min)   1.8 %
SCF iterations                  ...       26.068 sec (=   0.434 min)  98.2 %
                             ****ORCA TERMINATED NORMALLY****
TOTAL RUN TIME: 0 days 0 hours 0 minutes 26 seconds 942 msec
