
                                 *****************
                                 * O   R   C   A *
                                 *****************

                                            #,                                       
                                            ###                                      
                                            ####                                     
                                            #####                                    
                                            ######                                   
                                           ########,                                 
                                     ,,################,,,,,                         
                               ,,#################################,,                 
                          ,,##########################################,,             
                       ,#########################################, ''#####,          
                    ,#############################################,,   '####,        
                  ,##################################################,,,,####,       
                ,###########''''           ''''###############################       
              ,#####''   ,,,,##########,,,,          '''####'''          '####       
            ,##' ,,,,###########################,,,                        '##       
           ' ,,###''''                  '''############,,,                           
         ,,##''                                '''############,,,,        ,,,,,,###''
      ,#''                                            '''#######################'''  
     '                                                          ''''####''''         
             ,#######,   #######,   ,#######,      ##                                
            ,#'     '#,  ##    ##  ,#'     '#,    #''#        ######   ,####,        
            ##       ##  ##   ,#'  ##            #'  '#       #        #'  '#        
            ##       ##  #######   ##           ,######,      #####,   #    #        
            '#,     ,#'  ##    ##  '#,     ,#' ,#      #,         ##   #,  ,#        
             '#######'   ##     ##  '#######'  #'      '#     #####' # '####'        



                  #######################################################
                  #                        -***-                        #
                  #          Department of theory and spectroscopy      #
                  #    Directorship and core code : Frank Neese         #
                  #        Max Planck Institute fuer Kohlenforschung    #
                  #                Kaiser Wilhelm Platz 1               #
                  #                 D-45470 Muelheim/Ruhr               #
                  #                      Germany                        #
                  #                                                     #
                  #                  All rights reserved                #
                  #                        -***-                        #
                  #######################################################


                         Program Version 5.0.4 -  RELEASE  -


 With contributions from (in alphabetic order):
   Daniel Aravena         : Magnetic Suceptibility
   Michael Atanasov       : Ab Initio Ligand Field Theory (pilot matlab implementation)
   Alexander A. Auer      : GIAO ZORA, VPT2 properties, NMR spectrum
   Ute Becker             : Parallelization
   Giovanni Bistoni       : ED, misc. LED, open-shell LED, HFLD
   Martin Brehm           : Molecular dynamics
   Dmytro Bykov           : SCF Hessian
   Vijay G. Chilkuri      : MRCI spin determinant printing, contributions to CSF-ICE
   Dipayan Datta          : RHF DLPNO-CCSD density
   Achintya Kumar Dutta   : EOM-CC, STEOM-CC
   Dmitry Ganyushin       : Spin-Orbit,Spin-Spin,Magnetic field MRCI
   Miquel Garcia          : C-PCM and meta-GGA Hessian, CC/C-PCM, Gaussian charge scheme
   Yang Guo               : DLPNO-NEVPT2, F12-NEVPT2, CIM, IAO-localization
   Andreas Hansen         : Spin unrestricted coupled pair/coupled cluster methods
   Benjamin Helmich-Paris : MC-RPA, TRAH-SCF, COSX integrals
   Lee Huntington         : MR-EOM, pCC
   Robert Izsak           : Overlap fitted RIJCOSX, COSX-SCS-MP3, EOM
   Marcus Kettner         : VPT2
   Christian Kollmar      : KDIIS, OOCD, Brueckner-CCSD(T), CCSD density, CASPT2, CASPT2-K
   Simone Kossmann        : Meta GGA functionals, TD-DFT gradient, OOMP2, MP2 Hessian
   Martin Krupicka        : Initial AUTO-CI
   Lucas Lang             : DCDCAS
   Marvin Lechner         : AUTO-CI (C++ implementation), FIC-MRCC
   Dagmar Lenk            : GEPOL surface, SMD
   Dimitrios Liakos       : Extrapolation schemes; Compound Job, initial MDCI parallelization
   Dimitrios Manganas     : Further ROCIS development; embedding schemes
   Dimitrios Pantazis     : SARC Basis sets
   Anastasios Papadopoulos: AUTO-CI, single reference methods and gradients
   Taras Petrenko         : DFT Hessian,TD-DFT gradient, ASA, ECA, R-Raman, ABS, FL, XAS/XES, NRVS
   Peter Pinski           : DLPNO-MP2, DLPNO-MP2 Gradient
   Christoph Reimann      : Effective Core Potentials
   Marius Retegan         : Local ZFS, SOC
   Christoph Riplinger    : Optimizer, TS searches, QM/MM, DLPNO-CCSD(T), (RO)-DLPNO pert. Triples
   Tobias Risthaus        : Range-separated hybrids, TD-DFT gradient, RPA, STAB
   Michael Roemelt        : Original ROCIS implementation
   Masaaki Saitow         : Open-shell DLPNO-CCSD energy and density
   Barbara Sandhoefer     : DKH picture change effects
   Avijit Sen             : IP-ROCIS
   Kantharuban Sivalingam : CASSCF convergence, NEVPT2, FIC-MRCI
   Bernardo de Souza      : ESD, SOC TD-DFT
   Georgi Stoychev        : AutoAux, RI-MP2 NMR, DLPNO-MP2 response
   Willem Van den Heuvel  : Paramagnetic NMR
   Boris Wezisla          : Elementary symmetry handling
   Frank Wennmohs         : Technical directorship


 We gratefully acknowledge several colleagues who have allowed us to
 interface, adapt or use parts of their codes:
   Stefan Grimme, W. Hujo, H. Kruse, P. Pracht,  : VdW corrections, initial TS optimization,
                  C. Bannwarth, S. Ehlert          DFT functionals, gCP, sTDA/sTD-DF
   Ed Valeev, F. Pavosevic, A. Kumar             : LibInt (2-el integral package), F12 methods
   Garnet Chan, S. Sharma, J. Yang, R. Olivares  : DMRG
   Ulf Ekstrom                                   : XCFun DFT Library
   Mihaly Kallay                                 : mrcc  (arbitrary order and MRCC methods)
   Jiri Pittner, Ondrej Demel                    : Mk-CCSD
   Frank Weinhold                                : gennbo (NPA and NBO analysis)
   Christopher J. Cramer and Donald G. Truhlar   : smd solvation model
   Lars Goerigk                                  : TD-DFT with DH, B97 family of functionals
   V. Asgeirsson, H. Jonsson                     : NEB implementation
   FAccTs GmbH                                   : IRC, NEB, NEB-TS, DLPNO-Multilevel, CI-OPT
                                                   MM, QMMM, 2- and 3-layer-ONIOM, Crystal-QMMM,
                                                   LR-CPCM, SF, NACMEs, symmetry and pop. for TD-DFT,
                                                   nearIR, NL-DFT gradient (VV10), updates on ESD,
                                                   ML-optimized integration grids
   S Lehtola, MJT Oliveira, MAL Marques          : LibXC Library
   Liviu Ungur et al                             : ANISO software


 Your calculation uses the libint2 library for the computation of 2-el integrals
 For citations please refer to: http://libint.valeyev.net

 Your ORCA version has been built with support for libXC version: 5.1.0
 For citations please refer to: https://tddft.org/programs/libxc/

 This ORCA versions uses:
   CBLAS   interface :  Fast vector & matrix operations
   LAPACKE interface :  Fast linear algebra routines
   SCALAPACK package :  Parallel linear algebra routines
   Shared memory     :  Shared parallel matrices
   BLAS/LAPACK       :  OpenBLAS 0.3.15  USE64BITINT DYNAMIC_ARCH NO_AFFINITY SkylakeX SINGLE_THREADED
        Core in use  :  SkylakeX
   Copyright (c) 2011-2014, The OpenBLAS Project


Your calculation utilizes the DFT-NL dispersion correction.
Cite in your paper:
Vydrov, O. A.; Van Voorhis, T. J. Chem. Phys. 2010, 133, 244103
Hujo, W.; Grimme, S. J. Chem. Theory Comput. 2011, 7, 3866 
   

================================================================================

----- Orbital basis set information -----
Your calculation utilizes the basis: def2-TZVPP
   F. Weigend and R. Ahlrichs, Phys. Chem. Chem. Phys. 7, 3297 (2005).

----- AuxJ basis set information -----
Your calculation utilizes the auxiliary basis: def2/J
   F. Weigend, Phys. Chem. Chem. Phys. 8, 1057 (2006).

================================================================================
                                        WARNINGS
                       Please study these warnings very carefully!
================================================================================

Using LibXC functional ID 531 : wB97M-V exchange-correlation functional
[ 1]  N. Mardirossian and M. Head-Gordon, J. Chem. Phys. 144, 214110 (2016)
Using LibXC functional ID 531 : wB97M-V exchange-correlation functional
[ 1]  N. Mardirossian and M. Head-Gordon, J. Chem. Phys. 144, 214110 (2016)

WARNING: B97M-V or wB97M-V functional requested.
  ===> : libXC variant has now been activated.
         Any manually given DFX/HFX/RangeSep scaling parameters are IGNORED!

Your calculation utilizes LibXC
 by S Lehtola, C Steigemann, MJT Oliveira & MAL Marques
Please cite in your paper:
 S Lehtola, C Steigemann, MJT Oliveira & MAL Marques, SoftwareX, 7, (2018), 1.
   


WARNING: your system is open-shell and RHF/RKS was chosen
  ===> : WILL SWITCH to UHF/UKS


INFO   : the flag for use of the SHARK integral package has been found!

================================================================================
                                       INPUT FILE
================================================================================
NAME = arbr_24_r2scan3c_wB97MV_ox.inp
|  1> %PAL NPROCS 16 END
|  2> %maxcore 4000
|  3> # arbr_24_r2scan3c.out
|  4> ! wB97m-v def2-TZVPP def2/J RIJCOSX Hirshfeld
|  5> * xyz 1 2
|  6>   Br        2.60262        -0.18003        -0.00000
|  7>    C        0.73555         0.09861         0.00001
|  8>    C        0.26521         1.45026         0.00001
|  9>    C       -1.06148         1.69326         0.00001
| 10>    N       -1.93300         0.63449         0.00000
| 11>    C       -3.29667         0.54280        -0.00006
| 12>    N       -3.65659        -0.70940         0.00006
| 13>    N       -2.54669        -1.48854        -0.00002
| 14>    C       -1.50819        -0.68381        -0.00000
| 15>    C       -0.11395        -0.95490        -0.00000
| 16>    H        0.96691         2.26982         0.00001
| 17>    H       -1.49523         2.68235         0.00000
| 18>    H       -3.95162         1.39727        -0.00007
| 19>    H        0.21949        -1.98162        -0.00001
| 20> *
| 21> 
| 22>                          ****END OF INPUT****
================================================================================

                       ****************************
                       * Single Point Calculation *
                       ****************************

---------------------------------
CARTESIAN COORDINATES (ANGSTROEM)
---------------------------------
  Br     2.602620   -0.180030   -0.000000
  C      0.735550    0.098610    0.000010
  C      0.265210    1.450260    0.000010
  C     -1.061480    1.693260    0.000010
  N     -1.933000    0.634490    0.000000
  C     -3.296670    0.542800   -0.000060
  N     -3.656590   -0.709400    0.000060
  N     -2.546690   -1.488540   -0.000020
  C     -1.508190   -0.683810   -0.000000
  C     -0.113950   -0.954900   -0.000000
  H      0.966910    2.269820    0.000010
  H     -1.495230    2.682350    0.000000
  H     -3.951620    1.397270   -0.000070
  H      0.219490   -1.981620   -0.000010

----------------------------
CARTESIAN COORDINATES (A.U.)
----------------------------
  NO LB      ZA    FRAG     MASS         X           Y           Z
   0 Br   35.0000    0    79.900    4.918239   -0.340207   -0.000000
   1 C     6.0000    0    12.011    1.389988    0.186346    0.000019
   2 C     6.0000    0    12.011    0.501174    2.740594    0.000019
   3 C     6.0000    0    12.011   -2.005906    3.199798    0.000019
   4 N     7.0000    0    14.007   -3.652841    1.199012    0.000000
   5 C     6.0000    0    12.011   -6.229803    1.025743   -0.000113
   6 N     7.0000    0    14.007   -6.909954   -1.340572    0.000113
   7 N     7.0000    0    14.007   -4.812547   -2.812933   -0.000038
   8 C     6.0000    0    12.011   -2.850066   -1.292214   -0.000000
   9 C     6.0000    0    12.011   -0.215334   -1.804499   -0.000000
  10 H     1.0000    0     1.008    1.827195    4.289338    0.000019
  11 H     1.0000    0     1.008   -2.825575    5.068907    0.000000
  12 H     1.0000    0     1.008   -7.467480    2.640458   -0.000132
  13 H     1.0000    0     1.008    0.414776   -3.744719   -0.000019

--------------------------------
INTERNAL COORDINATES (ANGSTROEM)
--------------------------------
 Br     0   0   0     0.000000000000     0.00000000     0.00000000
 C      1   0   0     1.887747502872     0.00000000     0.00000000
 C      2   1   0     1.431145498578   117.67473192     0.00000000
 C      3   2   1     1.348760674138   119.56599723   179.99965728
 N      4   3   2     1.371328196822   119.07989960     0.00000000
 C      5   4   3     1.366749036436   133.30593853   180.00329501
 N      6   5   4     1.302899558984   109.88289008   180.00472463
 N      7   6   5     1.356074170538   109.03227046     0.00000000
 C      8   7   6     1.313800830910   107.15950504     0.00000000
 C      2   1   3     1.353341631001   120.39291300   179.99917199
 H      3   2   1     1.078916810324   120.24355168     0.00000000
 H      4   3   2     1.080017634439   124.05849830   180.00064035
 H      6   5   4     1.076605073135   123.62346662     0.00000000
 H     10   2   1     1.079507383995   123.12711333     0.00000000

---------------------------
INTERNAL COORDINATES (A.U.)
---------------------------
 Br     0   0   0     0.000000000000     0.00000000     0.00000000
 C      1   0   0     3.567325790422     0.00000000     0.00000000
 C      2   1   0     2.704473050107   117.67473192     0.00000000
 C      3   2   1     2.548788294323   119.56599723   179.99965728
 N      4   3   2     2.591434731718   119.07989960     0.00000000
 C      5   4   3     2.582781372666   133.30593853   180.00329501
 N      6   5   4     2.462123346486   109.88289008   180.00472463
 N      7   6   5     2.562608799601   109.03227046     0.00000000
 C      8   7   6     2.482723764938   107.15950504     0.00000000
 C      2   1   3     2.557445048226   120.39291300   179.99917199
 H      3   2   1     2.038857292796   120.24355168     0.00000000
 H      4   3   2     2.040937548896   124.05849830   180.00064035
 H      6   5   4     2.034488742615   123.62346662     0.00000000
 H     10   2   1     2.039973315297   123.12711333     0.00000000

---------------------
BASIS SET INFORMATION
---------------------
There are 4 groups of distinct atoms

 Group   1 Type Br  : 17s13p8d1f contracted to 6s5p4d1f pattern {842111/64111/5111/1}
 Group   2 Type C   : 11s6p2d1f contracted to 5s3p2d1f pattern {62111/411/11/1}
 Group   3 Type N   : 11s6p2d1f contracted to 5s3p2d1f pattern {62111/411/11/1}
 Group   4 Type H   : 5s2p1d contracted to 3s2p1d pattern {311/11/1}

Atom   0Br   basis set group =>   1
Atom   1C    basis set group =>   2
Atom   2C    basis set group =>   2
Atom   3C    basis set group =>   2
Atom   4N    basis set group =>   3
Atom   5C    basis set group =>   2
Atom   6N    basis set group =>   3
Atom   7N    basis set group =>   3
Atom   8C    basis set group =>   2
Atom   9C    basis set group =>   2
Atom  10H    basis set group =>   4
Atom  11H    basis set group =>   4
Atom  12H    basis set group =>   4
Atom  13H    basis set group =>   4
---------------------------------
AUXILIARY/J BASIS SET INFORMATION
---------------------------------
There are 4 groups of distinct atoms

 Group   1 Type Br  : 19s5p5d3f1g contracted to 8s4p3d2f1g pattern {121111111/2111/311/21/1}
 Group   2 Type C   : 12s5p4d2f1g contracted to 6s4p3d1f1g pattern {711111/2111/211/2/1}
 Group   3 Type N   : 12s5p4d2f1g contracted to 6s4p3d1f1g pattern {711111/2111/211/2/1}
 Group   4 Type H   : 5s2p1d contracted to 3s1p1d pattern {311/2/1}

Atom   0Br   basis set group =>   1
Atom   1C    basis set group =>   2
Atom   2C    basis set group =>   2
Atom   3C    basis set group =>   2
Atom   4N    basis set group =>   3
Atom   5C    basis set group =>   2
Atom   6N    basis set group =>   3
Atom   7N    basis set group =>   3
Atom   8C    basis set group =>   2
Atom   9C    basis set group =>   2
Atom  10H    basis set group =>   4
Atom  11H    basis set group =>   4
Atom  12H    basis set group =>   4
Atom  13H    basis set group =>   4


           ************************************************************
           *        Program running with 16 parallel MPI-processes    *
           *              working on a common directory               *
           ************************************************************
------------------------------------------------------------------------------
                           ORCA GTO INTEGRAL CALCULATION
                           -- RI-GTO INTEGRALS CHOSEN --
------------------------------------------------------------------------------
------------------------------------------------------------------------------
                   ___                                                        
                  /   \      - P O W E R E D   B Y -                         
                 /     \                                                     
                 |  |  |   _    _      __       _____    __    __             
                 |  |  |  | |  | |    /  \     |  _  \  |  |  /  |          
                  \  \/   | |  | |   /    \    | | | |  |  | /  /          
                 / \  \   | |__| |  /  /\  \   | |_| |  |  |/  /          
                |  |  |   |  __  | /  /__\  \  |    /   |      \           
                |  |  |   | |  | | |   __   |  |    \   |  |\   \          
                \     /   | |  | | |  |  |  |  | |\  \  |  | \   \       
                 \___/    |_|  |_| |__|  |__|  |_| \__\ |__|  \__/        
                                                                              
                      - O R C A' S   B I G   F R I E N D -                    
                                      &                                       
                       - I N T E G R A L  F E E D E R -                       
                                                                              
 v1 FN, 2020, v2 2021                                                         
------------------------------------------------------------------------------


Reading SHARK input file arbr_24_r2scan3c_wB97MV_ox.SHARKINP.tmp ... ok
----------------------
SHARK INTEGRAL PACKAGE
----------------------

Number of atoms                             ...     14
Number of basis functions                   ...    383
Number of shells                            ...    139
Maximum angular momentum                    ...      3
Integral batch strategy                     ... SHARK/LIBINT Hybrid
RI-J (if used) integral strategy            ... SPLIT-RIJ (Revised 2003 algorithm where possible)
Printlevel                                  ...      1
Contraction scheme used                     ... SEGMENTED contraction
Coulomb Range Separation                    ... NOT USED
Exchange Range Separation                   ... Long Range
   Mu parameter                             ...  0.300000
   Scaling (regular/separated)              ...  0.150000  0.850000
Finite Nucleus Model                        ... NOT USED
Auxiliary Coulomb fitting basis             ... AVAILABLE
   # of basis functions in Aux-J            ...    543
   # of shells in Aux-J                     ...    173
   Maximum angular momentum in Aux-J        ...      4
Auxiliary J/K fitting basis                 ... NOT available
Auxiliary Correlation fitting basis         ... NOT available
Auxiliary 'external' fitting basis          ... NOT available
Integral threshold                          ...     1.000000e-10
Primitive cut-off                           ...     1.000000e-11
Primitive pair pre-selection threshold      ...     1.000000e-11

Calculating pre-screening integrals         ... done (  0.0 sec) Dimension = 139
Organizing shell pair data                  ... done (  0.1 sec)
Shell pair information
Total number of shell pairs                 ...      9730
Shell pairs after pre-screening             ...      8445
Total number of primitive shell pairs       ...     31902
Primitive shell pairs kept                  ...     19749
          la=0 lb=0:   1655 shell pairs
          la=1 lb=0:   2225 shell pairs
          la=1 lb=1:    759 shell pairs
          la=2 lb=0:   1378 shell pairs
          la=2 lb=1:    932 shell pairs
          la=2 lb=2:    304 shell pairs
          la=3 lb=0:    544 shell pairs
          la=3 lb=1:    363 shell pairs
          la=3 lb=2:    233 shell pairs
          la=3 lb=3:     52 shell pairs

Calculating one electron integrals          ... done (  0.0 sec)
Calculating RI/J V-Matrix + Cholesky decomp.... done (  0.0 sec)
Calculating Nuclear repulsion               ... done (  0.0 sec) ENN=    702.605231014658 Eh

SHARK setup successfully completed in   0.3 seconds

Maximum memory used throughout the entire GTOINT-calculation: 25.6 MB


           ************************************************************
           *        Program running with 16 parallel MPI-processes    *
           *              working on a common directory               *
           ************************************************************
-------------------------------------------------------------------------------
                                 ORCA SCF
-------------------------------------------------------------------------------

------------
SCF SETTINGS
------------
Hamiltonian:
 Density Functional     Method          .... DFT(GTOs)
  Functional kind                       .... Exchange-Correlation
  Functional name                       .... wB97M-V exchange-correlation functional
  Functional family                     .... Hybrid MGGA
  Functional refs                              
    [ 0] N. Mardirossian and M. Head-Gordon, J. Chem. Phys. 144, 214110 (2016)
  Fraction of HF Exchange (short range) .... 0.1500
  Fraction of HF Exchange (long range)  .... 1.0000
  Range separation parameter mu         .... 0.3000
  Functional external parameters         .... 0
   Density functional embedding theory  .... OFF
 Long-range corrected/Screened/Range-Separated Hybrid DFT is turned on
   Amount of maximum screened exact exchange              ....  0.850000
   Range separation parameter mu (erf(mu*r12)/r12)        ....  0.300000
   NL short-range parameter             ....  6.000000
   NL long-range parameter              ....  0.010000
 RI-approximation to the Coulomb term is turned on
   Number of AuxJ basis functions       .... 543
   RIJ-COSX (HFX calculated with COS-X)).... on


General Settings:
 Integral files         IntName         .... arbr_24_r2scan3c_wB97MV_ox
 Hartree-Fock type      HFTyp           .... UHF
 Total Charge           Charge          ....    1
 Multiplicity           Mult            ....    2
 Number of Electrons    NEL             ....   95
 Basis Dimension        Dim             ....  383
 Nuclear Repulsion      ENuc            ....    702.6052310147 Eh

Convergence Acceleration:
 DIIS                   CNVDIIS         .... on
   Start iteration      DIISMaxIt       ....    12
   Startup error        DIISStart       ....  0.200000
   # of expansion vecs  DIISMaxEq       ....     5
   Bias factor          DIISBfac        ....   1.050
   Max. coefficient     DIISMaxC        ....  10.000
 Trust-Rad. Augm. Hess. CNVTRAH         .... auto
   Auto Start mean grad. ratio tolernc. ....  1.125000
   Auto Start start iteration           ....    20
   Auto Start num. interpolation iter.  ....    10
   Max. Number of Micro iterations      ....    16
   Max. Number of Macro iterations      .... Maxiter - #DIIS iter
   Number of Davidson start vectors     ....     2
   Converg. threshold I  (grad. norm)   ....   5.000e-05
   Converg. threshold II (energy diff.) ....   1.000e-06
   Grad. Scal. Fac. for Micro threshold ....   0.100
   Minimum threshold for Micro iter.    ....   0.010
   NR start threshold (gradient norm)   ....   0.001
   Initial trust radius                 ....   0.400
   Minimum AH scaling param. (alpha)    ....   1.000
   Maximum AH scaling param. (alpha)    .... 1000.000
   Orbital update algorithm             .... Taylor
   White noise on init. David. guess    .... on
   Maximum white noise                  ....   0.010
   Quad. conv. algorithm                .... NR
 SOSCF                  CNVSOSCF        .... off
 Level Shifting         CNVShift        .... on
   Level shift para.    LevelShift      ....    0.2500
   Turn off err/grad.   ShiftErr        ....    0.0010
 Zerner damping         CNVZerner       .... off
 Static damping         CNVDamp         .... on
   Fraction old density DampFac         ....    0.7000
   Max. Damping (<1)    DampMax         ....    0.9800
   Min. Damping (>=0)   DampMin         ....    0.0000
   Turn off err/grad.   DampErr         ....    0.1000
 Fernandez-Rico         CNVRico         .... off

SCF Procedure:
 Maximum # iterations   MaxIter         ....   125
 SCF integral mode      SCFMode         .... Direct
   Integral package                     .... SHARK and LIBINT hybrid scheme
 Reset frequency        DirectResetFreq ....    20
 Integral Threshold     Thresh          ....  1.000e-10 Eh
 Primitive CutOff       TCut            ....  1.000e-11 Eh

Convergence Tolerance:
 Convergence Check Mode ConvCheckMode   .... Total+1el-Energy
 Convergence forced     ConvForced      .... 0
 Energy Change          TolE            ....  1.000e-06 Eh
 1-El. energy change                    ....  1.000e-03 Eh
 DIIS Error             TolErr          ....  1.000e-06


Diagonalization of the overlap matrix:
Smallest eigenvalue                        ... 3.012e-05
Time for diagonalization                   ...    0.017 sec
Threshold for overlap eigenvalues          ... 1.000e-08
Number of eigenvalues below threshold      ... 0
Time for construction of square roots      ...    0.015 sec
Total time needed                          ...    0.032 sec

Time for model grid setup =    0.066 sec

------------------------------
INITIAL GUESS: MODEL POTENTIAL
------------------------------
Loading Hartree-Fock densities                     ... done
Calculating cut-offs                               ... done
Initializing the effective Hamiltonian             ... done
Setting up the integral package (SHARK)            ... done
Starting the Coulomb interaction                   ... done (   0.0 sec)
Reading the grid                                   ... done
Mapping shells                                     ... done
Starting the XC term evaluation                    ... done (   0.0 sec)
  promolecular density results
     # of electrons  =     95.995133832
     EX              =   -140.814629477
     EC              =     -3.791496194
     EX+EC           =   -144.606125671
Transforming the Hamiltonian                       ... done (   0.0 sec)
Diagonalizing the Hamiltonian                      ... done (   0.0 sec)
Back transforming the eigenvectors                 ... done (   0.0 sec)
Now organizing SCF variables                       ... done
                      ------------------
                      INITIAL GUESS DONE (   0.2 sec)
                      ------------------
-------------------
DFT GRID GENERATION
-------------------

General Integration Accuracy     IntAcc      ... 4.388
Radial Grid Type                 RadialGrid  ... OptM3 with GC (2021)
Angular Grid (max. ang.)         AngularGrid ... 4 (Lebedev-302)
Angular grid pruning method      GridPruning ... 4 (adaptive)
Weight generation scheme         WeightScheme... Becke
Basis function cutoff            BFCut       ... 1.0000e-10
Integration weight cutoff        WCut        ... 1.0000e-14
Angular grids for H and He will be reduced by one unit
Partially contracted basis set               ... off
Rotationally invariant grid construction     ... off

Total number of grid points                  ...    78308
Total number of batches                      ...     1229
Average number of points per batch           ...       63
Average number of grid points per atom       ...     5593
Time for grid setup =    0.339 sec

--------------------
COSX GRID GENERATION
--------------------

GRIDX 1
-------
General Integration Accuracy     IntAcc      ... 3.816
Radial Grid Type                 RadialGrid  ... OptM3 with GC (2021)
Angular Grid (max. ang.)         AngularGrid ... 1 (Lebedev-50)
Angular grid pruning method      GridPruning ... 4 (adaptive)
Weight generation scheme         WeightScheme... Becke
Basis function cutoff            BFCut       ... 1.0000e-10
Integration weight cutoff        WCut        ... 1.0000e-14
Angular grids for H and He will be reduced by one unit
Partially contracted basis set               ... on
Rotationally invariant grid construction     ... off

Total number of grid points                  ...     9766
Total number of batches                      ...      160
Average number of points per batch           ...       61
Average number of grid points per atom       ...      698
UseSFitting                                  ... on

GRIDX 2
-------
General Integration Accuracy     IntAcc      ... 4.020
Radial Grid Type                 RadialGrid  ... OptM3 with GC (2021)
Angular Grid (max. ang.)         AngularGrid ... 2 (Lebedev-110)
Angular grid pruning method      GridPruning ... 4 (adaptive)
Weight generation scheme         WeightScheme... Becke
Basis function cutoff            BFCut       ... 1.0000e-10
Integration weight cutoff        WCut        ... 1.0000e-14
Angular grids for H and He will be reduced by one unit
Partially contracted basis set               ... on
Rotationally invariant grid construction     ... off

Total number of grid points                  ...    21933
Total number of batches                      ...      349
Average number of points per batch           ...       62
Average number of grid points per atom       ...     1567
UseSFitting                                  ... on

GRIDX 3
-------
General Integration Accuracy     IntAcc      ... 4.338
Radial Grid Type                 RadialGrid  ... OptM3 with GC (2021)
Angular Grid (max. ang.)         AngularGrid ... 3 (Lebedev-194)
Angular grid pruning method      GridPruning ... 4 (adaptive)
Weight generation scheme         WeightScheme... Becke
Basis function cutoff            BFCut       ... 1.0000e-10
Integration weight cutoff        WCut        ... 1.0000e-14
Angular grids for H and He will be reduced by one unit
Partially contracted basis set               ... on
Rotationally invariant grid construction     ... off

Total number of grid points                  ...    48577
Total number of batches                      ...      765
Average number of points per batch           ...       63
Average number of grid points per atom       ...     3470
UseSFitting                                  ... on

Time for X-Grid setup             =    0.274 sec

--------------
SCF ITERATIONS
--------------
ITER       Energy         Delta-E        Max-DP      RMS-DP      [F,P]     Damp
               ***  Starting incremental Fock matrix formation  ***
  0  -2969.1429684129   0.000000000000 0.02247815  0.00036957  0.0841613 0.7000
  1  -2969.2248946582  -0.081926245263 0.02354408  0.00029756  0.0485920 0.7000
                               ***Turning on DIIS***
  2  -2969.2667806951  -0.041886036909 0.05945863  0.00063792  0.0279029 0.0000
  3  -2969.3353914954  -0.068610800354 0.02470631  0.00026009  0.0232350 0.0000
  4  -2969.3505420563  -0.015150560886 0.00791386  0.00014121  0.0081685 0.0000
  5  -2969.3532455137  -0.002703457353 0.00779138  0.00009678  0.0073564 0.0000
  6  -2969.3552121878  -0.001966674169 0.00836508  0.00008024  0.0058833 0.0000
  7  -2969.3568058811  -0.001593693242 0.00844188  0.00007318  0.0047489 0.0000
  8  -2969.3580653870  -0.001259505932 0.00612813  0.00004555  0.0036885 0.0000
  9  -2969.3587815368  -0.000716149767 0.00547259  0.00004791  0.0027462 0.0000
 10  -2969.3593267501  -0.000545213330 0.00377710  0.00003344  0.0020997 0.0000
 11  -2969.3596458744  -0.000319124254 0.00301580  0.00002998  0.0014835 0.0000
 12  -2969.3598444455  -0.000198571175 0.00197363  0.00002112  0.0011340 0.0000
 13  -2969.3599528604  -0.000108414818 0.00301086  0.00003208  0.0008652 0.0000
               *** Restarting incremental Fock matrix formation ***
                                   *** Resetting DIIS ***
 14  -2969.3600377386  -0.000084878289 0.00042785  0.00000732  0.0004436 0.0000
 15  -2969.3600458435  -0.000008104862 0.00017122  0.00000261  0.0003876 0.0000
 16  -2969.3600498218  -0.000003978304 0.00032242  0.00000537  0.0002578 0.0000
 17  -2969.3600563450  -0.000006523234 0.00021669  0.00000390  0.0001296 0.0000
 18  -2969.3600591188  -0.000002773719 0.00014030  0.00000267  0.0000969 0.0000
 19  -2969.3600601900  -0.000001071229 0.00009861  0.00000178  0.0000610 0.0000
 20  -2969.3600606185  -0.000000428476 0.00006301  0.00000103  0.0000353 0.0000
                 **** Energy Check signals convergence ****

               *****************************************************
               *                     SUCCESS                       *
               *           SCF CONVERGED AFTER  21 CYCLES          *
               *****************************************************

Old exchange energy                            =    -34.135366482 Eh
New exchange energy                            =    -34.135377267 Eh
Exchange energy change after final integration =     -0.000010785 Eh
Total energy after final integration           =  -2969.360071557 Eh
Final COS-X integration done in                =     3.940 sec

------------------
NL GRID GENERATION
------------------

General Integration Accuracy     IntAcc      ... 4.004
Radial Grid Type                 RadialGrid  ... OptM3 with GC (2021)
Angular Grid (max. ang.)         AngularGrid ... 2 (Lebedev-110)
Angular grid pruning method      GridPruning ... 4 (adaptive)
Weight generation scheme         WeightScheme... Becke
Basis function cutoff            BFCut       ... 1.0000e-10
Integration weight cutoff        WCut        ... 1.0000e-14
Angular grids for H and He will be reduced by one unit
Partially contracted basis set               ... off
Rotationally invariant grid construction     ... off

Total number of grid points                  ...    27735
Total number of batches                      ...      439
Average number of points per batch           ...       63
Average number of grid points per atom       ...     1981
Final grid set up in    0.1 sec

-------------------------------------------------------------------------------
                    post-SCF DFT-NL dispersion correction                      
-------------------------------------------------------------------------------

SCF Energy:   -2969.360071557 
NL    Energy:  0.373022363 
SC+NL Energy: -2968.987049194 
NL done in:    0.2 sec
-------------------------------------------------------------------------------

----------------
TOTAL SCF ENERGY
----------------

Total Energy       :        -2968.98704919 Eh          -80790.24491 eV

Components:
Nuclear Repulsion  :          702.60523101 Eh           19118.86032 eV
Electronic Energy  :        -3671.59228021 Eh          -99909.10523 eV
One Electron Energy:        -5493.87945840 Eh         -149496.06030 eV
Two Electron Energy:         1822.28717819 Eh           49586.95507 eV
Max COSX asymmetry :            0.00000057 Eh               0.00002 eV

Virial components:
Potential Energy   :        -5933.99981445 Eh         -161472.34405 eV
Kinetic Energy     :         2965.01276525 Eh           80682.09914 eV
Virial Ratio       :            2.00134039


DFT components:
N(Alpha)           :       47.999979290424 electrons
N(Beta)            :       46.999972605562 electrons
N(Total)           :       94.999951895985 electrons
NL Energy, E(C,NL) :        0.373022363143 Eh       
E(XC)              :     -111.514960621169 Eh       
DFET-embed. en.    :        0.000000000000 Eh       

---------------
SCF CONVERGENCE
---------------

  Last Energy change         ...   -1.5434e-07  Tolerance :   1.0000e-06
  Last MAX-Density change    ...    0.0000e+00  Tolerance :   1.0000e-05
  Last RMS-Density change    ...    0.0000e+00  Tolerance :   1.0000e-06
  Last DIIS Error            ...    2.2727e-05  Tolerance :   1.0000e-06

             **** THE GBW FILE WAS UPDATED (arbr_24_r2scan3c_wB97MV_ox.gbw) ****
             **** DENSITY arbr_24_r2scan3c_wB97MV_ox.scfp WAS UPDATED ****
             **** ENERGY FILE WAS UPDATED (arbr_24_r2scan3c_wB97MV_ox.en.tmp) ****
----------------------
UHF SPIN CONTAMINATION
----------------------

Warning: in a DFT calculation there is little theoretical justification to 
         calculate <S**2> as in Hartree-Fock theory. We will do it anyways
         but you should keep in mind that the values have only limited relevance

Expectation value of <S**2>     :     0.780522
Ideal value S*(S+1) for S=0.5   :     0.750000
Deviation                       :     0.030522

             **** THE GBW FILE WAS UPDATED (arbr_24_r2scan3c_wB97MV_ox.gbw) ****
             **** DENSITY arbr_24_r2scan3c_wB97MV_ox.scfp WAS UPDATED ****
----------------
ORBITAL ENERGIES
----------------
                 SPIN UP ORBITALS
  NO   OCC          E(Eh)            E(eV) 
   0   1.0000    -483.698062    -13162.0934 
   1   1.0000     -63.002391     -1714.3822 
   2   1.0000     -56.689145     -1542.5900 
   3   1.0000     -56.686999     -1542.5317 
   4   1.0000     -56.686544     -1542.5193 
   5   1.0000     -14.807340      -402.9282 
   6   1.0000     -14.757899      -401.5829 
   7   1.0000     -14.729559      -400.8117 
   8   1.0000     -10.643021      -289.6113 
   9   1.0000     -10.639761      -289.5226 
  10   1.0000     -10.635856      -289.4163 
  11   1.0000     -10.635533      -289.4076 
  12   1.0000     -10.598710      -288.4056 
  13   1.0000     -10.578512      -287.8559 
  14   1.0000      -9.085261      -247.2225 
  15   1.0000      -6.871959      -186.9955 
  16   1.0000      -6.861025      -186.6980 
  17   1.0000      -6.858587      -186.6316 
  18   1.0000      -2.952856       -80.3513 
  19   1.0000      -2.950074       -80.2756 
  20   1.0000      -2.948317       -80.2278 
  21   1.0000      -2.939421       -79.9857 
  22   1.0000      -2.939333       -79.9833 
  23   1.0000      -1.430142       -38.9161 
  24   1.0000      -1.304322       -35.4924 
  25   1.0000      -1.210333       -32.9348 
  26   1.0000      -1.158023       -31.5114 
  27   1.0000      -1.121336       -30.5131 
  28   1.0000      -1.079381       -29.3715 
  29   1.0000      -0.998352       -27.1665 
  30   1.0000      -0.969549       -26.3828 
  31   1.0000      -0.950697       -25.8698 
  32   1.0000      -0.877752       -23.8848 
  33   1.0000      -0.834251       -22.7011 
  34   1.0000      -0.821152       -22.3447 
  35   1.0000      -0.809371       -22.0241 
  36   1.0000      -0.791125       -21.5276 
  37   1.0000      -0.768108       -20.9013 
  38   1.0000      -0.711749       -19.3677 
  39   1.0000      -0.706124       -19.2146 
  40   1.0000      -0.676388       -18.4054 
  41   1.0000      -0.672338       -18.2952 
  42   1.0000      -0.636505       -17.3202 
  43   1.0000      -0.597967       -16.2715 
  44   1.0000      -0.573846       -15.6151 
  45   1.0000      -0.568258       -15.4631 
  46   1.0000      -0.562439       -15.3047 
  47   1.0000      -0.533102       -14.5064 
  48   0.0000      -0.187684        -5.1071 
  49   0.0000      -0.141418        -3.8482 
  50   0.0000      -0.104139        -2.8338 
  51   0.0000      -0.085703        -2.3321 
  52   0.0000      -0.053030        -1.4430 
  53   0.0000      -0.035573        -0.9680 
  54   0.0000      -0.020970        -0.5706 
  55   0.0000      -0.005063        -0.1378 
  56   0.0000      -0.000237        -0.0065 
  57   0.0000       0.005264         0.1433 
  58   0.0000       0.024589         0.6691 
  59   0.0000       0.038470         1.0468 
  60   0.0000       0.050863         1.3840 
  61   0.0000       0.066067         1.7978 
  62   0.0000       0.071175         1.9368 
  63   0.0000       0.088167         2.3991 
  64   0.0000       0.105366         2.8672 
  65   0.0000       0.108642         2.9563 
  66   0.0000       0.119498         3.2517 
  67   0.0000       0.119607         3.2547 
  68   0.0000       0.128564         3.4984 
  69   0.0000       0.137525         3.7422 
  70   0.0000       0.162504         4.4220 
  71   0.0000       0.163091         4.4379 
  72   0.0000       0.170668         4.6441 
  73   0.0000       0.172395         4.6911 
  74   0.0000       0.179945         4.8965 
  75   0.0000       0.196042         5.3346 
  76   0.0000       0.209004         5.6873 
  77   0.0000       0.212494         5.7823 
  78   0.0000       0.232980         6.3397 
  79   0.0000       0.244000         6.6396 
  80   0.0000       0.253820         6.9068 
  81   0.0000       0.264111         7.1868 
  82   0.0000       0.266991         7.2652 
  83   0.0000       0.271130         7.3778 
  84   0.0000       0.286652         7.8002 
  85   0.0000       0.288809         7.8589 
  86   0.0000       0.298373         8.1191 
  87   0.0000       0.300758         8.1841 
  88   0.0000       0.319547         8.6953 
  89   0.0000       0.340805         9.2738 
  90   0.0000       0.345088         9.3903 
  91   0.0000       0.349060         9.4984 
  92   0.0000       0.349886         9.5209 
  93   0.0000       0.384661        10.4671 
  94   0.0000       0.406081        11.0500 
  95   0.0000       0.406935        11.0733 
  96   0.0000       0.411225        11.1900 
  97   0.0000       0.420991        11.4558 
  98   0.0000       0.430152        11.7050 
  99   0.0000       0.445674        12.1274 
 100   0.0000       0.449630        12.2351 
 101   0.0000       0.449771        12.2389 
 102   0.0000       0.458932        12.4882 
 103   0.0000       0.471958        12.8426 
 104   0.0000       0.505892        13.7660 
 105   0.0000       0.509607        13.8671 
 106   0.0000       0.520043        14.1511 
 107   0.0000       0.543055        14.7773 
 108   0.0000       0.552314        15.0292 
 109   0.0000       0.560456        15.2508 
 110   0.0000       0.568594        15.4722 
 111   0.0000       0.580209        15.7883 
 112   0.0000       0.605638        16.4802 
 113   0.0000       0.613130        16.6841 
 114   0.0000       0.619618        16.8607 
 115   0.0000       0.623471        16.9655 
 116   0.0000       0.655187        17.8285 
 117   0.0000       0.664065        18.0701 
 118   0.0000       0.681906        18.5556 
 119   0.0000       0.690469        18.7886 
 120   0.0000       0.707793        19.2600 
 121   0.0000       0.740618        20.1532 
 122   0.0000       0.764716        20.8090 
 123   0.0000       0.766418        20.8553 
 124   0.0000       0.780313        21.2334 
 125   0.0000       0.818540        22.2736 
 126   0.0000       0.846905        23.0454 
 127   0.0000       0.859932        23.3999 
 128   0.0000       0.864308        23.5190 
 129   0.0000       0.868058        23.6210 
 130   0.0000       0.881048        23.9745 
 131   0.0000       0.920155        25.0387 
 132   0.0000       0.933299        25.3963 
 133   0.0000       0.934343        25.4248 
 134   0.0000       0.975578        26.5468 
 135   0.0000       0.984647        26.7936 
 136   0.0000       1.013945        27.5908 
 137   0.0000       1.028411        27.9845 
 138   0.0000       1.041769        28.3480 
 139   0.0000       1.073224        29.2039 
 140   0.0000       1.080086        29.3906 
 141   0.0000       1.090186        29.6655 
 142   0.0000       1.101509        29.9736 
 143   0.0000       1.121763        30.5247 
 144   0.0000       1.139518        31.0079 
 145   0.0000       1.153502        31.3884 
 146   0.0000       1.169344        31.8195 
 147   0.0000       1.172049        31.8931 
 148   0.0000       1.197826        32.5945 
 149   0.0000       1.200711        32.6730 
 150   0.0000       1.214385        33.0451 
 151   0.0000       1.214471        33.0474 
 152   0.0000       1.241956        33.7953 
 153   0.0000       1.277991        34.7759 
 154   0.0000       1.289956        35.1015 
 155   0.0000       1.300958        35.4009 
 156   0.0000       1.302800        35.4510 
 157   0.0000       1.323502        36.0143 
 158   0.0000       1.330992        36.2181 
 159   0.0000       1.342105        36.5205 
 160   0.0000       1.346736        36.6466 
 161   0.0000       1.354675        36.8626 
 162   0.0000       1.360150        37.0116 
 163   0.0000       1.370522        37.2938 
 164   0.0000       1.382554        37.6212 
 165   0.0000       1.419341        38.6222 
 166   0.0000       1.448172        39.4068 
 167   0.0000       1.454853        39.5886 
 168   0.0000       1.462905        39.8077 
 169   0.0000       1.463636        39.8276 
 170   0.0000       1.478862        40.2419 
 171   0.0000       1.480480        40.2859 
 172   0.0000       1.506089        40.9828 
 173   0.0000       1.508400        41.0456 
 174   0.0000       1.524122        41.4735 
 175   0.0000       1.535065        41.7712 
 176   0.0000       1.542573        41.9756 
 177   0.0000       1.571758        42.7697 
 178   0.0000       1.587296        43.1925 
 179   0.0000       1.599782        43.5323 
 180   0.0000       1.600173        43.5429 
 181   0.0000       1.614914        43.9441 
 182   0.0000       1.616025        43.9743 
 183   0.0000       1.631263        44.3889 
 184   0.0000       1.655356        45.0445 
 185   0.0000       1.661839        45.2209 
 186   0.0000       1.670948        45.4688 
 187   0.0000       1.702982        46.3405 
 188   0.0000       1.737606        47.2827 
 189   0.0000       1.747272        47.5457 
 190   0.0000       1.758908        47.8623 
 191   0.0000       1.788594        48.6701 
 192   0.0000       1.808565        49.2136 
 193   0.0000       1.830976        49.8234 
 194   0.0000       1.831303        49.8323 
 195   0.0000       1.835817        49.9551 
 196   0.0000       1.888382        51.3855 
 197   0.0000       1.902923        51.7812 
 198   0.0000       1.984326        53.9963 
 199   0.0000       2.006696        54.6050 
 200   0.0000       2.026108        55.1332 
 201   0.0000       2.051695        55.8295 
 202   0.0000       2.080515        56.6137 
 203   0.0000       2.108038        57.3626 
 204   0.0000       2.126777        57.8726 
 205   0.0000       2.133097        58.0445 
 206   0.0000       2.198346        59.8200 
 207   0.0000       2.201626        59.9093 
 208   0.0000       2.204028        59.9747 
 209   0.0000       2.216228        60.3066 
 210   0.0000       2.277726        61.9801 
 211   0.0000       2.329736        63.3953 
 212   0.0000       2.333067        63.4860 
 213   0.0000       2.377196        64.6868 
 214   0.0000       2.412463        65.6465 
 215   0.0000       2.415654        65.7333 
 216   0.0000       2.421681        65.8973 
 217   0.0000       2.492125        67.8142 
 218   0.0000       2.506944        68.2174 
 219   0.0000       2.509482        68.2865 
 220   0.0000       2.559568        69.6494 
 221   0.0000       2.567746        69.8719 
 222   0.0000       2.587428        70.4075 
 223   0.0000       2.601035        70.7778 
 224   0.0000       2.649082        72.0852 
 225   0.0000       2.662104        72.4395 
 226   0.0000       2.686147        73.0938 
 227   0.0000       2.687347        73.1264 
 228   0.0000       2.694165        73.3120 
 229   0.0000       2.711504        73.7838 
 230   0.0000       2.736242        74.4569 
 231   0.0000       2.739846        74.5550 
 232   0.0000       2.763901        75.2096 
 233   0.0000       2.792445        75.9863 
 234   0.0000       2.794534        76.0431 
 235   0.0000       2.811091        76.4937 
 236   0.0000       2.814184        76.5778 
 237   0.0000       2.828950        76.9796 
 238   0.0000       2.867683        78.0336 
 239   0.0000       2.875090        78.2352 
 240   0.0000       2.889738        78.6338 
 241   0.0000       2.899455        78.8982 
 242   0.0000       2.901033        78.9411 
 243   0.0000       2.913807        79.2887 
 244   0.0000       2.967412        80.7474 
 245   0.0000       2.969708        80.8099 
 246   0.0000       2.979333        81.0718 
 247   0.0000       3.007717        81.8441 
 248   0.0000       3.010350        81.9158 
 249   0.0000       3.044782        82.8527 
 250   0.0000       3.074651        83.6655 
 251   0.0000       3.085522        83.9613 
 252   0.0000       3.102178        84.4146 
 253   0.0000       3.110969        84.6538 
 254   0.0000       3.115076        84.7655 
 255   0.0000       3.155133        85.8555 
 256   0.0000       3.160397        85.9988 
 257   0.0000       3.164494        86.1103 
 258   0.0000       3.182467        86.5993 
 259   0.0000       3.193056        86.8875 
 260   0.0000       3.202723        87.1505 
 261   0.0000       3.254487        88.5591 
 262   0.0000       3.257846        88.6505 
 263   0.0000       3.285510        89.4033 
 264   0.0000       3.297427        89.7276 
 265   0.0000       3.309151        90.0466 
 266   0.0000       3.322519        90.4103 
 267   0.0000       3.338885        90.8557 
 268   0.0000       3.379479        91.9603 
 269   0.0000       3.381514        92.0157 
 270   0.0000       3.400063        92.5204 
 271   0.0000       3.414878        92.9235 
 272   0.0000       3.416835        92.9768 
 273   0.0000       3.455876        94.0392 
 274   0.0000       3.463339        94.2422 
 275   0.0000       3.480598        94.7119 
 276   0.0000       3.535097        96.1949 
 277   0.0000       3.558671        96.8364 
 278   0.0000       3.572160        97.2034 
 279   0.0000       3.609505        98.2196 
 280   0.0000       3.610087        98.2355 
 281   0.0000       3.633581        98.8748 
 282   0.0000       3.636162        98.9450 
 283   0.0000       3.659845        99.5895 
 284   0.0000       3.703156       100.7680 
 285   0.0000       3.709882       100.9510 
 286   0.0000       3.713355       101.0455 
 287   0.0000       3.729066       101.4730 
 288   0.0000       3.730415       101.5098 
 289   0.0000       3.757124       102.2365 
 290   0.0000       3.767359       102.5150 
 291   0.0000       3.824553       104.0714 
 292   0.0000       3.831046       104.2481 
 293   0.0000       3.834335       104.3376 
 294   0.0000       3.842409       104.5573 
 295   0.0000       3.858084       104.9838 
 296   0.0000       3.893337       105.9431 
 297   0.0000       3.907541       106.3296 
 298   0.0000       3.935995       107.1039 
 299   0.0000       3.953521       107.5808 
 300   0.0000       3.956388       107.6588 
 301   0.0000       3.988491       108.5324 
 302   0.0000       4.001252       108.8796 
 303   0.0000       4.057798       110.4183 
 304   0.0000       4.077273       110.9482 
 305   0.0000       4.081030       111.0505 
 306   0.0000       4.088712       111.2595 
 307   0.0000       4.107497       111.7707 
 308   0.0000       4.137787       112.5949 
 309   0.0000       4.148271       112.8802 
 310   0.0000       4.185462       113.8922 
 311   0.0000       4.205849       114.4470 
 312   0.0000       4.207214       114.4841 
 313   0.0000       4.232093       115.1611 
 314   0.0000       4.265425       116.0681 
 315   0.0000       4.340403       118.1084 
 316   0.0000       4.353170       118.4558 
 317   0.0000       4.380217       119.1918 
 318   0.0000       4.387089       119.3788 
 319   0.0000       4.426465       120.4502 
 320   0.0000       4.473248       121.7233 
 321   0.0000       4.503780       122.5541 
 322   0.0000       4.515303       122.8677 
 323   0.0000       4.562879       124.1622 
 324   0.0000       4.568959       124.3277 
 325   0.0000       4.586257       124.7984 
 326   0.0000       4.623475       125.8111 
 327   0.0000       4.631504       126.0296 
 328   0.0000       4.646740       126.4442 
 329   0.0000       4.656025       126.6969 
 330   0.0000       4.682334       127.4128 
 331   0.0000       4.729139       128.6864 
 332   0.0000       4.767168       129.7212 
 333   0.0000       4.776500       129.9752 
 334   0.0000       4.794165       130.4559 
 335   0.0000       4.846458       131.8788 
 336   0.0000       4.853313       132.0654 
 337   0.0000       4.891702       133.1100 
 338   0.0000       4.907406       133.5373 
 339   0.0000       4.931716       134.1988 
 340   0.0000       4.958035       134.9150 
 341   0.0000       4.960273       134.9759 
 342   0.0000       5.012396       136.3942 
 343   0.0000       5.019483       136.5871 
 344   0.0000       5.035928       137.0346 
 345   0.0000       5.064989       137.8254 
 346   0.0000       5.075309       138.1062 
 347   0.0000       5.077661       138.1702 
 348   0.0000       5.120764       139.3431 
 349   0.0000       5.147719       140.0766 
 350   0.0000       5.191544       141.2691 
 351   0.0000       5.214848       141.9032 
 352   0.0000       5.231889       142.3669 
 353   0.0000       5.256750       143.0434 
 354   0.0000       5.271245       143.4379 
 355   0.0000       5.289355       143.9307 
 356   0.0000       5.336380       145.2103 
 357   0.0000       5.342170       145.3678 
 358   0.0000       5.384538       146.5207 
 359   0.0000       5.473492       148.9413 
 360   0.0000       5.519243       150.1862 
 361   0.0000       5.561751       151.3429 
 362   0.0000       5.569253       151.5471 
 363   0.0000       5.657196       153.9401 
 364   0.0000       5.704693       155.2326 
 365   0.0000       5.739669       156.1843 
 366   0.0000       5.897024       160.4662 
 367   0.0000       5.976076       162.6173 
 368   0.0000       6.047685       164.5659 
 369   0.0000       6.116654       166.4426 
 370   0.0000       6.251510       170.1122 
 371   0.0000       6.689052       182.0184 
 372   0.0000       6.880960       187.2404 
 373   0.0000       7.723513       210.1675 
 374   0.0000      22.808592       620.6534 
 375   0.0000      23.090769       628.3318 
 376   0.0000      23.262746       633.0115 
 377   0.0000      23.334214       634.9563 
 378   0.0000      23.727184       645.6495 
 379   0.0000      23.845239       648.8619 
 380   0.0000      32.309064       879.1743 
 381   0.0000      32.496555       884.2762 
 382   0.0000      33.282081       905.6515 

                 SPIN DOWN ORBITALS
  NO   OCC          E(Eh)            E(eV) 
   0   1.0000    -483.697854    -13162.0878 
   1   1.0000     -63.002325     -1714.3804 
   2   1.0000     -56.689107     -1542.5890 
   3   1.0000     -56.686511     -1542.5184 
   4   1.0000     -56.686474     -1542.5174 
   5   1.0000     -14.808228      -402.9524 
   6   1.0000     -14.749835      -401.3634 
   7   1.0000     -14.731607      -400.8674 
   8   1.0000     -10.641210      -289.5620 
   9   1.0000     -10.636609      -289.4369 
  10   1.0000     -10.634858      -289.3892 
  11   1.0000     -10.633276      -289.3461 
  12   1.0000     -10.595769      -288.3255 
  13   1.0000     -10.578788      -287.8635 
  14   1.0000      -9.084996      -247.2153 
  15   1.0000      -6.871891      -186.9937 
  16   1.0000      -6.860222      -186.6761 
  17   1.0000      -6.858460      -186.6282 
  18   1.0000      -2.952642       -80.3455 
  19   1.0000      -2.949612       -80.2630 
  20   1.0000      -2.948277       -80.2267 
  21   1.0000      -2.938905       -79.9717 
  22   1.0000      -2.938853       -79.9703 
  23   1.0000      -1.425171       -38.7809 
  24   1.0000      -1.299798       -35.3693 
  25   1.0000      -1.203709       -32.7546 
  26   1.0000      -1.152693       -31.3664 
  27   1.0000      -1.114425       -30.3250 
  28   1.0000      -1.072871       -29.1943 
  29   1.0000      -0.996225       -27.1087 
  30   1.0000      -0.964969       -26.2581 
  31   1.0000      -0.945737       -25.7348 
  32   1.0000      -0.873149       -23.7596 
  33   1.0000      -0.830457       -22.5979 
  34   1.0000      -0.808620       -22.0037 
  35   1.0000      -0.805624       -21.9221 
  36   1.0000      -0.788329       -21.4515 
  37   1.0000      -0.765687       -20.8354 
  38   1.0000      -0.709546       -19.3077 
  39   1.0000      -0.681850       -18.5541 
  40   1.0000      -0.673850       -18.3364 
  41   1.0000      -0.645432       -17.5631 
  42   1.0000      -0.630741       -17.1633 
  43   1.0000      -0.578870       -15.7519 
  44   1.0000      -0.571154       -15.5419 
  45   1.0000      -0.565761       -15.3952 
  46   1.0000      -0.547573       -14.9002 
  47   0.0000      -0.311883        -8.4868 
  48   0.0000      -0.166239        -4.5236 
  49   0.0000      -0.120259        -3.2724 
  50   0.0000      -0.101582        -2.7642 
  51   0.0000      -0.065389        -1.7793 
  52   0.0000      -0.051418        -1.3992 
  53   0.0000      -0.034598        -0.9415 
  54   0.0000      -0.019678        -0.5355 
  55   0.0000      -0.003330        -0.0906 
  56   0.0000       0.006495         0.1767 
  57   0.0000       0.009549         0.2598 
  58   0.0000       0.025775         0.7014 
  59   0.0000       0.039960         1.0874 
  60   0.0000       0.052627         1.4320 
  61   0.0000       0.071477         1.9450 
  62   0.0000       0.072066         1.9610 
  63   0.0000       0.089719         2.4414 
  64   0.0000       0.107589         2.9277 
  65   0.0000       0.110060         2.9949 
  66   0.0000       0.120916         3.2903 
  67   0.0000       0.126576         3.4443 
  68   0.0000       0.130668         3.5557 
  69   0.0000       0.140650         3.8273 
  70   0.0000       0.163198         4.4408 
  71   0.0000       0.165112         4.4929 
  72   0.0000       0.172297         4.6884 
  73   0.0000       0.175031         4.7628 
  74   0.0000       0.181741         4.9454 
  75   0.0000       0.198457         5.4003 
  76   0.0000       0.210655         5.7322 
  77   0.0000       0.214659         5.8412 
  78   0.0000       0.238504         6.4900 
  79   0.0000       0.246032         6.6949 
  80   0.0000       0.256193         6.9714 
  81   0.0000       0.266689         7.2570 
  82   0.0000       0.268330         7.3016 
  83   0.0000       0.277038         7.5386 
  84   0.0000       0.288730         7.8567 
  85   0.0000       0.290960         7.9174 
  86   0.0000       0.302592         8.2340 
  87   0.0000       0.302971         8.2442 
  88   0.0000       0.322360         8.7719 
  89   0.0000       0.343657         9.3514 
  90   0.0000       0.346494         9.4286 
  91   0.0000       0.350110         9.5270 
  92   0.0000       0.350928         9.5492 
  93   0.0000       0.386178        10.5084 
  94   0.0000       0.408190        11.1074 
  95   0.0000       0.409032        11.1303 
  96   0.0000       0.413006        11.2385 
  97   0.0000       0.423293        11.5184 
  98   0.0000       0.432102        11.7581 
  99   0.0000       0.447325        12.1723 
 100   0.0000       0.452128        12.3030 
 101   0.0000       0.456310        12.4168 
 102   0.0000       0.460280        12.5249 
 103   0.0000       0.473590        12.8870 
 104   0.0000       0.508801        13.8452 
 105   0.0000       0.511235        13.9114 
 106   0.0000       0.520966        14.1762 
 107   0.0000       0.544726        14.8228 
 108   0.0000       0.554684        15.0937 
 109   0.0000       0.564558        15.3624 
 110   0.0000       0.570275        15.5180 
 111   0.0000       0.582070        15.8389 
 112   0.0000       0.609783        16.5930 
 113   0.0000       0.615251        16.7418 
 114   0.0000       0.624631        16.9971 
 115   0.0000       0.626289        17.0422 
 116   0.0000       0.658850        17.9282 
 117   0.0000       0.665919        18.1206 
 118   0.0000       0.688656        18.7393 
 119   0.0000       0.693739        18.8776 
 120   0.0000       0.709064        19.2946 
 121   0.0000       0.743822        20.2404 
 122   0.0000       0.766373        20.8541 
 123   0.0000       0.773167        21.0390 
 124   0.0000       0.785658        21.3788 
 125   0.0000       0.820551        22.3283 
 126   0.0000       0.852025        23.1848 
 127   0.0000       0.862456        23.4686 
 128   0.0000       0.867062        23.5939 
 129   0.0000       0.872211        23.7341 
 130   0.0000       0.883362        24.0375 
 131   0.0000       0.923334        25.1252 
 132   0.0000       0.936619        25.4867 
 133   0.0000       0.937617        25.5138 
 134   0.0000       0.977590        26.6016 
 135   0.0000       0.988825        26.9073 
 136   0.0000       1.018034        27.7021 
 137   0.0000       1.031153        28.0591 
 138   0.0000       1.044560        28.4239 
 139   0.0000       1.075767        29.2731 
 140   0.0000       1.085629        29.5415 
 141   0.0000       1.091824        29.7100 
 142   0.0000       1.109537        30.1920 
 143   0.0000       1.123604        30.5748 
 144   0.0000       1.142439        31.0873 
 145   0.0000       1.156730        31.4762 
 146   0.0000       1.173008        31.9192 
 147   0.0000       1.174735        31.9662 
 148   0.0000       1.203238        32.7418 
 149   0.0000       1.205732        32.8096 
 150   0.0000       1.216917        33.1140 
 151   0.0000       1.218659        33.1614 
 152   0.0000       1.245816        33.9004 
 153   0.0000       1.282470        34.8978 
 154   0.0000       1.294668        35.2297 
 155   0.0000       1.303307        35.4648 
 156   0.0000       1.312933        35.7267 
 157   0.0000       1.326401        36.0932 
 158   0.0000       1.332876        36.2694 
 159   0.0000       1.352644        36.8073 
 160   0.0000       1.355644        36.8889 
 161   0.0000       1.358129        36.9566 
 162   0.0000       1.364850        37.1395 
 163   0.0000       1.376315        37.4514 
 164   0.0000       1.391895        37.8754 
 165   0.0000       1.425646        38.7938 
 166   0.0000       1.452529        39.5253 
 167   0.0000       1.459889        39.7256 
 168   0.0000       1.467380        39.9294 
 169   0.0000       1.475993        40.1638 
 170   0.0000       1.482520        40.3414 
 171   0.0000       1.486149        40.4402 
 172   0.0000       1.512164        41.1481 
 173   0.0000       1.512328        41.1525 
 174   0.0000       1.526429        41.5363 
 175   0.0000       1.540394        41.9162 
 176   0.0000       1.545258        42.0486 
 177   0.0000       1.576286        42.8929 
 178   0.0000       1.589942        43.2645 
 179   0.0000       1.602100        43.5954 
 180   0.0000       1.609301        43.7913 
 181   0.0000       1.616738        43.9937 
 182   0.0000       1.617849        44.0239 
 183   0.0000       1.634529        44.4778 
 184   0.0000       1.657912        45.1141 
 185   0.0000       1.669213        45.4216 
 186   0.0000       1.675105        45.5819 
 187   0.0000       1.705038        46.3965 
 188   0.0000       1.744228        47.4628 
 189   0.0000       1.752456        47.6868 
 190   0.0000       1.761058        47.9208 
 191   0.0000       1.793401        48.8009 
 192   0.0000       1.813938        49.3598 
 193   0.0000       1.834780        49.9269 
 194   0.0000       1.836748        49.9805 
 195   0.0000       1.839349        50.0512 
 196   0.0000       1.891841        51.4796 
 197   0.0000       1.906416        51.8762 
 198   0.0000       1.988392        54.1069 
 199   0.0000       2.011909        54.7468 
 200   0.0000       2.030499        55.2527 
 201   0.0000       2.056729        55.9664 
 202   0.0000       2.093596        56.9697 
 203   0.0000       2.112721        57.4901 
 204   0.0000       2.129472        57.9459 
 205   0.0000       2.137161        58.1551 
 206   0.0000       2.204479        59.9869 
 207   0.0000       2.205113        60.0042 
 208   0.0000       2.209302        60.1182 
 209   0.0000       2.228898        60.6514 
 210   0.0000       2.281793        62.0907 
 211   0.0000       2.337205        63.5986 
 212   0.0000       2.339257        63.6544 
 213   0.0000       2.382364        64.8274 
 214   0.0000       2.416316        65.7513 
 215   0.0000       2.428108        66.0722 
 216   0.0000       2.428129        66.0727 
 217   0.0000       2.497657        67.9647 
 218   0.0000       2.513769        68.4031 
 219   0.0000       2.514377        68.4197 
 220   0.0000       2.574845        70.0651 
 221   0.0000       2.576316        70.1051 
 222   0.0000       2.595554        70.6286 
 223   0.0000       2.608126        70.9707 
 224   0.0000       2.661065        72.4113 
 225   0.0000       2.668114        72.6031 
 226   0.0000       2.690799        73.2204 
 227   0.0000       2.698747        73.4366 
 228   0.0000       2.700397        73.4815 
 229   0.0000       2.725171        74.1557 
 230   0.0000       2.741382        74.5968 
 231   0.0000       2.753715        74.9324 
 232   0.0000       2.775733        75.5315 
 233   0.0000       2.798310        76.1459 
 234   0.0000       2.801408        76.2302 
 235   0.0000       2.817857        76.6778 
 236   0.0000       2.822558        76.8057 
 237   0.0000       2.836086        77.1738 
 238   0.0000       2.874350        78.2150 
 239   0.0000       2.882634        78.4405 
 240   0.0000       2.895741        78.7971 
 241   0.0000       2.906602        79.0927 
 242   0.0000       2.912851        79.2627 
 243   0.0000       2.923609        79.5555 
 244   0.0000       2.974404        80.9376 
 245   0.0000       2.978738        81.0556 
 246   0.0000       2.986505        81.2669 
 247   0.0000       3.015329        82.0513 
 248   0.0000       3.019412        82.1624 
 249   0.0000       3.055148        83.1348 
 250   0.0000       3.083319        83.9014 
 251   0.0000       3.092832        84.1602 
 252   0.0000       3.112387        84.6924 
 253   0.0000       3.118960        84.8712 
 254   0.0000       3.123135        84.9848 
 255   0.0000       3.162820        86.0647 
 256   0.0000       3.168089        86.2081 
 257   0.0000       3.171094        86.2899 
 258   0.0000       3.189973        86.8036 
 259   0.0000       3.199700        87.0683 
 260   0.0000       3.207619        87.2837 
 261   0.0000       3.261361        88.7461 
 262   0.0000       3.262728        88.7833 
 263   0.0000       3.293631        89.6243 
 264   0.0000       3.302393        89.8627 
 265   0.0000       3.315528        90.2201 
 266   0.0000       3.326685        90.5237 
 267   0.0000       3.344635        91.0122 
 268   0.0000       3.387504        92.1787 
 269   0.0000       3.387794        92.1866 
 270   0.0000       3.407422        92.7207 
 271   0.0000       3.425242        93.2056 
 272   0.0000       3.428039        93.2817 
 273   0.0000       3.464506        94.2740 
 274   0.0000       3.473491        94.5185 
 275   0.0000       3.488673        94.9316 
 276   0.0000       3.542443        96.3948 
 277   0.0000       3.565012        97.0089 
 278   0.0000       3.577773        97.3562 
 279   0.0000       3.613270        98.3221 
 280   0.0000       3.615175        98.3739 
 281   0.0000       3.641096        99.0793 
 282   0.0000       3.643681        99.1496 
 283   0.0000       3.666450        99.7692 
 284   0.0000       3.709250       100.9338 
 285   0.0000       3.716255       101.1245 
 286   0.0000       3.717207       101.1503 
 287   0.0000       3.734909       101.6320 
 288   0.0000       3.735757       101.6551 
 289   0.0000       3.763891       102.4207 
 290   0.0000       3.772030       102.6422 
 291   0.0000       3.830047       104.2209 
 292   0.0000       3.838453       104.4496 
 293   0.0000       3.841474       104.5318 
 294   0.0000       3.846933       104.6804 
 295   0.0000       3.864166       105.1493 
 296   0.0000       3.898359       106.0798 
 297   0.0000       3.915446       106.5447 
 298   0.0000       3.939654       107.2034 
 299   0.0000       3.958750       107.7231 
 300   0.0000       3.958863       107.7261 
 301   0.0000       3.991991       108.6276 
 302   0.0000       4.003537       108.9418 
 303   0.0000       4.061819       110.5277 
 304   0.0000       4.080917       111.0474 
 305   0.0000       4.088681       111.2587 
 306   0.0000       4.093580       111.3920 
 307   0.0000       4.112235       111.8996 
 308   0.0000       4.147222       112.8517 
 309   0.0000       4.155485       113.0765 
 310   0.0000       4.190324       114.0245 
 311   0.0000       4.213611       114.6582 
 312   0.0000       4.213833       114.6642 
 313   0.0000       4.243364       115.4678 
 314   0.0000       4.269631       116.1826 
 315   0.0000       4.345030       118.2343 
 316   0.0000       4.355405       118.5166 
 317   0.0000       4.385751       119.3423 
 318   0.0000       4.405560       119.8814 
 319   0.0000       4.430848       120.5695 
 320   0.0000       4.479035       121.8807 
 321   0.0000       4.514727       122.8520 
 322   0.0000       4.525775       123.1526 
 323   0.0000       4.577879       124.5704 
 324   0.0000       4.580108       124.6311 
 325   0.0000       4.590958       124.9263 
 326   0.0000       4.631452       126.0282 
 327   0.0000       4.646411       126.4353 
 328   0.0000       4.656559       126.7114 
 329   0.0000       4.676008       127.2406 
 330   0.0000       4.689183       127.5991 
 331   0.0000       4.741960       129.0353 
 332   0.0000       4.774474       129.9201 
 333   0.0000       4.786447       130.2458 
 334   0.0000       4.803849       130.7194 
 335   0.0000       4.854737       132.1041 
 336   0.0000       4.860904       132.2719 
 337   0.0000       4.898089       133.2838 
 338   0.0000       4.914687       133.7354 
 339   0.0000       4.935430       134.2999 
 340   0.0000       4.965243       135.1111 
 341   0.0000       4.969522       135.2276 
 342   0.0000       5.023492       136.6962 
 343   0.0000       5.029206       136.8517 
 344   0.0000       5.044133       137.2578 
 345   0.0000       5.079068       138.2085 
 346   0.0000       5.082490       138.3016 
 347   0.0000       5.089508       138.4925 
 348   0.0000       5.130672       139.6127 
 349   0.0000       5.159908       140.4082 
 350   0.0000       5.199369       141.4820 
 351   0.0000       5.223739       142.1452 
 352   0.0000       5.237289       142.5139 
 353   0.0000       5.265246       143.2746 
 354   0.0000       5.285240       143.8187 
 355   0.0000       5.301145       144.2515 
 356   0.0000       5.340398       145.3196 
 357   0.0000       5.348885       145.5506 
 358   0.0000       5.396314       146.8412 
 359   0.0000       5.483762       149.2208 
 360   0.0000       5.528656       150.4424 
 361   0.0000       5.569352       151.5498 
 362   0.0000       5.581929       151.8920 
 363   0.0000       5.662141       154.0747 
 364   0.0000       5.714117       155.4890 
 365   0.0000       5.749791       156.4598 
 366   0.0000       5.903147       160.6328 
 367   0.0000       5.981988       162.7782 
 368   0.0000       6.053041       164.7116 
 369   0.0000       6.122928       166.6133 
 370   0.0000       6.256454       170.2468 
 371   0.0000       6.695639       182.1976 
 372   0.0000       6.890077       187.4885 
 373   0.0000       7.724225       210.1868 
 374   0.0000      22.810509       620.7055 
 375   0.0000      23.091616       628.3548 
 376   0.0000      23.265225       633.0790 
 377   0.0000      23.336552       635.0199 
 378   0.0000      23.730685       645.7448 
 379   0.0000      23.848351       648.9466 
 380   0.0000      32.308512       879.1593 
 381   0.0000      32.502261       884.4315 
 382   0.0000      33.281508       905.6359 

                    ********************************
                    * MULLIKEN POPULATION ANALYSIS *
                    ********************************

--------------------------------------------
MULLIKEN ATOMIC CHARGES AND SPIN POPULATIONS
--------------------------------------------
   0 Br:    0.173994    0.061244
   1 C :    0.010113    0.115749
   2 C :   -0.071244   -0.010561
   3 C :    0.061702    0.162140
   4 N :   -0.055881   -0.036916
   5 C :    0.117668    0.300768
   6 N :   -0.096441   -0.099002
   7 N :   -0.004129    0.385732
   8 C :    0.156179   -0.051746
   9 C :   -0.049164    0.179697
  10 H :    0.175393   -0.001012
  11 H :    0.186493   -0.002872
  12 H :    0.202243   -0.002075
  13 H :    0.193075   -0.001144
Sum of atomic charges         :    1.0000000
Sum of atomic spin populations:    1.0000000

-----------------------------------------------------
MULLIKEN REDUCED ORBITAL CHARGES AND SPIN POPULATIONS
-----------------------------------------------------
CHARGE
  0 Brs       :     7.908168  s :     7.908168
      pz      :     5.839979  p :    16.860167
      px      :     5.098280
      py      :     5.921907
      dz2     :     2.007178  d :    10.049919
      dxz     :     2.012704
      dyz     :     2.000373
      dx2y2   :     2.021418
      dxy     :     2.008245
      f0      :     0.000728  f :     0.007753
      f+1     :     0.001567
      f-1     :     0.000124
      f+2     :     0.001049
      f-2     :     0.000109
      f+3     :     0.002623
      f-3     :     0.001552
  1 C s       :     3.263163  s :     3.263163
      pz      :     0.852117  p :     2.550775
      px      :     0.804535
      py      :     0.894123
      dz2     :     0.007219  d :     0.166507
      dxz     :     0.031639
      dyz     :     0.023287
      dx2y2   :     0.054161
      dxy     :     0.050202
      f0      :     0.001876  f :     0.009442
      f+1     :     0.000823
      f-1     :     0.000614
      f+2     :     0.000731
      f-2     :     0.000887
      f+3     :     0.001781
      f-3     :     0.002729
  2 C s       :     3.169473  s :     3.169473
      pz      :     0.938675  p :     2.814723
      px      :     0.955725
      py      :     0.920323
      dz2     :     0.005469  d :     0.079637
      dxz     :     0.013634
      dyz     :     0.011660
      dx2y2   :     0.015076
      dxy     :     0.033798
      f0      :     0.001615  f :     0.007412
      f+1     :     0.000609
      f-1     :     0.000664
      f+2     :     0.000804
      f-2     :     0.000279
      f+3     :     0.001382
      f-3     :     0.002059
  3 C s       :     3.158732  s :     3.158732
      pz      :     0.852398  p :     2.656040
      px      :     0.874336
      py      :     0.929305
      dz2     :     0.002826  d :     0.112891
      dxz     :     0.030740
      dyz     :     0.015142
      dx2y2   :     0.022892
      dxy     :     0.041291
      f0      :     0.001918  f :     0.010636
      f+1     :     0.000744
      f-1     :     0.000863
      f+2     :     0.000634
      f-2     :     0.001576
      f+3     :     0.002072
      f-3     :     0.002829
  4 N s       :     3.455727  s :     3.455727
      pz      :     1.399959  p :     3.503559
      px      :     1.042353
      py      :     1.061247
      dz2     :     0.006411  d :     0.090700
      dxz     :     0.014786
      dyz     :     0.014609
      dx2y2   :     0.029088
      dxy     :     0.025806
      f0      :     0.001039  f :     0.005895
      f+1     :     0.000681
      f-1     :     0.000678
      f+2     :     0.000509
      f-2     :     0.000450
      f+3     :     0.000964
      f-3     :     0.001575
  5 C s       :     3.155924  s :     3.155924
      pz      :     0.838472  p :     2.568041
      px      :     0.766278
      py      :     0.963291
      dz2     :     0.001815  d :     0.143022
      dxz     :     0.026541
      dyz     :     0.027118
      dx2y2   :     0.038540
      dxy     :     0.049007
      f0      :     0.002305  f :     0.015346
      f+1     :     0.001167
      f-1     :     0.001103
      f+2     :     0.002728
      f-2     :     0.000193
      f+3     :     0.003642
      f-3     :     0.004208
  6 N s       :     3.677980  s :     3.677980
      pz      :     1.074636  p :     3.332827
      px      :     1.266066
      py      :     0.992124
      dz2     :     0.007090  d :     0.080191
      dxz     :     0.015403
      dyz     :     0.013005
      dx2y2   :     0.023637
      dxy     :     0.021056
      f0      :     0.000807  f :     0.005443
      f+1     :     0.000529
      f-1     :     0.000478
      f+2     :     0.000401
      f-2     :     0.000508
      f+3     :     0.001479
      f-3     :     0.001241
  7 N s       :     3.654807  s :     3.654807
      pz      :     0.961877  p :     3.260588
      px      :     0.912079
      py      :     1.386633
      dz2     :     0.006974  d :     0.083420
      dxz     :     0.015972
      dyz     :     0.014555
      dx2y2   :     0.018232
      dxy     :     0.027689
      f0      :     0.000690  f :     0.005314
      f+1     :     0.000545
      f-1     :     0.000382
      f+2     :     0.000090
      f-2     :     0.000945
      f+3     :     0.001407
      f-3     :     0.001255
  8 C s       :     3.103644  s :     3.103644
      pz      :     0.960365  p :     2.563209
      px      :     0.882497
      py      :     0.720347
      dz2     :     0.003923  d :     0.158777
      dxz     :     0.035232
      dyz     :     0.032517
      dx2y2   :     0.055183
      dxy     :     0.031922
      f0      :     0.002862  f :     0.018191
      f+1     :     0.001345
      f-1     :     0.001320
      f+2     :     0.001688
      f-2     :     0.001559
      f+3     :     0.005335
      f-3     :     0.004082
  9 C s       :     3.182734  s :     3.182734
      pz      :     0.834138  p :     2.778292
      px      :     0.915619
      py      :     1.028535
      dz2     :     0.004567  d :     0.080955
      dxz     :     0.017671
      dyz     :     0.011654
      dx2y2   :     0.026632
      dxy     :     0.020432
      f0      :     0.001462  f :     0.007183
      f+1     :     0.000642
      f-1     :     0.000559
      f+2     :     0.000531
      f-2     :     0.000616
      f+3     :     0.001363
      f-3     :     0.002010
 10 H s       :     0.786188  s :     0.786188
      pz      :     0.009831  p :     0.035919
      px      :     0.011389
      py      :     0.014699
      dz2     :     0.000169  d :     0.002501
      dxz     :     0.000359
      dyz     :     0.000408
      dx2y2   :     0.000988
      dxy     :     0.000577
 11 H s       :     0.778836  s :     0.778836
      pz      :     0.008510  p :     0.032316
      px      :     0.006415
      py      :     0.017391
      dz2     :     0.000200  d :     0.002356
      dxz     :     0.000148
[...]
   5 C :   -0.053353    0.230913
   6 N :    0.122103   -0.039818
   7 N :    0.197391    0.323740
   8 C :   -0.216230    0.006219
   9 C :    0.078321    0.148012
  10 H :    0.048566   -0.000487
  11 H :    0.049843    0.007296
  12 H :    0.038862    0.014610
  13 H :    0.059113    0.007770

----------------------------------------------------
LOEWDIN REDUCED ORBITAL CHARGES AND SPIN POPULATIONS
----------------------------------------------------
CHARGE
  0 Brs       :     7.579959  s :     7.579959
      pz      :     5.780591  p :    16.755824
      px      :     5.124243
      py      :     5.850989
      dz2     :     2.016376  d :    10.110195
      dxz     :     2.022929
      dyz     :     2.000705
      dx2y2   :     2.047033
      dxy     :     2.023152
      f0      :     0.001181  f :     0.015297
      f+1     :     0.003091
      f-1     :     0.000269
      f+2     :     0.001701
      f-2     :     0.000162
      f+3     :     0.005305
      f-3     :     0.003588
  1 C s       :     2.785882  s :     2.785882
      pz      :     0.789841  p :     2.886986
      px      :     1.017195
      py      :     1.079950
      dz2     :     0.036466  d :     0.553899
      dxz     :     0.082155
      dyz     :     0.070208
      dx2y2   :     0.204587
      dxy     :     0.160483
      f0      :     0.003979  f :     0.054550
      f+1     :     0.004110
      f-1     :     0.004307
      f+2     :     0.004883
      f-2     :     0.006476
      f+3     :     0.012068
      f-3     :     0.018727
  2 C s       :     2.724355  s :     2.724355
      pz      :     0.835179  p :     2.851558
      px      :     1.031944
      py      :     0.984436
      dz2     :     0.026623  d :     0.365234
      dxz     :     0.042620
      dyz     :     0.032796
      dx2y2   :     0.111105
      dxy     :     0.152090
      f0      :     0.002985  f :     0.042888
      f+1     :     0.004227
      f-1     :     0.003621
      f+2     :     0.006013
      f-2     :     0.002108
      f+3     :     0.010536
      f-3     :     0.013399
  3 C s       :     2.724541  s :     2.724541
      pz      :     0.769990  p :     2.694261
      px      :     0.997029
      py      :     0.927242
      dz2     :     0.029367  d :     0.457946
      dxz     :     0.091968
      dyz     :     0.037335
      dx2y2   :     0.128021
      dxy     :     0.171255
      f0      :     0.004192  f :     0.061928
      f+1     :     0.005104
      f-1     :     0.004673
      f+2     :     0.005062
      f-2     :     0.010251
      f+3     :     0.014664
      f-3     :     0.017982
  4 N s       :     2.838974  s :     2.838974
      pz      :     1.202954  p :     3.470226
      px      :     1.134778
      py      :     1.132494
      dz2     :     0.020174  d :     0.325654
      dxz     :     0.046061
      dyz     :     0.046424
      dx2y2   :     0.114816
      dxy     :     0.098179
      f0      :     0.001494  f :     0.024457
      f+1     :     0.001916
      f-1     :     0.001861
      f+2     :     0.003413
      f-2     :     0.002563
      f+3     :     0.003770
      f-3     :     0.009440
  5 C s       :     2.752240  s :     2.752240
      pz      :     0.764523  p :     2.657423
      px      :     0.871813
      py      :     1.021087
      dz2     :     0.042294  d :     0.552961
      dxz     :     0.081812
      dyz     :     0.062974
      dx2y2   :     0.160367
      dxy     :     0.205514
      f0      :     0.005286  f :     0.090730
      f+1     :     0.006370
      f-1     :     0.006134
      f+2     :     0.019294
      f-2     :     0.002204
      f+3     :     0.024549
      f-3     :     0.026893
  6 N s       :     3.123501  s :     3.123501
      pz      :     1.008096  p :     3.472311
      px      :     1.307219
      py      :     1.156996
      dz2     :     0.024883  d :     0.254229
      dxz     :     0.021508
      dyz     :     0.037632
      dx2y2   :     0.082946
      dxy     :     0.087260
      f0      :     0.001579  f :     0.027855
      f+1     :     0.001595
      f-1     :     0.002502
      f+2     :     0.001807
      f-2     :     0.002797
      f+3     :     0.010194
      f-3     :     0.007382
  7 N s       :     3.127480  s :     3.127480
      pz      :     0.905172  p :     3.387058
      px      :     1.063633
      py      :     1.418254
      dz2     :     0.024524  d :     0.259783
      dxz     :     0.050562
      dyz     :     0.018245
      dx2y2   :     0.077514
      dxy     :     0.088938
      f0      :     0.001598  f :     0.028288
      f+1     :     0.002672
      f-1     :     0.001159
      f+2     :     0.000158
      f-2     :     0.005387
      f+3     :     0.009928
      f-3     :     0.007386
  8 C s       :     2.707442  s :     2.707442
      pz      :     0.867799  p :     2.734576
      px      :     0.998703
      py      :     0.868074
      dz2     :     0.052990  d :     0.672643
      dxz     :     0.086462
      dyz     :     0.096889
      dx2y2   :     0.224085
      dxy     :     0.212217
      f0      :     0.006354  f :     0.101569
      f+1     :     0.006769
      f-1     :     0.007183
      f+2     :     0.011121
      f-2     :     0.011823
      f+3     :     0.033041
      f-3     :     0.025278
  9 C s       :     2.727381  s :     2.727381
      pz      :     0.751267  p :     2.778140
      px      :     1.005583
      py      :     1.021291
      dz2     :     0.026574  d :     0.372511
      dxz     :     0.060653
      dyz     :     0.026791
      dx2y2   :     0.147691
      dxy     :     0.110802
      f0      :     0.003102  f :     0.043647
      f+1     :     0.004258
      f-1     :     0.003521
      f+2     :     0.004154
      f-2     :     0.004913
      f+3     :     0.010091
      f-3     :     0.013608
 10 H s       :     0.775519  s :     0.775519
      pz      :     0.037726  p :     0.145898
      px      :     0.050303
      py      :     0.057868
      dz2     :     0.002919  d :     0.030018
      dxz     :     0.003918
      dyz     :     0.004818
      dx2y2   :     0.009234
      dxy     :     0.009128
 11 H s       :     0.779333  s :     0.779333
      pz      :     0.033543  p :     0.141669
      px      :     0.035792
      py      :     0.072334
      dz2     :     0.003078  d :     0.029155
      dxz     :     0.001425
      dyz     :     0.006665
      dx2y2   :     0.009081
      dxy     :     0.008907
 12 H s       :     0.790296  s :     0.790296
      pz      :     0.033362  p :     0.141793
      px      :     0.047942
      py      :     0.060489
      dz2     :     0.003244  d :     0.029050
      dxz     :     0.002948
      dyz     :     0.005283
      dx2y2   :     0.007626
      dxy     :     0.009948
 13 H s       :     0.768381  s :     0.768381
      pz      :     0.032299  p :     0.142987
      px      :     0.034791
      py      :     0.075896
      dz2     :     0.002983  d :     0.029519
      dxz     :     0.000767
      dyz     :     0.007065
      dx2y2   :     0.009468
      dxy     :     0.009235

SPIN
  0 Brs       :     0.000411  s :     0.000411
      pz      :     0.064008  p :     0.059831
      px      :    -0.004334
      py      :     0.000156
      dz2     :     0.000289  d :     0.004225
      dxz     :     0.003766
      dyz     :    -0.000034
      dx2y2   :     0.000261
      dxy     :    -0.000058
      f0      :     0.000195  f :     0.000522
      f+1     :    -0.000028
      f-1     :     0.000001
      f+2     :     0.000322
      f-2     :    -0.000002
      f+3     :     0.000034
      f-3     :    -0.000000
  1 C s       :     0.001449  s :     0.001449
      pz      :     0.084053  p :     0.086734
      px      :     0.002081
      py      :     0.000601
      dz2     :    -0.000179  d :     0.015702
      dxz     :     0.003177
      dyz     :     0.012331
      dx2y2   :     0.000050
      dxy     :     0.000322
      f0      :    -0.000065  f :     0.001578
      f+1     :    -0.000047
      f-1     :    -0.000055
      f+2     :    -0.000126
      f-2     :     0.001794
      f+3     :     0.000004
      f-3     :     0.000073
  2 C s       :    -0.000689  s :    -0.000689
      pz      :    -0.004370  p :    -0.007591
      px      :    -0.002031
      py      :    -0.001190
      dz2     :     0.000065  d :     0.021119
      dxz     :     0.011932
      dyz     :     0.008216
      dx2y2   :     0.000555
      dxy     :     0.000351
      f0      :     0.000236  f :     0.002807
      f+1     :     0.000021
      f-1     :     0.000003
      f+2     :     0.002311
      f-2     :     0.000088
      f+3     :     0.000071
      f-3     :     0.000076
  3 C s       :     0.002354  s :     0.002354
      pz      :     0.117089  p :     0.121618
      px      :     0.002130
      py      :     0.002398
      dz2     :    -0.000410  d :    -0.003049
      dxz     :    -0.001169
      dyz     :    -0.000395
      dx2y2   :    -0.000402
      dxy     :    -0.000674
      f0      :    -0.000292  f :    -0.000889
      f+1     :    -0.000084
      f-1     :    -0.000101
      f+2     :    -0.000006
      f-2     :    -0.000230
      f+3     :    -0.000096
      f-3     :    -0.000081
  4 N s       :    -0.001459  s :    -0.001459
      pz      :    -0.017502  p :    -0.023016
      px      :    -0.003956
      py      :    -0.001558
      dz2     :     0.000060  d :     0.018592
      dxz     :     0.019833
      dyz     :    -0.002252
      dx2y2   :     0.000569
      dxy     :     0.000382
      f0      :     0.000092  f :     0.001495
      f+1     :     0.000018
      f-1     :     0.000011
      f+2     :     0.001187
      f-2     :     0.000132
      f+3     :     0.000029
      f-3     :     0.000026
  5 C s       :     0.004983  s :     0.004983
      pz      :     0.228841  p :     0.237657
      px      :     0.004530
      py      :     0.004286
      dz2     :    -0.000622  d :    -0.009422
      dxz     :    -0.000263
      dyz     :    -0.006606
      dx2y2   :    -0.001241
      dxy     :    -0.000691
      f0      :    -0.000721  f :    -0.002305
      f+1     :    -0.000199
      f-1     :    -0.000178
      f+2     :    -0.000758
      f-2     :    -0.000020
      f+3     :    -0.000213
      f-3     :    -0.000215
  6 N s       :    -0.001604  s :    -0.001604
      pz      :    -0.058927  p :    -0.072695
      px      :    -0.006668
      py      :    -0.007100
      dz2     :     0.000237  d :     0.030927
      dxz     :     0.004907
      dyz     :     0.024057
      dx2y2   :     0.000643
      dxy     :     0.001083
      f0      :     0.000318  f :     0.003554
      f+1     :     0.000038
      f-1     :     0.000042
      f+2     :     0.001135
      f-2     :     0.001761
      f+3     :     0.000101
      f-3     :     0.000161
  7 N s       :     0.005428  s :     0.005428
      pz      :     0.313149  p :     0.324330
      px      :     0.008329
      py      :     0.002852
      dz2     :     0.000153  d :    -0.005149
      dxz     :    -0.002130
      dyz     :    -0.002005
      dx2y2   :    -0.000214
      dxy     :    -0.000953
      f0      :    -0.000320  f :    -0.000869
      f+1     :    -0.000162
      f-1     :    -0.000074
      f+2     :    -0.000033
      f-2     :    -0.000122
      f+3     :    -0.000062
      f-3     :    -0.000095
  8 C s       :    -0.002528  s :    -0.002528
      pz      :    -0.032846  p :    -0.039864
      px      :    -0.004152
      py      :    -0.002866
      dz2     :     0.000017  d :     0.042292
      dxz     :     0.032167
      dyz     :     0.008749
      dx2y2   :     0.000360
      dxy     :     0.000999
      f0      :     0.000622  f :     0.006319
      f+1     :     0.000049
      f-1     :     0.000040
      f+2     :     0.000214
      f-2     :     0.005005
      f+3     :     0.000200
      f-3     :     0.000188
  9 C s       :     0.002282  s :     0.002282
      pz      :     0.136110  p :     0.140344
      px      :     0.002710
      py      :     0.001523
      dz2     :    -0.000512  d :     0.005186
      dxz     :     0.003877
      dyz     :     0.002426
      dx2y2   :    -0.000597
      dxy     :    -0.000007
      f0      :    -0.000233  f :     0.000201
      f+1     :    -0.000109
      f-1     :    -0.000083
      f+2     :    -0.000144
      f-2     :     0.000817
      f+3     :    -0.000055
      f-3     :     0.000009
 10 H s       :    -0.000100  s :    -0.000100
      pz      :    -0.000016  p :    -0.000267
      px      :    -0.000115
      py      :    -0.000136
      dz2     :    -0.000002  d :    -0.000121
      dxz     :     0.000053
      dyz     :    -0.000115
      dx2y2   :    -0.000054
      dxy     :    -0.000003
 11 H s       :    -0.002817  s :    -0.002817
      pz      :     0.007289  p :     0.008172
      px      :     0.000206
      py      :     0.000677
      dz2     :     0.000007  d :     0.001941
      dxz     :     0.000360
      dyz     :     0.001404
      dx2y2   :     0.000078
      dxy     :     0.000092
 12 H s       :    -0.005400  s :    -0.005400
      pz      :     0.014327  p :     0.016178
      px      :     0.000764
      py      :     0.001087
      dz2     :     0.000015  d :     0.003832
      dxz     :     0.001252
      dyz     :     0.002229
      dx2y2   :     0.000139
      dxy     :     0.000197
 13 H s       :    -0.003274  s :    -0.003274
      pz      :     0.007891  p :     0.008870
      px      :     0.000162
      py      :     0.000817
      dz2     :     0.000009  d :     0.002174
      dxz     :     0.000086
      dyz     :     0.001894
      dx2y2   :     0.000113
      dxy     :     0.000073


                      *****************************
                      * MAYER POPULATION ANALYSIS *
                      *****************************

  NA   - Mulliken gross atomic population
  ZA   - Total nuclear charge
  QA   - Mulliken gross atomic charge
  VA   - Mayer's total valence
  BVA  - Mayer's bonded valence
  FA   - Mayer's free valence

  ATOM       NA         ZA         QA         VA         BVA        FA
  0 Br    34.8260    35.0000     0.1740     1.4239     1.4185     0.0054
  1 C      5.9899     6.0000     0.0101     4.1066     4.0930     0.0136
  2 C      6.0712     6.0000    -0.0712     3.8829     3.8819     0.0010
  3 C      5.9383     6.0000     0.0617     3.9240     3.9011     0.0229
  4 N      7.0559     7.0000    -0.0559     3.4946     3.4937     0.0009
  5 C      5.8823     6.0000     0.1177     3.9758     3.8981     0.0777
  6 N      7.0964     7.0000    -0.0964     2.9768     2.9698     0.0070
  7 N      7.0041     7.0000    -0.0041     3.0022     2.8702     0.1320
  8 C      5.8438     6.0000     0.1562     4.0801     4.0753     0.0048
  9 C      6.0492     6.0000    -0.0492     3.8579     3.8240     0.0339
 10 H      0.8246     1.0000     0.1754     0.9908     0.9908     0.0000
 11 H      0.8135     1.0000     0.1865     0.9816     0.9816     0.0000
 12 H      0.7978     1.0000     0.2022     0.9772     0.9772     0.0001
 13 H      0.8069     1.0000     0.1931     0.9853     0.9853     0.0000

  Mayer bond orders larger than 0.100000
B(  0-Br,  1-C ) :   1.3064 B(  1-C ,  2-C ) :   1.2406 B(  1-C ,  9-C ) :   1.3818 
B(  2-C ,  3-C ) :   1.5738 B(  2-C , 10-H ) :   0.9433 B(  3-C ,  4-N ) :   1.1675 
B(  3-C , 11-H ) :   0.9287 B(  4-N ,  5-C ) :   1.1249 B(  4-N ,  8-C ) :   1.1081 
B(  5-C ,  6-N ) :   1.6207 B(  5-C , 12-H ) :   0.9391 B(  6-N ,  7-N ) :   1.1924 
B(  7-N ,  8-C ) :   1.4350 B(  8-C ,  9-C ) :   1.3224 B(  9-C , 13-H ) :   0.9235 



------------------
HIRSHFELD ANALYSIS
------------------

Total integrated alpha density =     47.999979293
Total integrated beta density  =     46.999972611

  ATOM     CHARGE      SPIN    
   0 Br   0.127423    0.067376
   1 C    0.091797    0.103248
   2 C    0.006038    0.012365
   3 C    0.120238    0.122250
   4 N    0.006121    0.001206
   5 C    0.174193    0.224925
   6 N   -0.082300   -0.028033
   7 N   -0.029915    0.319101
   8 C    0.130856    0.000697
   9 C    0.054292    0.151294
  10 H    0.085999    0.000479
  11 H    0.100703    0.006368
  12 H    0.114703    0.012283
  13 H    0.099899    0.006447

  TOTAL   1.000048    1.000007

-------
TIMINGS
-------

Total SCF time: 0 days 0 hours 0 min 45 sec 

Total time                  ....      45.317 sec
Sum of individual times     ....      44.473 sec  ( 98.1%)

Fock matrix formation       ....      41.160 sec  ( 90.8%)
  Split-RI-J                ....       2.267 sec  (  5.5% of F)
  Chain of spheres X        ....      28.546 sec  ( 69.4% of F)
  XC integration            ....       9.953 sec  ( 24.2% of F)
    Basis function eval.    ....       0.651 sec  (  6.5% of XC)
    Density eval.           ....       2.976 sec  ( 29.9% of XC)
    XC-Functional eval.     ....       0.308 sec  (  3.1% of XC)
    XC-Potential eval.      ....       5.202 sec  ( 52.3% of XC)
Diagonalization             ....       1.160 sec  (  2.6%)
Density matrix formation    ....       0.055 sec  (  0.1%)
Population analysis         ....       0.634 sec  (  1.4%)
Initial guess               ....       0.119 sec  (  0.3%)
Orbital Transformation      ....       0.000 sec  (  0.0%)
Orbital Orthonormalization  ....       0.000 sec  (  0.0%)
DIIS solution               ....       0.603 sec  (  1.3%)
Grid generation             ....       0.743 sec  (  1.6%)

Maximum memory used throughout the entire SCF-calculation: 91.4 MB

-------------------------   --------------------
FINAL SINGLE POINT ENERGY     -2968.987049194296
-------------------------   --------------------


                            ***************************************
                            *     ORCA property calculations      *
                            ***************************************

                                    ---------------------
                                    Active property flags
                                    ---------------------
   (+) Dipole Moment


------------------------------------------------------------------------------
                       ORCA ELECTRIC PROPERTIES CALCULATION
------------------------------------------------------------------------------

Dipole Moment Calculation                       ... on
Quadrupole Moment Calculation                   ... off
Polarizability Calculation                      ... off
GBWName                                         ... arbr_24_r2scan3c_wB97MV_ox.gbw
Electron density                                ... arbr_24_r2scan3c_wB97MV_ox.scfp
The origin for moment calculation is the CENTER OF MASS  = ( 0.285157, -0.058238  0.000001)

-------------
DIPOLE MOMENT
-------------
                                X             Y             Z
Electronic contribution:     26.17542      -3.63906       0.00001
Nuclear contribution   :    -27.37487       5.59077      -0.00006
                        -----------------------------------------
Total Dipole Moment    :     -1.19945       1.95171      -0.00005
                        -----------------------------------------
Magnitude (a.u.)       :      2.29082
Magnitude (Debye)      :      5.82280



--------------------
Rotational spectrum 
--------------------
 
Rotational constants in cm-1:     0.116740     0.015828     0.013938 
Rotational constants in MHz :  3499.776644   474.508313   417.854565 

 Dipole components along the rotational axes: 
x,y,z [a.u.] :     1.190947     1.956911    -0.000049 
x,y,z [Debye]:     3.027147     4.974071    -0.000126 

 

Timings for individual modules:

Sum of individual times         ...       46.064 sec (=   0.768 min)
GTO integral calculation        ...        0.517 sec (=   0.009 min)   1.1 %
SCF iterations                  ...       45.547 sec (=   0.759 min)  98.9 %
                             ****ORCA TERMINATED NORMALLY****
TOTAL RUN TIME: 0 days 0 hours 0 minutes 46 seconds 486 msec
