
                                 *****************
                                 * O   R   C   A *
                                 *****************

                                            #,                                       
                                            ###                                      
                                            ####                                     
                                            #####                                    
                                            ######                                   
                                           ########,                                 
                                     ,,################,,,,,                         
                               ,,#################################,,                 
                          ,,##########################################,,             
                       ,#########################################, ''#####,          
                    ,#############################################,,   '####,        
                  ,##################################################,,,,####,       
                ,###########''''           ''''###############################       
              ,#####''   ,,,,##########,,,,          '''####'''          '####       
            ,##' ,,,,###########################,,,                        '##       
           ' ,,###''''                  '''############,,,                           
         ,,##''                                '''############,,,,        ,,,,,,###''
      ,#''                                            '''#######################'''  
     '                                                          ''''####''''         
             ,#######,   #######,   ,#######,      ##                                
            ,#'     '#,  ##    ##  ,#'     '#,    #''#        ######   ,####,        
            ##       ##  ##   ,#'  ##            #'  '#       #        #'  '#        
            ##       ##  #######   ##           ,######,      #####,   #    #        
            '#,     ,#'  ##    ##  '#,     ,#' ,#      #,         ##   #,  ,#        
             '#######'   ##     ##  '#######'  #'      '#     #####' # '####'        



                  #######################################################
                  #                        -***-                        #
                  #          Department of theory and spectroscopy      #
                  #    Directorship and core code : Frank Neese         #
                  #        Max Planck Institute fuer Kohlenforschung    #
                  #                Kaiser Wilhelm Platz 1               #
                  #                 D-45470 Muelheim/Ruhr               #
                  #                      Germany                        #
                  #                                                     #
                  #                  All rights reserved                #
                  #                        -***-                        #
                  #######################################################


                         Program Version 5.0.4 -  RELEASE  -


 With contributions from (in alphabetic order):
   Daniel Aravena         : Magnetic Suceptibility
   Michael Atanasov       : Ab Initio Ligand Field Theory (pilot matlab implementation)
   Alexander A. Auer      : GIAO ZORA, VPT2 properties, NMR spectrum
   Ute Becker             : Parallelization
   Giovanni Bistoni       : ED, misc. LED, open-shell LED, HFLD
   Martin Brehm           : Molecular dynamics
   Dmytro Bykov           : SCF Hessian
   Vijay G. Chilkuri      : MRCI spin determinant printing, contributions to CSF-ICE
   Dipayan Datta          : RHF DLPNO-CCSD density
   Achintya Kumar Dutta   : EOM-CC, STEOM-CC
   Dmitry Ganyushin       : Spin-Orbit,Spin-Spin,Magnetic field MRCI
   Miquel Garcia          : C-PCM and meta-GGA Hessian, CC/C-PCM, Gaussian charge scheme
   Yang Guo               : DLPNO-NEVPT2, F12-NEVPT2, CIM, IAO-localization
   Andreas Hansen         : Spin unrestricted coupled pair/coupled cluster methods
   Benjamin Helmich-Paris : MC-RPA, TRAH-SCF, COSX integrals
   Lee Huntington         : MR-EOM, pCC
   Robert Izsak           : Overlap fitted RIJCOSX, COSX-SCS-MP3, EOM
   Marcus Kettner         : VPT2
   Christian Kollmar      : KDIIS, OOCD, Brueckner-CCSD(T), CCSD density, CASPT2, CASPT2-K
   Simone Kossmann        : Meta GGA functionals, TD-DFT gradient, OOMP2, MP2 Hessian
   Martin Krupicka        : Initial AUTO-CI
   Lucas Lang             : DCDCAS
   Marvin Lechner         : AUTO-CI (C++ implementation), FIC-MRCC
   Dagmar Lenk            : GEPOL surface, SMD
   Dimitrios Liakos       : Extrapolation schemes; Compound Job, initial MDCI parallelization
   Dimitrios Manganas     : Further ROCIS development; embedding schemes
   Dimitrios Pantazis     : SARC Basis sets
   Anastasios Papadopoulos: AUTO-CI, single reference methods and gradients
   Taras Petrenko         : DFT Hessian,TD-DFT gradient, ASA, ECA, R-Raman, ABS, FL, XAS/XES, NRVS
   Peter Pinski           : DLPNO-MP2, DLPNO-MP2 Gradient
   Christoph Reimann      : Effective Core Potentials
   Marius Retegan         : Local ZFS, SOC
   Christoph Riplinger    : Optimizer, TS searches, QM/MM, DLPNO-CCSD(T), (RO)-DLPNO pert. Triples
   Tobias Risthaus        : Range-separated hybrids, TD-DFT gradient, RPA, STAB
   Michael Roemelt        : Original ROCIS implementation
   Masaaki Saitow         : Open-shell DLPNO-CCSD energy and density
   Barbara Sandhoefer     : DKH picture change effects
   Avijit Sen             : IP-ROCIS
   Kantharuban Sivalingam : CASSCF convergence, NEVPT2, FIC-MRCI
   Bernardo de Souza      : ESD, SOC TD-DFT
   Georgi Stoychev        : AutoAux, RI-MP2 NMR, DLPNO-MP2 response
   Willem Van den Heuvel  : Paramagnetic NMR
   Boris Wezisla          : Elementary symmetry handling
   Frank Wennmohs         : Technical directorship


 We gratefully acknowledge several colleagues who have allowed us to
 interface, adapt or use parts of their codes:
   Stefan Grimme, W. Hujo, H. Kruse, P. Pracht,  : VdW corrections, initial TS optimization,
                  C. Bannwarth, S. Ehlert          DFT functionals, gCP, sTDA/sTD-DF
   Ed Valeev, F. Pavosevic, A. Kumar             : LibInt (2-el integral package), F12 methods
   Garnet Chan, S. Sharma, J. Yang, R. Olivares  : DMRG
   Ulf Ekstrom                                   : XCFun DFT Library
   Mihaly Kallay                                 : mrcc  (arbitrary order and MRCC methods)
   Jiri Pittner, Ondrej Demel                    : Mk-CCSD
   Frank Weinhold                                : gennbo (NPA and NBO analysis)
   Christopher J. Cramer and Donald G. Truhlar   : smd solvation model
   Lars Goerigk                                  : TD-DFT with DH, B97 family of functionals
   V. Asgeirsson, H. Jonsson                     : NEB implementation
   FAccTs GmbH                                   : IRC, NEB, NEB-TS, DLPNO-Multilevel, CI-OPT
                                                   MM, QMMM, 2- and 3-layer-ONIOM, Crystal-QMMM,
                                                   LR-CPCM, SF, NACMEs, symmetry and pop. for TD-DFT,
                                                   nearIR, NL-DFT gradient (VV10), updates on ESD,
                                                   ML-optimized integration grids
   S Lehtola, MJT Oliveira, MAL Marques          : LibXC Library
   Liviu Ungur et al                             : ANISO software


 Your calculation uses the libint2 library for the computation of 2-el integrals
 For citations please refer to: http://libint.valeyev.net

 Your ORCA version has been built with support for libXC version: 5.1.0
 For citations please refer to: https://tddft.org/programs/libxc/

 This ORCA versions uses:
   CBLAS   interface :  Fast vector & matrix operations
   LAPACKE interface :  Fast linear algebra routines
   SCALAPACK package :  Parallel linear algebra routines
   Shared memory     :  Shared parallel matrices
   BLAS/LAPACK       :  OpenBLAS 0.3.15  USE64BITINT DYNAMIC_ARCH NO_AFFINITY SkylakeX SINGLE_THREADED
        Core in use  :  SkylakeX
   Copyright (c) 2011-2014, The OpenBLAS Project


Your calculation utilizes the DFT-NL dispersion correction.
Cite in your paper:
Vydrov, O. A.; Van Voorhis, T. J. Chem. Phys. 2010, 133, 244103
Hujo, W.; Grimme, S. J. Chem. Theory Comput. 2011, 7, 3866 
   

================================================================================

----- Orbital basis set information -----
Your calculation utilizes the basis: def2-TZVPP
   F. Weigend and R. Ahlrichs, Phys. Chem. Chem. Phys. 7, 3297 (2005).

----- AuxJ basis set information -----
Your calculation utilizes the auxiliary basis: def2/J
   F. Weigend, Phys. Chem. Chem. Phys. 8, 1057 (2006).

================================================================================
                                        WARNINGS
                       Please study these warnings very carefully!
================================================================================

Using LibXC functional ID 531 : wB97M-V exchange-correlation functional
[ 1]  N. Mardirossian and M. Head-Gordon, J. Chem. Phys. 144, 214110 (2016)
Using LibXC functional ID 531 : wB97M-V exchange-correlation functional
[ 1]  N. Mardirossian and M. Head-Gordon, J. Chem. Phys. 144, 214110 (2016)

WARNING: B97M-V or wB97M-V functional requested.
  ===> : libXC variant has now been activated.
         Any manually given DFX/HFX/RangeSep scaling parameters are IGNORED!

Your calculation utilizes LibXC
 by S Lehtola, C Steigemann, MJT Oliveira & MAL Marques
Please cite in your paper:
 S Lehtola, C Steigemann, MJT Oliveira & MAL Marques, SoftwareX, 7, (2018), 1.
   


WARNING: your system is open-shell and RHF/RKS was chosen
  ===> : WILL SWITCH to UHF/UKS


INFO   : the flag for use of the SHARK integral package has been found!

================================================================================
                                       INPUT FILE
================================================================================
NAME = arbr_12_r2scan3c_wB97MV_red.inp
|  1> %PAL NPROCS 16 END
|  2> %maxcore 4000
|  3> # arbr_12_r2scan3c.out
|  4> ! wB97m-v def2-TZVPP def2/J RIJCOSX Hirshfeld
|  5> * xyz -1 2
|  6>   Br       -1.78155         0.00474        -0.00000
|  7>    C        0.10751         0.01649         0.00000
|  8>    C        0.80471         1.21144        -0.00000
|  9>    C        2.18873         1.15091         0.00000
| 10>    C        2.80285        -0.09374        -0.00001
| 11>    N        2.12869        -1.23916         0.00000
| 12>    C        0.80304        -1.18546         0.00001
| 13>    H        0.27927         2.15678         0.00000
| 14>    H        2.78169         2.05530         0.00001
| 15>    H        3.88387        -0.17403         0.00001
| 16>    H        0.26746        -2.12776         0.00000
| 17> *
| 18> 
| 19>                          ****END OF INPUT****
================================================================================

                       ****************************
                       * Single Point Calculation *
                       ****************************

---------------------------------
CARTESIAN COORDINATES (ANGSTROEM)
---------------------------------
  Br    -1.781550    0.004740   -0.000000
  C      0.107510    0.016490    0.000000
  C      0.804710    1.211440   -0.000000
  C      2.188730    1.150910    0.000000
  C      2.802850   -0.093740   -0.000010
  N      2.128690   -1.239160    0.000000
  C      0.803040   -1.185460    0.000010
  H      0.279270    2.156780    0.000000
  H      2.781690    2.055300    0.000010
  H      3.883870   -0.174030    0.000010
  H      0.267460   -2.127760    0.000000

----------------------------
CARTESIAN COORDINATES (A.U.)
----------------------------
  NO LB      ZA    FRAG     MASS         X           Y           Z
   0 Br   35.0000    0    79.900   -3.366642    0.008957   -0.000000
   1 C     6.0000    0    12.011    0.203164    0.031162    0.000000
   2 C     6.0000    0    12.011    1.520682    2.289290   -0.000000
   3 C     6.0000    0    12.011    4.136100    2.174905    0.000000
   4 C     6.0000    0    12.011    5.296619   -0.177143   -0.000019
   5 N     7.0000    0    14.007    4.022641   -2.341673    0.000000
   6 C     6.0000    0    12.011    1.517526   -2.240195    0.000019
   7 H     1.0000    0     1.008    0.527744    4.075724    0.000000
   8 H     1.0000    0     1.008    5.256632    3.883954    0.000019
   9 H     1.0000    0     1.008    7.339451   -0.328869    0.000019
  10 H     1.0000    0     1.008    0.505426   -4.020884    0.000000

--------------------------------
INTERNAL COORDINATES (ANGSTROEM)
--------------------------------
 Br     0   0   0     0.000000000000     0.00000000     0.00000000
 C      1   0   0     1.889096542292     0.00000000     0.00000000
 C      2   1   0     1.383471482359   120.61803063     0.00000000
 C      3   2   1     1.385343004927   117.75742372   180.00000000
 C      4   3   2     1.387911019122   118.76632059     0.00000000
 N      5   4   3     1.329089418399   123.25811395     0.00000000
 C      6   5   4     1.326737205554   118.16010199     0.00000000
 H      3   2   1     1.081552083443   120.67211316     0.00000000
 H      4   3   2     1.081444789992   120.74647564   180.00061646
 H      5   4   3     1.083997566833   120.50978875   180.00124364
 H      7   6   5     1.083870484191   117.29313445   179.99892453

---------------------------
INTERNAL COORDINATES (A.U.)
---------------------------
 Br     0   0   0     0.000000000000     0.00000000     0.00000000
 C      1   0   0     3.569875105470     0.00000000     0.00000000
 C      2   1   0     2.614382215748   120.61803063     0.00000000
 C      3   2   1     2.617918880855   117.75742372   180.00000000
 C      4   3   2     2.622771724392   118.76632059     0.00000000
 N      5   4   3     2.511615008267   123.25811395     0.00000000
 C      6   5   4     2.507169970180   118.16010199     0.00000000
 H      3   2   1     2.043837237279   120.67211316     0.00000000
 H      4   3   2     2.043634482040   120.74647564   180.00061646
 H      5   4   3     2.048458531151   120.50978875   180.00124364
 H      7   6   5     2.048218379761   117.29313445   179.99892453

---------------------
BASIS SET INFORMATION
---------------------
There are 4 groups of distinct atoms

 Group   1 Type Br  : 17s13p8d1f contracted to 6s5p4d1f pattern {842111/64111/5111/1}
 Group   2 Type C   : 11s6p2d1f contracted to 5s3p2d1f pattern {62111/411/11/1}
 Group   3 Type N   : 11s6p2d1f contracted to 5s3p2d1f pattern {62111/411/11/1}
 Group   4 Type H   : 5s2p1d contracted to 3s2p1d pattern {311/11/1}

Atom   0Br   basis set group =>   1
Atom   1C    basis set group =>   2
Atom   2C    basis set group =>   2
Atom   3C    basis set group =>   2
Atom   4C    basis set group =>   2
Atom   5N    basis set group =>   3
Atom   6C    basis set group =>   2
Atom   7H    basis set group =>   4
Atom   8H    basis set group =>   4
Atom   9H    basis set group =>   4
Atom  10H    basis set group =>   4
---------------------------------
AUXILIARY/J BASIS SET INFORMATION
---------------------------------
There are 4 groups of distinct atoms

 Group   1 Type Br  : 19s5p5d3f1g contracted to 8s4p3d2f1g pattern {121111111/2111/311/21/1}
 Group   2 Type C   : 12s5p4d2f1g contracted to 6s4p3d1f1g pattern {711111/2111/211/2/1}
 Group   3 Type N   : 12s5p4d2f1g contracted to 6s4p3d1f1g pattern {711111/2111/211/2/1}
 Group   4 Type H   : 5s2p1d contracted to 3s1p1d pattern {311/2/1}

Atom   0Br   basis set group =>   1
Atom   1C    basis set group =>   2
Atom   2C    basis set group =>   2
Atom   3C    basis set group =>   2
Atom   4C    basis set group =>   2
Atom   5N    basis set group =>   3
Atom   6C    basis set group =>   2
Atom   7H    basis set group =>   4
Atom   8H    basis set group =>   4
Atom   9H    basis set group =>   4
Atom  10H    basis set group =>   4


           ************************************************************
           *        Program running with 16 parallel MPI-processes    *
           *              working on a common directory               *
           ************************************************************
------------------------------------------------------------------------------
                           ORCA GTO INTEGRAL CALCULATION
                           -- RI-GTO INTEGRALS CHOSEN --
------------------------------------------------------------------------------
------------------------------------------------------------------------------
                   ___                                                        
                  /   \      - P O W E R E D   B Y -                         
                 /     \                                                     
                 |  |  |   _    _      __       _____    __    __             
                 |  |  |  | |  | |    /  \     |  _  \  |  |  /  |          
                  \  \/   | |  | |   /    \    | | | |  |  | /  /          
                 / \  \   | |__| |  /  /\  \   | |_| |  |  |/  /          
                |  |  |   |  __  | /  /__\  \  |    /   |      \           
                |  |  |   | |  | | |   __   |  |    \   |  |\   \          
                \     /   | |  | | |  |  |  |  | |\  \  |  | \   \       
                 \___/    |_|  |_| |__|  |__|  |_| \__\ |__|  \__/        
                                                                              
                      - O R C A' S   B I G   F R I E N D -                    
                                      &                                       
                       - I N T E G R A L  F E E D E R -                       
                                                                              
 v1 FN, 2020, v2 2021                                                         
------------------------------------------------------------------------------


Reading SHARK input file arbr_12_r2scan3c_wB97MV_red.SHARKINP.tmp ... ok
----------------------
SHARK INTEGRAL PACKAGE
----------------------

Number of atoms                             ...     11
Number of basis functions                   ...    290
Number of shells                            ...    106
Maximum angular momentum                    ...      3
Integral batch strategy                     ... SHARK/LIBINT Hybrid
RI-J (if used) integral strategy            ... SPLIT-RIJ (Revised 2003 algorithm where possible)
Printlevel                                  ...      1
Contraction scheme used                     ... SEGMENTED contraction
Coulomb Range Separation                    ... NOT USED
Exchange Range Separation                   ... Long Range
   Mu parameter                             ...  0.300000
   Scaling (regular/separated)              ...  0.150000  0.850000
Finite Nucleus Model                        ... NOT USED
Auxiliary Coulomb fitting basis             ... AVAILABLE
   # of basis functions in Aux-J            ...    396
   # of shells in Aux-J                     ...    128
   Maximum angular momentum in Aux-J        ...      4
Auxiliary J/K fitting basis                 ... NOT available
Auxiliary Correlation fitting basis         ... NOT available
Auxiliary 'external' fitting basis          ... NOT available
Integral threshold                          ...     1.000000e-10
Primitive cut-off                           ...     1.000000e-11
Primitive pair pre-selection threshold      ...     1.000000e-11

Calculating pre-screening integrals         ... done (  0.0 sec) Dimension = 106
Organizing shell pair data                  ... done (  0.1 sec)
Shell pair information
Total number of shell pairs                 ...      5671
Shell pairs after pre-screening             ...      5174
Total number of primitive shell pairs       ...     18546
Primitive shell pairs kept                  ...     12642
          la=0 lb=0:   1020 shell pairs
          la=1 lb=0:   1372 shell pairs
          la=1 lb=1:    473 shell pairs
          la=2 lb=0:    852 shell pairs
          la=2 lb=1:    576 shell pairs
          la=2 lb=2:    194 shell pairs
          la=3 lb=0:    316 shell pairs
          la=3 lb=1:    208 shell pairs
          la=3 lb=2:    135 shell pairs
          la=3 lb=3:     28 shell pairs

Calculating one electron integrals          ... done (  0.0 sec)
Calculating RI/J V-Matrix + Cholesky decomp.... done (  0.0 sec)
Calculating Nuclear repulsion               ... done (  0.0 sec) ENN=    436.772231608632 Eh

SHARK setup successfully completed in   0.3 seconds

Maximum memory used throughout the entire GTOINT-calculation: 22.4 MB


           ************************************************************
           *        Program running with 16 parallel MPI-processes    *
           *              working on a common directory               *
           ************************************************************
-------------------------------------------------------------------------------
                                 ORCA SCF
-------------------------------------------------------------------------------

------------
SCF SETTINGS
------------
Hamiltonian:
 Density Functional     Method          .... DFT(GTOs)
  Functional kind                       .... Exchange-Correlation
  Functional name                       .... wB97M-V exchange-correlation functional
  Functional family                     .... Hybrid MGGA
  Functional refs                              
    [ 0] N. Mardirossian and M. Head-Gordon, J. Chem. Phys. 144, 214110 (2016)
  Fraction of HF Exchange (short range) .... 0.1500
  Fraction of HF Exchange (long range)  .... 1.0000
  Range separation parameter mu         .... 0.3000
  Functional external parameters         .... 0
   Density functional embedding theory  .... OFF
 Long-range corrected/Screened/Range-Separated Hybrid DFT is turned on
   Amount of maximum screened exact exchange              ....  0.850000
   Range separation parameter mu (erf(mu*r12)/r12)        ....  0.300000
   NL short-range parameter             ....  6.000000
   NL long-range parameter              ....  0.010000
 RI-approximation to the Coulomb term is turned on
   Number of AuxJ basis functions       .... 396
   RIJ-COSX (HFX calculated with COS-X)).... on


General Settings:
 Integral files         IntName         .... arbr_12_r2scan3c_wB97MV_red
 Hartree-Fock type      HFTyp           .... UHF
 Total Charge           Charge          ....   -1
 Multiplicity           Mult            ....    2
 Number of Electrons    NEL             ....   77
 Basis Dimension        Dim             ....  290
 Nuclear Repulsion      ENuc            ....    436.7722316086 Eh

Convergence Acceleration:
 DIIS                   CNVDIIS         .... on
   Start iteration      DIISMaxIt       ....    12
   Startup error        DIISStart       ....  0.200000
   # of expansion vecs  DIISMaxEq       ....     5
   Bias factor          DIISBfac        ....   1.050
   Max. coefficient     DIISMaxC        ....  10.000
 Trust-Rad. Augm. Hess. CNVTRAH         .... auto
   Auto Start mean grad. ratio tolernc. ....  1.125000
   Auto Start start iteration           ....    20
   Auto Start num. interpolation iter.  ....    10
   Max. Number of Micro iterations      ....    16
   Max. Number of Macro iterations      .... Maxiter - #DIIS iter
   Number of Davidson start vectors     ....     2
   Converg. threshold I  (grad. norm)   ....   5.000e-05
   Converg. threshold II (energy diff.) ....   1.000e-06
   Grad. Scal. Fac. for Micro threshold ....   0.100
   Minimum threshold for Micro iter.    ....   0.010
   NR start threshold (gradient norm)   ....   0.001
   Initial trust radius                 ....   0.400
   Minimum AH scaling param. (alpha)    ....   1.000
   Maximum AH scaling param. (alpha)    .... 1000.000
   Orbital update algorithm             .... Taylor
   White noise on init. David. guess    .... on
   Maximum white noise                  ....   0.010
   Quad. conv. algorithm                .... NR
 SOSCF                  CNVSOSCF        .... off
 Level Shifting         CNVShift        .... on
   Level shift para.    LevelShift      ....    0.2500
   Turn off err/grad.   ShiftErr        ....    0.0010
 Zerner damping         CNVZerner       .... off
 Static damping         CNVDamp         .... on
   Fraction old density DampFac         ....    0.7000
   Max. Damping (<1)    DampMax         ....    0.9800
   Min. Damping (>=0)   DampMin         ....    0.0000
   Turn off err/grad.   DampErr         ....    0.1000
 Fernandez-Rico         CNVRico         .... off

SCF Procedure:
 Maximum # iterations   MaxIter         ....   125
 SCF integral mode      SCFMode         .... Direct
   Integral package                     .... SHARK and LIBINT hybrid scheme
 Reset frequency        DirectResetFreq ....    20
 Integral Threshold     Thresh          ....  1.000e-10 Eh
 Primitive CutOff       TCut            ....  1.000e-11 Eh

Convergence Tolerance:
 Convergence Check Mode ConvCheckMode   .... Total+1el-Energy
 Convergence forced     ConvForced      .... 0
 Energy Change          TolE            ....  1.000e-06 Eh
 1-El. energy change                    ....  1.000e-03 Eh
 DIIS Error             TolErr          ....  1.000e-06


Diagonalization of the overlap matrix:
Smallest eigenvalue                        ... 4.932e-05
Time for diagonalization                   ...    0.011 sec
Threshold for overlap eigenvalues          ... 1.000e-08
Number of eigenvalues below threshold      ... 0
Time for construction of square roots      ...    0.008 sec
Total time needed                          ...    0.020 sec

Time for model grid setup =    0.055 sec

------------------------------
INITIAL GUESS: MODEL POTENTIAL
------------------------------
Loading Hartree-Fock densities                     ... done
Calculating cut-offs                               ... done
Initializing the effective Hamiltonian             ... done
Setting up the integral package (SHARK)            ... done
Starting the Coulomb interaction                   ... done (   0.0 sec)
Reading the grid                                   ... done
Mapping shells                                     ... done
Starting the XC term evaluation                    ... done (   0.0 sec)
  promolecular density results
     # of electrons  =     75.999079443
     EX              =   -122.570623354
     EC              =     -3.082872274
     EX+EC           =   -125.653495627
Transforming the Hamiltonian                       ... done (   0.0 sec)
Diagonalizing the Hamiltonian                      ... done (   0.0 sec)
Back transforming the eigenvectors                 ... done (   0.0 sec)
Now organizing SCF variables                       ... done
                      ------------------
                      INITIAL GUESS DONE (   0.1 sec)
                      ------------------
-------------------
DFT GRID GENERATION
-------------------

General Integration Accuracy     IntAcc      ... 4.388
Radial Grid Type                 RadialGrid  ... OptM3 with GC (2021)
Angular Grid (max. ang.)         AngularGrid ... 4 (Lebedev-302)
Angular grid pruning method      GridPruning ... 4 (adaptive)
Weight generation scheme         WeightScheme... Becke
Basis function cutoff            BFCut       ... 1.0000e-10
Integration weight cutoff        WCut        ... 1.0000e-14
Angular grids for H and He will be reduced by one unit
Partially contracted basis set               ... off
Rotationally invariant grid construction     ... off

Total number of grid points                  ...    60380
Total number of batches                      ...      950
Average number of points per batch           ...       63
Average number of grid points per atom       ...     5489
Time for grid setup =    0.282 sec

--------------------
COSX GRID GENERATION
--------------------

GRIDX 1
-------
General Integration Accuracy     IntAcc      ... 3.816
Radial Grid Type                 RadialGrid  ... OptM3 with GC (2021)
Angular Grid (max. ang.)         AngularGrid ... 1 (Lebedev-50)
Angular grid pruning method      GridPruning ... 4 (adaptive)
Weight generation scheme         WeightScheme... Becke
Basis function cutoff            BFCut       ... 1.0000e-10
Integration weight cutoff        WCut        ... 1.0000e-14
Angular grids for H and He will be reduced by one unit
Partially contracted basis set               ... on
Rotationally invariant grid construction     ... off

Total number of grid points                  ...     7495
Total number of batches                      ...      121
Average number of points per batch           ...       61
Average number of grid points per atom       ...      681
UseSFitting                                  ... on

GRIDX 2
-------
General Integration Accuracy     IntAcc      ... 4.020
Radial Grid Type                 RadialGrid  ... OptM3 with GC (2021)
Angular Grid (max. ang.)         AngularGrid ... 2 (Lebedev-110)
Angular grid pruning method      GridPruning ... 4 (adaptive)
Weight generation scheme         WeightScheme... Becke
Basis function cutoff            BFCut       ... 1.0000e-10
Integration weight cutoff        WCut        ... 1.0000e-14
Angular grids for H and He will be reduced by one unit
Partially contracted basis set               ... on
Rotationally invariant grid construction     ... off

Total number of grid points                  ...    16621
Total number of batches                      ...      265
Average number of points per batch           ...       62
Average number of grid points per atom       ...     1511
UseSFitting                                  ... on

GRIDX 3
-------
General Integration Accuracy     IntAcc      ... 4.338
Radial Grid Type                 RadialGrid  ... OptM3 with GC (2021)
Angular Grid (max. ang.)         AngularGrid ... 3 (Lebedev-194)
Angular grid pruning method      GridPruning ... 4 (adaptive)
Weight generation scheme         WeightScheme... Becke
Basis function cutoff            BFCut       ... 1.0000e-10
Integration weight cutoff        WCut        ... 1.0000e-14
Angular grids for H and He will be reduced by one unit
Partially contracted basis set               ... on
Rotationally invariant grid construction     ... off

Total number of grid points                  ...    36937
Total number of batches                      ...      584
Average number of points per batch           ...       63
Average number of grid points per atom       ...     3358
UseSFitting                                  ... on

Time for X-Grid setup             =    0.211 sec

--------------
SCF ITERATIONS
--------------
ITER       Energy         Delta-E        Max-DP      RMS-DP      [F,P]     Damp
               ***  Starting incremental Fock matrix formation  ***
  0  -2821.6424708593   0.000000000000 0.07082170  0.00080476  0.1417798 0.7000
  1  -2821.7794110629  -0.136940203660 0.07494530  0.00081419  0.0785473 0.7000
                               ***Turning on DIIS***
  2  -2821.8460880985  -0.066677035587 0.14517992  0.00165623  0.0367166 0.0000
  3  -2821.9509951401  -0.104907041555 0.06023886  0.00056978  0.0381802 0.0000
  4  -2821.9716008970  -0.020605756920 0.01674756  0.00020124  0.0055981 0.0000
  5  -2821.9725030885  -0.000902191518 0.00897251  0.00010365  0.0038426 0.0000
  6  -2821.9726980820  -0.000194993429 0.00266197  0.00004709  0.0018551 0.0000
  7  -2821.9727731677  -0.000075085718 0.00293985  0.00004783  0.0008368 0.0000
               *** Restarting incremental Fock matrix formation ***
                                   *** Resetting DIIS ***
  8  -2821.9727881467  -0.000014979037 0.00164949  0.00002462  0.0004264 0.0000
  9  -2821.9728066726  -0.000018525856 0.00092917  0.00000981  0.0004012 0.0000
 10  -2821.9728165903  -0.000009917702 0.00300672  0.00003023  0.0003612 0.0000
 11  -2821.9728446304  -0.000028040170 0.00299667  0.00003080  0.0003189 0.0000
 12  -2821.9728704067  -0.000025776221 0.00408930  0.00004172  0.0003367 0.0000
 13  -2821.9729006442  -0.000030237573 0.00600043  0.00006317  0.0002717 0.0000
 14  -2821.9729366255  -0.000035981298 0.00767765  0.00008203  0.0002215 0.0000
 15  -2821.9729650013  -0.000028375802 0.00331208  0.00003516  0.0001294 0.0000
 16  -2821.9729709660  -0.000005964669 0.00277657  0.00003016  0.0000823 0.0000
 17  -2821.9729729574  -0.000001991393 0.00033989  0.00000379  0.0000357 0.0000
 18  -2821.9729730006  -0.000000043180 0.00018373  0.00000201  0.0000186 0.0000
                 **** Energy Check signals convergence ****

               *****************************************************
               *                     SUCCESS                       *
               *           SCF CONVERGED AFTER  19 CYCLES          *
               *****************************************************

Old exchange energy                            =    -29.002947884 Eh
New exchange energy                            =    -29.002944566 Eh
Exchange energy change after final integration =      0.000003318 Eh
Total energy after final integration           =  -2821.972969649 Eh
Final COS-X integration done in                =     2.552 sec

------------------
NL GRID GENERATION
------------------

General Integration Accuracy     IntAcc      ... 4.004
Radial Grid Type                 RadialGrid  ... OptM3 with GC (2021)
Angular Grid (max. ang.)         AngularGrid ... 2 (Lebedev-110)
Angular grid pruning method      GridPruning ... 4 (adaptive)
Weight generation scheme         WeightScheme... Becke
Basis function cutoff            BFCut       ... 1.0000e-10
Integration weight cutoff        WCut        ... 1.0000e-14
Angular grids for H and He will be reduced by one unit
Partially contracted basis set               ... off
Rotationally invariant grid construction     ... off

Total number of grid points                  ...    21362
Total number of batches                      ...      339
Average number of points per batch           ...       63
Average number of grid points per atom       ...     1942
Final grid set up in    0.1 sec

-------------------------------------------------------------------------------
                    post-SCF DFT-NL dispersion correction                      
-------------------------------------------------------------------------------

SCF Energy:   -2821.972969649 
NL    Energy:  0.302969214 
SC+NL Energy: -2821.670000435 
NL done in:    0.2 sec
-------------------------------------------------------------------------------

----------------
TOTAL SCF ENERGY
----------------

Total Energy       :        -2821.67000043 Eh          -76781.54421 eV

Components:
Nuclear Repulsion  :          436.77223161 Eh           11885.17665 eV
Electronic Energy  :        -3258.44223204 Eh          -88666.72086 eV
One Electron Energy:        -4798.28189589 Eh         -130567.88833 eV
Two Electron Energy:         1539.83966384 Eh           41901.16747 eV
Max COSX asymmetry :            0.00000198 Eh               0.00005 eV

Virial components:
Potential Energy   :        -5640.03401374 Eh         -153473.12794 eV
Kinetic Energy     :         2818.36401331 Eh           76691.58373 eV
Virial Ratio       :            2.00117302


DFT components:
N(Alpha)           :       38.999994741700 electrons
N(Beta)            :       37.999994565646 electrons
N(Total)           :       76.999989307346 electrons
NL Energy, E(C,NL) :        0.302969213997 Eh       
E(XC)              :      -97.986326311851 Eh       
DFET-embed. en.    :        0.000000000000 Eh       

---------------
SCF CONVERGENCE
---------------

  Last Energy change         ...    3.3580e-08  Tolerance :   1.0000e-06
  Last MAX-Density change    ...    0.0000e+00  Tolerance :   1.0000e-05
  Last RMS-Density change    ...    0.0000e+00  Tolerance :   1.0000e-06
  Last DIIS Error            ...    1.3353e-05  Tolerance :   1.0000e-06

             **** THE GBW FILE WAS UPDATED (arbr_12_r2scan3c_wB97MV_red.gbw) ****
             **** DENSITY arbr_12_r2scan3c_wB97MV_red.scfp WAS UPDATED ****
             **** ENERGY FILE WAS UPDATED (arbr_12_r2scan3c_wB97MV_red.en.tmp) ****
----------------------
UHF SPIN CONTAMINATION
----------------------

Warning: in a DFT calculation there is little theoretical justification to 
         calculate <S**2> as in Hartree-Fock theory. We will do it anyways
         but you should keep in mind that the values have only limited relevance

Expectation value of <S**2>     :     0.760440
Ideal value S*(S+1) for S=0.5   :     0.750000
Deviation                       :     0.010440

             **** THE GBW FILE WAS UPDATED (arbr_12_r2scan3c_wB97MV_red.gbw) ****
             **** DENSITY arbr_12_r2scan3c_wB97MV_red.scfp WAS UPDATED ****
----------------
ORBITAL ENERGIES
----------------
                 SPIN UP ORBITALS
  NO   OCC          E(Eh)            E(eV) 
   0   1.0000    -483.349222    -13152.6010 
   1   1.0000     -62.654522     -1704.9162 
   2   1.0000     -56.340788     -1533.1108 
   3   1.0000     -56.339159     -1533.0665 
   4   1.0000     -56.338967     -1533.0612 
   5   1.0000     -14.276400      -388.4806 
   6   1.0000     -10.211467      -277.8681 
   7   1.0000     -10.186753      -277.1956 
   8   1.0000     -10.181072      -277.0411 
   9   1.0000     -10.161065      -276.4966 
  10   1.0000     -10.141926      -275.9758 
  11   1.0000      -8.738064      -237.7748 
  12   1.0000      -6.522791      -177.4942 
  13   1.0000      -6.513778      -177.2489 
  14   1.0000      -6.513682      -177.2463 
  15   1.0000      -2.604036       -70.8594 
  16   1.0000      -2.601413       -70.7881 
  17   1.0000      -2.601319       -70.7855 
  18   1.0000      -2.593986       -70.5859 
  19   1.0000      -2.593984       -70.5859 
  20   1.0000      -0.876046       -23.8384 
  21   1.0000      -0.783628       -21.3236 
  22   1.0000      -0.722044       -19.6478 
  23   1.0000      -0.674393       -18.3512 
  24   1.0000      -0.562934       -15.3182 
  25   1.0000      -0.543083       -14.7781 
  26   1.0000      -0.449996       -12.2450 
  27   1.0000      -0.403780       -10.9874 
  28   1.0000      -0.384022       -10.4498 
  29   1.0000      -0.342229        -9.3125 
  30   1.0000      -0.338223        -9.2035 
  31   1.0000      -0.317132        -8.6296 
  32   1.0000      -0.280371        -7.6293 
  33   1.0000      -0.266287        -7.2460 
  34   1.0000      -0.236196        -6.4272 
  35   1.0000      -0.204775        -5.5722 
  36   1.0000      -0.169323        -4.6075 
  37   1.0000      -0.164532        -4.4771 
  38   1.0000       0.017146         0.4666 
  39   0.0000       0.241983         6.5847 
  40   0.0000       0.242712         6.6045 
  41   0.0000       0.274815         7.4781 
  42   0.0000       0.289564         7.8794 
  43   0.0000       0.297355         8.0914 
  44   0.0000       0.313578         8.5329 
  45   0.0000       0.348199         9.4750 
  46   0.0000       0.361573         9.8389 
  47   0.0000       0.367157         9.9908 
  48   0.0000       0.402368        10.9490 
  49   0.0000       0.427914        11.6441 
  50   0.0000       0.429174        11.6784 
  51   0.0000       0.444713        12.1013 
  52   0.0000       0.448165        12.1952 
  53   0.0000       0.461399        12.5553 
  54   0.0000       0.467002        12.7078 
  55   0.0000       0.469510        12.7760 
  56   0.0000       0.475703        12.9445 
  57   0.0000       0.500336        13.6148 
  58   0.0000       0.505130        13.7453 
  59   0.0000       0.536436        14.5972 
  60   0.0000       0.544935        14.8284 
  61   0.0000       0.569808        15.5053 
  62   0.0000       0.583440        15.8762 
  63   0.0000       0.583636        15.8815 
  64   0.0000       0.594626        16.1806 
  65   0.0000       0.607591        16.5334 
  66   0.0000       0.624362        16.9898 
  67   0.0000       0.626875        17.0581 
  68   0.0000       0.633002        17.2249 
  69   0.0000       0.650689        17.7062 
  70   0.0000       0.660157        17.9638 
  71   0.0000       0.668326        18.1861 
  72   0.0000       0.697282        18.9740 
  73   0.0000       0.712972        19.4010 
  74   0.0000       0.719357        19.5747 
  75   0.0000       0.751855        20.4590 
  76   0.0000       0.761199        20.7133 
  77   0.0000       0.769165        20.9300 
  78   0.0000       0.807239        21.9661 
  79   0.0000       0.815390        22.1879 
  80   0.0000       0.816897        22.2289 
  81   0.0000       0.854977        23.2651 
  82   0.0000       0.873166        23.7600 
  83   0.0000       0.885746        24.1024 
  84   0.0000       0.899992        24.4900 
  85   0.0000       0.915167        24.9030 
  86   0.0000       0.937701        25.5161 
  87   0.0000       0.950982        25.8775 
  88   0.0000       0.958884        26.0926 
  89   0.0000       0.978714        26.6322 
  90   0.0000       0.991548        26.9814 
  91   0.0000       1.015645        27.6371 
  92   0.0000       1.062544        28.9133 
  93   0.0000       1.074997        29.2522 
  94   0.0000       1.126500        30.6536 
  95   0.0000       1.152224        31.3536 
  96   0.0000       1.166215        31.7343 
  97   0.0000       1.171299        31.8727 
  98   0.0000       1.202487        32.7213 
  99   0.0000       1.222938        33.2778 
 100   0.0000       1.255641        34.1677 
 101   0.0000       1.266241        34.4562 
 102   0.0000       1.276753        34.7422 
 103   0.0000       1.294938        35.2370 
 104   0.0000       1.316380        35.8205 
 105   0.0000       1.348595        36.6971 
 106   0.0000       1.377311        37.4785 
 107   0.0000       1.396934        38.0125 
 108   0.0000       1.423550        38.7368 
 109   0.0000       1.442961        39.2650 
 110   0.0000       1.447473        39.3877 
 111   0.0000       1.459222        39.7074 
 112   0.0000       1.490104        40.5478 
 113   0.0000       1.502623        40.8885 
 114   0.0000       1.541137        41.9365 
 115   0.0000       1.557588        42.3841 
 116   0.0000       1.567304        42.6485 
 117   0.0000       1.578903        42.9641 
 118   0.0000       1.620796        44.1041 
 119   0.0000       1.625917        44.2434 
 120   0.0000       1.639753        44.6199 
 121   0.0000       1.649459        44.8841 
 122   0.0000       1.665856        45.3303 
 123   0.0000       1.669918        45.4408 
 124   0.0000       1.692746        46.0620 
 125   0.0000       1.713064        46.6148 
 126   0.0000       1.727534        47.0086 
 127   0.0000       1.748462        47.5781 
 128   0.0000       1.752198        47.6797 
 129   0.0000       1.764437        48.0128 
 130   0.0000       1.783567        48.5333 
 131   0.0000       1.791489        48.7489 
 132   0.0000       1.800100        48.9832 
 133   0.0000       1.822562        49.5944 
 134   0.0000       1.829413        49.7809 
 135   0.0000       1.848969        50.3130 
 136   0.0000       1.864846        50.7450 
 137   0.0000       1.890109        51.4325 
 138   0.0000       1.905891        51.8619 
 139   0.0000       1.915680        52.1283 
 140   0.0000       1.928544        52.4784 
 141   0.0000       1.959567        53.3225 
 142   0.0000       1.980983        53.9053 
 143   0.0000       1.992763        54.2258 
 144   0.0000       2.005428        54.5705 
 145   0.0000       2.033756        55.3413 
 146   0.0000       2.057471        55.9866 
 147   0.0000       2.062287        56.1177 
 148   0.0000       2.081968        56.6532 
 149   0.0000       2.122540        57.7573 
 150   0.0000       2.137756        58.1713 
 151   0.0000       2.184585        59.4456 
 152   0.0000       2.194074        59.7038 
 153   0.0000       2.235091        60.8199 
 154   0.0000       2.311113        62.8886 
 155   0.0000       2.330079        63.4047 
 156   0.0000       2.352109        64.0042 
 157   0.0000       2.435250        66.2665 
 158   0.0000       2.451014        66.6955 
 159   0.0000       2.533947        68.9522 
 160   0.0000       2.568277        69.8864 
 161   0.0000       2.645570        71.9896 
 162   0.0000       2.657111        72.3037 
 163   0.0000       2.676060        72.8193 
 164   0.0000       2.702657        73.5430 
 165   0.0000       2.744066        74.6698 
 166   0.0000       2.769502        75.3620 
 167   0.0000       2.788212        75.8711 
 168   0.0000       2.859746        77.8177 
 169   0.0000       2.887071        78.5612 
 170   0.0000       2.924292        79.5740 
 171   0.0000       2.958368        80.5013 
 172   0.0000       2.976569        80.9966 
 173   0.0000       2.985200        81.2314 
 174   0.0000       3.019725        82.1709 
 175   0.0000       3.031498        82.4913 
 176   0.0000       3.041810        82.7719 
 177   0.0000       3.067193        83.4626 
 178   0.0000       3.074558        83.6630 
 179   0.0000       3.122259        84.9610 
 180   0.0000       3.153295        85.8055 
 181   0.0000       3.189989        86.8040 
 182   0.0000       3.200865        87.1000 
 183   0.0000       3.223508        87.7161 
 184   0.0000       3.248919        88.4076 
 185   0.0000       3.260664        88.7272 
 186   0.0000       3.299027        89.7711 
 187   0.0000       3.311126        90.1003 
 188   0.0000       3.312584        90.1400 
 189   0.0000       3.316490        90.2463 
 190   0.0000       3.370651        91.7201 
 191   0.0000       3.384115        92.0865 
 192   0.0000       3.400306        92.5270 
 193   0.0000       3.411971        92.8445 
 194   0.0000       3.419857        93.0590 
 195   0.0000       3.448048        93.8262 
 196   0.0000       3.514708        95.6401 
 197   0.0000       3.521680        95.8298 
 198   0.0000       3.532072        96.1126 
 199   0.0000       3.539932        96.3264 
 200   0.0000       3.565851        97.0317 
 201   0.0000       3.594820        97.8200 
 202   0.0000       3.613806        98.3367 
 203   0.0000       3.622619        98.5765 
 204   0.0000       3.668128        99.8148 
 205   0.0000       3.669931        99.8639 
 206   0.0000       3.677067       100.0581 
 207   0.0000       3.714269       101.0704 
 208   0.0000       3.747990       101.9880 
 209   0.0000       3.762632       102.3864 
 210   0.0000       3.769610       102.5763 
 211   0.0000       3.784354       102.9775 
 212   0.0000       3.819314       103.9288 
 213   0.0000       3.893614       105.9506 
 214   0.0000       3.924738       106.7976 
 215   0.0000       3.929614       106.9302 
 216   0.0000       3.967252       107.9544 
 217   0.0000       4.028404       109.6184 
 218   0.0000       4.035549       109.8129 
 219   0.0000       4.052322       110.2693 
 220   0.0000       4.071061       110.7792 
 221   0.0000       4.093325       111.3850 
 222   0.0000       4.113459       111.9329 
 223   0.0000       4.114787       111.9690 
 224   0.0000       4.118672       112.0748 
 225   0.0000       4.135075       112.5211 
 226   0.0000       4.153989       113.0358 
 227   0.0000       4.184797       113.8741 
 228   0.0000       4.243719       115.4775 
 229   0.0000       4.264891       116.0536 
 230   0.0000       4.267163       116.1154 
 231   0.0000       4.304888       117.1420 
 232   0.0000       4.328604       117.7873 
 233   0.0000       4.377879       119.1281 
 234   0.0000       4.394584       119.5827 
 235   0.0000       4.398078       119.6778 
 236   0.0000       4.445280       120.9622 
 237   0.0000       4.461002       121.3900 
 238   0.0000       4.469143       121.6116 
 239   0.0000       4.486395       122.0810 
 240   0.0000       4.557101       124.0050 
 241   0.0000       4.560625       124.1009 
 242   0.0000       4.611451       125.4840 
 243   0.0000       4.613688       125.5448 
 244   0.0000       4.620808       125.7386 
 245   0.0000       4.657551       126.7384 
 246   0.0000       4.666265       126.9755 
 247   0.0000       4.683893       127.4552 
 248   0.0000       4.727668       128.6464 
 249   0.0000       4.753719       129.3553 
 250   0.0000       4.839702       131.6950 
 251   0.0000       4.877908       132.7346 
 252   0.0000       4.889527       133.0508 
 253   0.0000       4.905232       133.4782 
 254   0.0000       5.026130       136.7680 
 255   0.0000       5.041383       137.1830 
 256   0.0000       5.048078       137.3652 
 257   0.0000       5.081210       138.2668 
 258   0.0000       5.143108       139.9511 
 259   0.0000       5.171880       140.7340 
 260   0.0000       5.212387       141.8363 
 261   0.0000       5.242971       142.6685 
 262   0.0000       5.260800       143.1536 
 263   0.0000       5.294015       144.0575 
 264   0.0000       5.328809       145.0043 
 265   0.0000       5.371378       146.1626 
 266   0.0000       5.407847       147.1550 
 267   0.0000       5.434711       147.8860 
 268   0.0000       5.494853       149.5225 
 269   0.0000       5.509264       149.9147 
 270   0.0000       5.590869       152.1353 
 271   0.0000       5.597432       152.3139 
 272   0.0000       5.640352       153.4818 
 273   0.0000       5.641774       153.5205 
 274   0.0000       5.699975       155.1042 
 275   0.0000       5.806540       158.0040 
 276   0.0000       5.814599       158.2233 
 277   0.0000       5.984266       162.8402 
 278   0.0000       6.070614       165.1898 
 279   0.0000       6.137610       167.0128 
 280   0.0000       6.312077       171.7604 
 281   0.0000       6.420804       174.7190 
 282   0.0000       6.836552       186.0320 
 283   0.0000       8.051006       219.0790 
 284   0.0000      23.211999       631.6306 
 285   0.0000      23.549895       640.8252 
 286   0.0000      23.705361       645.0557 
 287   0.0000      23.850532       649.0060 
 288   0.0000      24.144407       657.0027 
 289   0.0000      33.089452       900.4098 

                 SPIN DOWN ORBITALS
  NO   OCC          E(Eh)            E(eV) 
   0   1.0000    -483.349233    -13152.6013 
   1   1.0000     -62.654515     -1704.9160 
   2   1.0000     -56.340804     -1533.1112 
   3   1.0000     -56.339161     -1533.0665 
   4   1.0000     -56.338955     -1533.0609 
   5   1.0000     -14.268839      -388.2748 
   6   1.0000     -10.211262      -277.8626 
   7   1.0000     -10.185953      -277.1739 
   8   1.0000     -10.180225      -277.0180 
   9   1.0000     -10.160800      -276.4894 
  10   1.0000     -10.135596      -275.8036 
  11   1.0000      -8.738071      -237.7750 
  12   1.0000      -6.522823      -177.4950 
  13   1.0000      -6.513783      -177.2490 
  14   1.0000      -6.513670      -177.2460 
  15   1.0000      -2.604060       -70.8601 
  16   1.0000      -2.601437       -70.7887 
  17   1.0000      -2.601310       -70.7852 
  18   1.0000      -2.593982       -70.5858 
  19   1.0000      -2.593967       -70.5854 
  20   1.0000      -0.867153       -23.5964 
  21   1.0000      -0.780445       -21.2370 
  22   1.0000      -0.714734       -19.4489 
  23   1.0000      -0.670271       -18.2390 
  24   1.0000      -0.553377       -15.0582 
  25   1.0000      -0.537366       -14.6225 
  26   1.0000      -0.445961       -12.1352 
  27   1.0000      -0.397978       -10.8295 
  28   1.0000      -0.381314       -10.3761 
  29   1.0000      -0.340815        -9.2740 
  30   1.0000      -0.322451        -8.7743 
  31   1.0000      -0.311202        -8.4682 
  32   1.0000      -0.276928        -7.5356 
  33   1.0000      -0.256670        -6.9843 
  34   1.0000      -0.235446        -6.4068 
  35   1.0000      -0.168050        -4.5729 
  36   1.0000      -0.154849        -4.2136 
  37   1.0000      -0.150857        -4.1050 
  38   0.0000       0.243516         6.6264 
  39   0.0000       0.243540         6.6270 
  40   0.0000       0.253754         6.9050 
  41   0.0000       0.275152         7.4873 
  42   0.0000       0.289746         7.8844 
  43   0.0000       0.298141         8.1128 
  44   0.0000       0.314242         8.5510 
  45   0.0000       0.349897         9.5212 
  46   0.0000       0.362008         9.8508 
  47   0.0000       0.389189        10.5904 
  48   0.0000       0.402443        10.9510 
  49   0.0000       0.427622        11.6362 
  50   0.0000       0.429765        11.6945 
  51   0.0000       0.448710        12.2100 
  52   0.0000       0.454026        12.3547 
  53   0.0000       0.460794        12.5388 
  54   0.0000       0.465937        12.6788 
  55   0.0000       0.470835        12.8121 
  56   0.0000       0.480004        13.0616 
  57   0.0000       0.501209        13.6386 
  58   0.0000       0.506155        13.7732 
  59   0.0000       0.539851        14.6901 
  60   0.0000       0.544975        14.8295 
  61   0.0000       0.573385        15.6026 
  62   0.0000       0.585192        15.9239 
  63   0.0000       0.586522        15.9601 
  64   0.0000       0.596116        16.2211 
  65   0.0000       0.610164        16.6034 
  66   0.0000       0.629933        17.1414 
  67   0.0000       0.630314        17.1517 
  68   0.0000       0.634978        17.2786 
  69   0.0000       0.652825        17.7643 
  70   0.0000       0.661045        17.9880 
  71   0.0000       0.670824        18.2541 
  72   0.0000       0.700506        19.0617 
  73   0.0000       0.716009        19.4836 
  74   0.0000       0.722782        19.6679 
  75   0.0000       0.753491        20.5035 
  76   0.0000       0.772150        21.0113 
  77   0.0000       0.772355        21.0168 
  78   0.0000       0.808478        21.9998 
  79   0.0000       0.818639        22.2763 
  80   0.0000       0.819397        22.2969 
  81   0.0000       0.857053        23.3216 
  82   0.0000       0.874753        23.8032 
  83   0.0000       0.887431        24.1482 
  84   0.0000       0.901226        24.5236 
  85   0.0000       0.915372        24.9085 
  86   0.0000       0.950852        25.8740 
  87   0.0000       0.953961        25.9586 
  88   0.0000       0.966719        26.3058 
  89   0.0000       0.981448        26.7066 
  90   0.0000       0.999145        27.1881 
  91   0.0000       1.018975        27.7277 
  92   0.0000       1.068669        29.0800 
  93   0.0000       1.077924        29.3318 
  94   0.0000       1.128043        30.6956 
  95   0.0000       1.157618        31.5004 
  96   0.0000       1.167115        31.7588 
  97   0.0000       1.175510        31.9873 
  98   0.0000       1.209897        32.9230 
  99   0.0000       1.227265        33.3956 
 100   0.0000       1.257270        34.2121 
 101   0.0000       1.274161        34.6717 
 102   0.0000       1.279291        34.8113 
 103   0.0000       1.298668        35.3385 
 104   0.0000       1.317564        35.8527 
 105   0.0000       1.353506        36.8308 
 106   0.0000       1.381195        37.5842 
 107   0.0000       1.399579        38.0845 
 108   0.0000       1.426863        38.8269 
 109   0.0000       1.445513        39.3344 
 110   0.0000       1.450712        39.4759 
 111   0.0000       1.463760        39.8309 
 112   0.0000       1.493100        40.6293 
 113   0.0000       1.509598        41.0782 
 114   0.0000       1.544242        42.0210 
 115   0.0000       1.562291        42.5121 
 116   0.0000       1.569592        42.7108 
 117   0.0000       1.582772        43.0694 
 118   0.0000       1.621994        44.1367 
 119   0.0000       1.632379        44.4193 
 120   0.0000       1.645818        44.7850 
 121   0.0000       1.652781        44.9744 
 122   0.0000       1.671521        45.4844 
 123   0.0000       1.674315        45.5604 
 124   0.0000       1.695512        46.1372 
 125   0.0000       1.728885        47.0454 
 126   0.0000       1.732108        47.1331 
 127   0.0000       1.754492        47.7421 
 128   0.0000       1.756467        47.7959 
 129   0.0000       1.766438        48.0672 
 130   0.0000       1.784711        48.5645 
 131   0.0000       1.796947        48.8974 
 132   0.0000       1.802356        49.0446 
 133   0.0000       1.830334        49.8059 
 134   0.0000       1.837452        49.9996 
 135   0.0000       1.852715        50.4150 
 136   0.0000       1.871499        50.9261 
 137   0.0000       1.895890        51.5898 
 138   0.0000       1.908140        51.9231 
 139   0.0000       1.925628        52.3990 
 140   0.0000       1.933410        52.6108 
 141   0.0000       1.960378        53.3446 
 142   0.0000       1.984158        53.9917 
 143   0.0000       1.998907        54.3930 
 144   0.0000       2.007694        54.6321 
 145   0.0000       2.036960        55.4285 
 146   0.0000       2.066278        56.2263 
 147   0.0000       2.067660        56.2639 
 148   0.0000       2.086397        56.7737 
 149   0.0000       2.128559        57.9210 
 150   0.0000       2.141305        58.2679 
 151   0.0000       2.189454        59.5781 
 152   0.0000       2.209632        60.1272 
 153   0.0000       2.241526        60.9950 
 154   0.0000       2.317162        63.0532 
 155   0.0000       2.333433        63.4959 
 156   0.0000       2.360149        64.2229 
 157   0.0000       2.442177        66.4550 
 158   0.0000       2.456785        66.8525 
 159   0.0000       2.542927        69.1966 
 160   0.0000       2.576602        70.1129 
 161   0.0000       2.664045        72.4923 
 162   0.0000       2.674355        72.7729 
 163   0.0000       2.687182        73.1219 
 164   0.0000       2.709720        73.7352 
 165   0.0000       2.749298        74.8122 
 166   0.0000       2.775609        75.5282 
 167   0.0000       2.803418        76.2849 
 168   0.0000       2.863028        77.9069 
 169   0.0000       2.895188        78.7821 
 170   0.0000       2.936659        79.9106 
 171   0.0000       2.967538        80.7508 
 172   0.0000       2.990546        81.3769 
 173   0.0000       2.991413        81.4005 
 174   0.0000       3.024332        82.2963 
 175   0.0000       3.036510        82.6276 
 176   0.0000       3.052552        83.0642 
 177   0.0000       3.076098        83.7049 
 178   0.0000       3.083003        83.8928 
 179   0.0000       3.129076        85.1465 
 180   0.0000       3.168795        86.2273 
 181   0.0000       3.198420        87.0334 
 182   0.0000       3.212263        87.4101 
 183   0.0000       3.237482        88.0964 
 184   0.0000       3.257100        88.6302 
 185   0.0000       3.269230        88.9603 
 186   0.0000       3.308021        90.0158 
 187   0.0000       3.319540        90.3293 
 188   0.0000       3.321120        90.3723 
 189   0.0000       3.327170        90.5369 
 190   0.0000       3.380386        91.9850 
 191   0.0000       3.392435        92.3129 
 192   0.0000       3.417866        93.0049 
 193   0.0000       3.421925        93.1153 
 194   0.0000       3.425346        93.2084 
 195   0.0000       3.453561        93.9762 
 196   0.0000       3.520488        95.7973 
 197   0.0000       3.529137        96.0327 
 198   0.0000       3.538478        96.2869 
 199   0.0000       3.554660        96.7272 
 200   0.0000       3.572988        97.2259 
 201   0.0000       3.602706        98.0346 
 202   0.0000       3.625350        98.6508 
 203   0.0000       3.632049        98.8331 
 204   0.0000       3.676163       100.0335 
 205   0.0000       3.678602       100.0998 
 206   0.0000       3.687888       100.3525 
 207   0.0000       3.725380       101.3727 
 208   0.0000       3.754321       102.1603 
 209   0.0000       3.769818       102.5820 
 210   0.0000       3.780212       102.8648 
 211   0.0000       3.789552       103.1190 
 212   0.0000       3.829415       104.2037 
 213   0.0000       3.901448       106.1638 
 214   0.0000       3.930321       106.9495 
 215   0.0000       3.936621       107.1209 
 216   0.0000       3.977513       108.2336 
 217   0.0000       4.033798       109.7652 
 218   0.0000       4.043826       110.0381 
 219   0.0000       4.062151       110.5367 
 220   0.0000       4.075317       110.8950 
 221   0.0000       4.097407       111.4961 
 222   0.0000       4.119491       112.0970 
 223   0.0000       4.123291       112.2004 
 224   0.0000       4.126672       112.2925 
 225   0.0000       4.141191       112.6875 
 226   0.0000       4.162997       113.2809 
 227   0.0000       4.191340       114.0522 
 228   0.0000       4.251128       115.6791 
 229   0.0000       4.267316       116.1196 
 230   0.0000       4.270656       116.2105 
 231   0.0000       4.309728       117.2737 
 232   0.0000       4.334939       117.9597 
 233   0.0000       4.385013       119.3223 
 234   0.0000       4.398137       119.6794 
 235   0.0000       4.409941       120.0006 
 236   0.0000       4.453644       121.1898 
 237   0.0000       4.472065       121.6911 
 238   0.0000       4.474029       121.7445 
 239   0.0000       4.492309       122.2419 
 240   0.0000       4.561995       124.1382 
 241   0.0000       4.567033       124.2753 
 242   0.0000       4.621687       125.7625 
 243   0.0000       4.626523       125.8941 
 244   0.0000       4.631270       126.0233 
 245   0.0000       4.660326       126.8139 
 246   0.0000       4.680569       127.3648 
 247   0.0000       4.691735       127.6686 
 248   0.0000       4.737825       128.9228 
 249   0.0000       4.764127       129.6385 
 250   0.0000       4.847747       131.9139 
 251   0.0000       4.884175       132.9052 
 252   0.0000       4.897912       133.2790 
 253   0.0000       4.917586       133.8143 
 254   0.0000       5.034886       137.0062 
 255   0.0000       5.050303       137.4257 
 256   0.0000       5.064856       137.8217 
 257   0.0000       5.107316       138.9771 
 258   0.0000       5.158137       140.3600 
 259   0.0000       5.201168       141.5310 
 260   0.0000       5.223896       142.1495 
 261   0.0000       5.254343       142.9779 
 262   0.0000       5.270002       143.4040 
 263   0.0000       5.323748       144.8665 
 264   0.0000       5.343446       145.4026 
 265   0.0000       5.384382       146.5165 
 266   0.0000       5.430899       147.7823 
 267   0.0000       5.450928       148.3273 
 268   0.0000       5.505091       149.8011 
 269   0.0000       5.525756       150.3635 
 270   0.0000       5.602124       152.4415 
 271   0.0000       5.614508       152.7785 
 272   0.0000       5.651266       153.7788 
 273   0.0000       5.659789       154.0107 
 274   0.0000       5.714781       155.5071 
 275   0.0000       5.823061       158.4535 
 276   0.0000       5.833255       158.7309 
 277   0.0000       5.994450       163.1173 
 278   0.0000       6.080945       165.4709 
 279   0.0000       6.147967       167.2947 
 280   0.0000       6.322327       172.0393 
 281   0.0000       6.432447       175.0358 
 282   0.0000       6.843347       186.2169 
 283   0.0000       8.051257       219.0859 
 284   0.0000      23.213427       631.6695 
 285   0.0000      23.551439       640.8672 
 286   0.0000      23.708993       645.1545 
 287   0.0000      23.852102       649.0487 
 288   0.0000      24.148357       657.1102 
 289   0.0000      33.095839       900.5836 

                    ********************************
                    * MULLIKEN POPULATION ANALYSIS *
                    ********************************

--------------------------------------------
MULLIKEN ATOMIC CHARGES AND SPIN POPULATIONS
--------------------------------------------
   0 Br:   -0.195687    0.004755
   1 C :    0.027117    0.031391
   2 C :   -0.304589    0.463404
   3 C :   -0.161998    0.048260
   4 C :   -0.092211    0.078794
   5 N :   -0.357545    0.339574
   6 C :   -0.108396    0.068232
   7 H :    0.050630   -0.019428
   8 H :    0.043425   -0.004235
   9 H :    0.045817   -0.005809
  10 H :    0.053436   -0.004938
Sum of atomic charges         :   -1.0000000
Sum of atomic spin populations:    1.0000000

-----------------------------------------------------
MULLIKEN REDUCED ORBITAL CHARGES AND SPIN POPULATIONS
-----------------------------------------------------
CHARGE
  0 Brs       :     7.850054  s :     7.850054
      pz      :     5.969765  p :    17.278250
      px      :     5.307336
      py      :     6.001148
      dz2     :     2.005950  d :    10.059936
      dxz     :     2.025184
      dyz     :     2.003241
      dx2y2   :     2.017676
      dxy     :     2.007885
      f0      :     0.000903  f :     0.007448
      f+1     :     0.001328
      f-1     :     0.000098
      f+2     :     0.001330
      f-2     :     0.000156
      f+3     :     0.002298
      f-3     :     0.001335
  1 C s       :     3.222043  s :     3.222043
      pz      :     1.059693  p :     2.574258
      px      :     0.705287
      py      :     0.809278
      dz2     :     0.008635  d :     0.167063
      dxz     :     0.018605
      dyz     :     0.042677
      dx2y2   :     0.058972
      dxy     :     0.038175
      f0      :     0.001922  f :     0.009518
      f+1     :     0.001020
      f-1     :     0.000674
      f+2     :     0.000591
      f-2     :     0.001220
      f+3     :     0.001281
      f-3     :     0.002811
  2 C s       :     3.214323  s :     3.214323
      pz      :     1.230042  p :     2.998262
      px      :     0.888234
      py      :     0.879986
      dz2     :     0.005113  d :     0.084240
      dxz     :     0.016856
      dyz     :     0.013551
      dx2y2   :     0.015038
      dxy     :     0.033681
      f0      :     0.001683  f :     0.007764
      f+1     :     0.000708
      f-1     :     0.000694
      f+2     :     0.000883
      f-2     :     0.000514
      f+3     :     0.001046
      f-3     :     0.002236
  3 C s       :     3.215646  s :     3.215646
      pz      :     1.053342  p :     2.842341
      px      :     0.884725
      py      :     0.904274
      dz2     :     0.005659  d :     0.096528
      dxz     :     0.030476
      dyz     :     0.010440
      dx2y2   :     0.017760
      dxy     :     0.032193
      f0      :     0.001482  f :     0.007483
      f+1     :     0.000628
      f-1     :     0.000621
      f+2     :     0.001217
      f-2     :     0.000359
      f+3     :     0.001035
      f-3     :     0.002141
  4 C s       :     3.177072  s :     3.177072
      pz      :     1.009079  p :     2.784344
      px      :     0.927789
      py      :     0.847476
      dz2     :     0.002789  d :     0.120156
      dxz     :     0.007354
      dyz     :     0.041705
      dx2y2   :     0.046443
      dxy     :     0.021865
      f0      :     0.001726  f :     0.010639
      f+1     :     0.000698
      f-1     :     0.000924
      f+2     :     0.000406
      f-2     :     0.001731
      f+3     :     0.001567
      f-3     :     0.003587
  5 N s       :     3.450968  s :     3.450968
      pz      :     1.298012  p :     3.844069
      px      :     1.103474
      py      :     1.442583
      dz2     :     0.006765  d :     0.058517
      dxz     :     0.011262
      dyz     :     0.008822
      dx2y2   :     0.017690
      dxy     :     0.013978
      f0      :     0.000717  f :     0.003991
      f+1     :     0.000440
      f-1     :     0.000322
      f+2     :     0.000478
      f-2     :     0.000320
      f+3     :     0.000828
      f-3     :     0.000886
  6 C s       :     3.161770  s :     3.161770
      pz      :     1.012974  p :     2.808843
      px      :     0.903757
      py      :     0.892112
      dz2     :     0.003078  d :     0.127049
      dxz     :     0.037896
      dyz     :     0.013742
      dx2y2   :     0.024199
      dxy     :     0.048134
      f0      :     0.001794  f :     0.010733
      f+1     :     0.001033
      f-1     :     0.000655
      f+2     :     0.001757
      f-2     :     0.000506
      f+3     :     0.001585
      f-3     :     0.003404
  7 H s       :     0.908309  s :     0.908309
      pz      :     0.019425  p :     0.038397
      px      :     0.008425
      py      :     0.010547
      dz2     :     0.000143  d :     0.002664
      dxz     :     0.000271
      dyz     :     0.000862
      dx2y2   :     0.000833
      dxy     :     0.000555
  8 H s       :     0.923470  s :     0.923470
      pz      :     0.013928  p :     0.030736
      px      :     0.008484
      py      :     0.008325
      dz2     :     0.000122  d :     0.002368
      dxz     :     0.000222
      dyz     :     0.000655
      dx2y2   :     0.000858
      dxy     :     0.000511
  9 H s       :     0.922813  s :     0.922813
      pz      :     0.013392  p :     0.028928
      px      :     0.009603
      py      :     0.005933
      dz2     :     0.000147  d :     0.002442
      dxz     :     0.000827
      dyz     :     0.000057
      dx2y2   :     0.000438
      dxy     :     0.000973
 10 H s       :     0.912709  s :     0.912709
      pz      :     0.013060  p :     0.031285
      px      :     0.007289
      py      :     0.010936
      dz2     :     0.000158  d :     0.002569
      dxz     :     0.000185
      dyz     :     0.000705
      dx2y2   :     0.000907
      dxy     :     0.000615

SPIN
  0 Brs       :     0.000323  s :     0.000323
      pz      :     0.001921  p :    -0.000979
      px      :    -0.003272
      py      :     0.000371
      dz2     :     0.000017  d :     0.005184
      dxz     :     0.002373
      dyz     :     0.002907
      dx2y2   :     0.000071
      dxy     :    -0.000184
      f0      :     0.000042  f :     0.000227
      f+1     :    -0.000004
      f-1     :    -0.000003
      f+2     :     0.000081
      f-2     :     0.000120
      f+3     :     0.000005
      f-3     :    -0.000015
  1 C s       :    -0.001048  s :    -0.001048
      pz      :     0.016975  p :     0.009239
      px      :    -0.000480
      py      :    -0.007256
      dz2     :     0.000163  d :     0.022790
      dxz     :     0.000996
      dyz     :     0.020886
      dx2y2   :     0.000270
      dxy     :     0.000475
      f0      :     0.000001  f :     0.000411
      f+1     :    -0.000013
      f-1     :    -0.000020
      f+2     :     0.000061
      f-2     :     0.000334
      f+3     :     0.000004
      f-3     :     0.000042
  2 C s       :     0.023561  s :     0.023561
      pz      :     0.410018  p :     0.436136
      px      :     0.011354
      py      :     0.014764
      dz2     :    -0.000812  d :     0.004323
      dxz     :     0.000145
      dyz     :     0.001540
      dx2y2   :     0.001204
      dxy     :     0.002246
      f0      :    -0.000269  f :    -0.000617
      f+1     :    -0.000167
      f-1     :    -0.000159
      f+2     :     0.000024
      f-2     :    -0.000014
      f+3     :    -0.000076
      f-3     :     0.000044
  3 C s       :     0.005008  s :     0.005008
      pz      :     0.034622  p :     0.023540
      px      :    -0.011311
      py      :     0.000229
      dz2     :     0.000234  d :     0.019192
      dxz     :     0.016191
      dyz     :     0.002299
      dx2y2   :     0.000000
      dxy     :     0.000468
      f0      :     0.000022  f :     0.000520
      f+1     :    -0.000024
      f-1     :    -0.000017
      f+2     :     0.000456
      f-2     :     0.000023
      f+3     :     0.000004
      f-3     :     0.000055
  4 C s       :     0.000378  s :     0.000378
      pz      :     0.070005  p :     0.065197
      px      :     0.002290
      py      :    -0.007098
      dz2     :    -0.000137  d :     0.012879
      dxz     :     0.000346
      dyz     :     0.014097
      dx2y2   :    -0.001199
      dxy     :    -0.000228
      f0      :    -0.000017  f :     0.000340
      f+1     :    -0.000042
      f-1     :    -0.000050
      f+2     :     0.000023
      f-2     :     0.000415
      f+3     :    -0.000006
      f-3     :     0.000016
  5 N s       :     0.023098  s :     0.023098
      pz      :     0.309491  p :     0.317383
      px      :     0.007626
      py      :     0.000266
      dz2     :     0.000017  d :    -0.000614
      dxz     :    -0.000124
      dyz     :    -0.001035
      dx2y2   :     0.000229
      dxy     :     0.000299
      f0      :    -0.000154  f :    -0.000294
      f+1     :    -0.000092
      f-1     :    -0.000065
      f+2     :     0.000017
      f-2     :    -0.000012
      f+3     :    -0.000008
      f-3     :     0.000022
  6 C s       :    -0.000789  s :    -0.000789
      pz      :     0.063543  p :     0.055525
      px      :    -0.008505
      py      :     0.000488
      dz2     :    -0.000109  d :     0.013124
      dxz     :     0.013546
      dyz     :     0.001207
      dx2y2   :    -0.000424
      dxy     :    -0.001096
      f0      :    -0.000014  f :     0.000372
      f+1     :    -0.000058
      f-1     :    -0.000033
      f+2     :     0.000460
      f-2     :     0.000005
      f+3     :    -0.000004
      f-3     :     0.000016
  7 H s       :    -0.028626  s :    -0.028626
      pz      :     0.009400  p :     0.008621
      px      :    -0.000092
      py      :    -0.000687
      dz2     :    -0.000032  d :     0.000577
      dxz     :     0.000128
      dyz     :     0.000443
      dx2y2   :     0.000039
      dxy     :    -0.000001
  8 H s       :    -0.004621  s :    -0.004621
      pz      :     0.000884  p :     0.000327
      px      :     0.000023
      py      :    -0.000580
      dz2     :    -0.000007  d :     0.000059
      dxz     :    -0.000021
      dyz     :     0.000099
      dx2y2   :    -0.000014
      dxy     :     0.000003
  9 H s       :    -0.007814  s :    -0.007814
      pz      :     0.002716  p :     0.001904
      px      :    -0.000696
      py      :    -0.000116
      dz2     :    -0.000009  d :     0.000101
      dxz     :     0.000082
      dyz     :     0.000036
      dx2y2   :    -0.000007
      dxy     :    -0.000001
 10 H s       :    -0.006769  s :    -0.006769
      pz      :     0.002563  p :     0.001734
      px      :    -0.000064
      py      :    -0.000765
      dz2     :    -0.000009  d :     0.000098
      dxz     :    -0.000011
      dyz     :     0.000126
      dx2y2   :    -0.000012
      dxy     :     0.000003


                     *******************************
                     * LOEWDIN POPULATION ANALYSIS *
                     *******************************

-------------------------------------------
LOEWDIN ATOMIC CHARGES AND SPIN POPULATIONS
-------------------------------------------
   0 Br:    0.234201    0.007239
   1 C :   -0.421634    0.075520
   2 C :   -0.198193    0.308903
   3 C :   -0.114533    0.079825
   4 C :   -0.215179    0.104419
   5 N :    0.037280    0.271730
   6 C :   -0.240703    0.100329
   7 H :   -0.030225    0.037160
   8 H :   -0.012986    0.003759
   9 H :   -0.020754    0.005654
  10 H :   -0.017274    0.005462

----------------------------------------------------
LOEWDIN REDUCED ORBITAL CHARGES AND SPIN POPULATIONS
----------------------------------------------------
CHARGE
  0 Brs       :     7.559515  s :     7.559515
      pz      :     5.897645  p :    17.052385
      px      :     5.271782
      py      :     5.882957
      dz2     :     2.013936  d :    10.138365
      dxz     :     2.051294
      dyz     :     2.004373
      dx2y2   :     2.040343
      dxy     :     2.028420
      f0      :     0.001835  f :     0.015534
      f+1     :     0.002440
      f-1     :     0.000215
      f+2     :     0.002953
      f-2     :     0.000182
      f+3     :     0.004349
      f-3     :     0.003560
  1 C s       :     2.783403  s :     2.783403
      pz      :     0.971643  p :     3.001114
      px      :     0.924430
      py      :     1.105041
      dz2     :     0.038982  d :     0.581365
      dxz     :     0.066607
      dyz     :     0.124294
      dx2y2   :     0.205315
      dxy     :     0.146168
      f0      :     0.004348  f :     0.055752
      f+1     :     0.004457
      f-1     :     0.004234
      f+2     :     0.004148
      f-2     :     0.009231
      f+3     :     0.009085
      f-3     :     0.020249
  2 C s       :     2.714800  s :     2.714800
      pz      :     1.033958  p :     3.028393
      px      :     1.015773
      py      :     0.978661
      dz2     :     0.027191  d :     0.407463
      dxz     :     0.065241
      dyz     :     0.045032
      dx2y2   :     0.118110
      dxy     :     0.151889
      f0      :     0.005464  f :     0.047538
      f+1     :     0.004059
      f-1     :     0.003703
      f+2     :     0.006094
      f-2     :     0.004227
      f+3     :     0.008694
      f-3     :     0.015297
  3 C s       :     2.723745  s :     2.723745
      pz      :     0.911120  p :     2.920888
      px      :     1.012538
      py      :     0.997230
      dz2     :     0.026073  d :     0.425029
      dxz     :     0.099488
      dyz     :     0.034765
      dx2y2   :     0.110267
      dxy     :     0.154435
      f0      :     0.002962  f :     0.044871
      f+1     :     0.003589
      f-1     :     0.003550
      f+2     :     0.008638
      f-2     :     0.002806
      f+3     :     0.008218
      f-3     :     0.015110
  4 C s       :     2.732481  s :     2.732481
      pz      :     0.894006  p :     2.875447
      px      :     0.966567
      py      :     1.014874
      dz2     :     0.031767  d :     0.542052
      dxz     :     0.020911
      dyz     :     0.131913
      dx2y2   :     0.231460
      dxy     :     0.126001
      f0      :     0.004310  f :     0.065199
      f+1     :     0.003656
      f-1     :     0.005604
      f+2     :     0.002753
      f-2     :     0.012386
      f+3     :     0.011306
      f-3     :     0.025183
  5 N s       :     3.015911  s :     3.015911
      pz      :     1.178244  p :     3.712451
      px      :     1.185913
      py      :     1.348294
      dz2     :     0.016841  d :     0.215392
      dxz     :     0.038560
      dyz     :     0.023284
      dx2y2   :     0.070815
      dxy     :     0.065891
      f0      :     0.002104  f :     0.018966
      f+1     :     0.001860
      f-1     :     0.001042
      f+2     :     0.002448
      f-2     :     0.001356
      f+3     :     0.003725
      f-3     :     0.006432
  6 C s       :     2.735288  s :     2.735288
      pz      :     0.896512  p :     2.887924
      px      :     0.990426
      py      :     1.000987
      dz2     :     0.033364  d :     0.551987
      dxz     :     0.120846
      dyz     :     0.037071
      dx2y2   :     0.138995
      dxy     :     0.221710
      f0      :     0.004465  f :     0.065504
      f+1     :     0.005955
      f-1     :     0.003658
      f+2     :     0.012285
      f-2     :     0.003859
      f+3     :     0.011187
      f-3     :     0.024096
  7 H s       :     0.828408  s :     0.828408
      pz      :     0.071818  p :     0.171285
      px      :     0.041542
      py      :     0.057926
      dz2     :     0.002571  d :     0.030533
      dxz     :     0.002573
      dyz     :     0.008258
      dx2y2   :     0.008929
      dxy     :     0.008202
  8 H s       :     0.829574  s :     0.829574
      pz      :     0.050485  p :     0.154059
      px      :     0.045352
      py      :     0.058222
      dz2     :     0.002584  d :     0.029353
      dxz     :     0.002496
      dyz     :     0.006546
      dx2y2   :     0.009309
      dxy     :     0.008418
  9 H s       :     0.844363  s :     0.844363
      pz      :     0.047358  p :     0.147325
      px      :     0.069242
      py      :     0.030726
      dz2     :     0.002627  d :     0.029065
      dxz     :     0.008615
      dyz     :     0.000235
      dx2y2   :     0.008678
      dxy     :     0.008909
 10 H s       :     0.840832  s :     0.840832
      pz      :     0.046899  p :     0.147052
      px      :     0.038339
      py      :     0.061814
      dz2     :     0.002654  d :     0.029390
      dxz     :     0.002068
      dyz     :     0.006986
      dx2y2   :     0.008907
      dxy     :     0.008776

SPIN
  0 Brs       :    -0.000025  s :    -0.000025
      pz      :     0.001228  p :    -0.001512
      px      :    -0.002553
      py      :    -0.000187
      dz2     :    -0.000007  d :     0.008368
      dxz     :     0.004744
      dyz     :     0.003877
      dx2y2   :     0.000044
      dxy     :    -0.000291
      f0      :     0.000075  f :     0.000408
      f+1     :    -0.000002
      f-1     :    -0.000004
      f+2     :     0.000205
      f-2     :     0.000153
      f+3     :     0.000013
      f-3     :    -0.000031
  1 C s       :    -0.001024  s :    -0.001024
      pz      :     0.016200  p :     0.014094
      px      :     0.000879
      py      :    -0.002986
      dz2     :    -0.000081  d :     0.058492
      dxz     :     0.002994
      dyz     :     0.054331
      dx2y2   :     0.000556
      dxy     :     0.000693
      f0      :     0.000857  f :     0.003959
      f+1     :    -0.000009
      f-1     :    -0.000018
      f+2     :     0.000371
      f-2     :     0.002601
      f+3     :     0.000056
      f-3     :     0.000100
  2 C s       :     0.005130  s :     0.005130
      pz      :     0.282281  p :     0.292502
      px      :     0.005233
      py      :     0.004988
      dz2     :    -0.000785  d :     0.009803
      dxz     :     0.001528
      dyz     :     0.010469
      dx2y2   :    -0.000698
      dxy     :    -0.000710
      f0      :     0.002225  f :     0.001468
      f+1     :    -0.000200
      f-1     :    -0.000196
      f+2     :    -0.000092
      f-2     :    -0.000048
      f+3     :    -0.000196
      f-3     :    -0.000023
  3 C s       :    -0.000620  s :    -0.000620
      pz      :     0.023870  p :     0.020428
      px      :    -0.002813
      py      :    -0.000629
      dz2     :    -0.000083  d :     0.055793
      dxz     :     0.049954
      dyz     :     0.004807
      dx2y2   :     0.000371
      dxy     :     0.000744
      f0      :     0.000898  f :     0.004223
      f+1     :    -0.000020
      f-1     :    -0.000011
      f+2     :     0.003034
      f-2     :     0.000148
      f+3     :     0.000068
      f-3     :     0.000106
  4 C s       :    -0.000104  s :    -0.000104
      pz      :     0.054688  p :     0.051610
      px      :    -0.000205
      py      :    -0.002873
      dz2     :     0.000025  d :     0.047900
      dxz     :     0.004416
      dyz     :     0.043612
      dx2y2   :    -0.000293
      dxy     :     0.000139
      f0      :     0.001339  f :     0.005013
      f+1     :    -0.000031
      f-1     :    -0.000023
      f+2     :     0.000314
      f-2     :     0.003195
      f+3     :     0.000135
      f-3     :     0.000084
  5 N s       :     0.005612  s :     0.005612
      pz      :     0.251988  p :     0.259039
      px      :     0.004237
      py      :     0.002814
      dz2     :     0.000051  d :     0.006302
      dxz     :     0.001331
      dyz     :     0.005243
      dx2y2   :    -0.000275
      dxy     :    -0.000048
      f0      :     0.000755  f :     0.000777
      f+1     :    -0.000099
      f-1     :    -0.000053
      f+2     :     0.000070
      f-2     :     0.000140
      f+3     :    -0.000040
      f-3     :     0.000004
  6 C s       :    -0.000292  s :    -0.000292
      pz      :     0.050601  p :     0.047422
      px      :    -0.003277
      py      :     0.000098
      dz2     :     0.000034  d :     0.048093
      dxz     :     0.046466
      dyz     :     0.001742
      dx2y2   :     0.000410
      dxy     :    -0.000558
      f0      :     0.001318  f :     0.005106
      f+1     :    -0.000025
      f-1     :    -0.000025
      f+2     :     0.003558
      f-2     :     0.000034
      f+3     :     0.000122
      f-3     :     0.000123
  7 H s       :    -0.007328  s :    -0.007328
      pz      :     0.037748  p :     0.039794
      px      :     0.000662
      py      :     0.001384
      dz2     :    -0.000019  d :     0.004694
      dxz     :     0.000973
      dyz     :     0.003338
      dx2y2   :     0.000198
      dxy     :     0.000204
  8 H s       :    -0.001065  s :    -0.001065
      pz      :     0.004701  p :     0.004381
      px      :    -0.000373
      py      :     0.000053
      dz2     :    -0.000007  d :     0.000443
      dxz     :    -0.000119
      dyz     :     0.000612
      dx2y2   :    -0.000036
      dxy     :    -0.000007
  9 H s       :    -0.002040  s :    -0.002040
      pz      :     0.006914  p :     0.006850
      px      :     0.000139
      py      :    -0.000203
      dz2     :    -0.000007  d :     0.000844
      dxz     :     0.000698
      dyz     :     0.000147
      dx2y2   :     0.000033
      dxy     :    -0.000027
 10 H s       :    -0.001962  s :    -0.001962
      pz      :     0.006633  p :     0.006593
      px      :    -0.000273
      py      :     0.000233
      dz2     :    -0.000006  d :     0.000831
      dxz     :    -0.000047
      dyz     :     0.000881
      dx2y2   :    -0.000000
      dxy     :     0.000004


                      *****************************
                      * MAYER POPULATION ANALYSIS *
                      *****************************

  NA   - Mulliken gross atomic population
  ZA   - Total nuclear charge
  QA   - Mulliken gross atomic charge
  VA   - Mayer's total valence
  BVA  - Mayer's bonded valence
  FA   - Mayer's free valence

  ATOM       NA         ZA         QA         VA         BVA        FA
  0 Br    35.1957    35.0000    -0.1957     1.1104     1.1103     0.0001
  1 C      5.9729     6.0000     0.0271     3.7316     3.7255     0.0061
  2 C      6.3046     6.0000    -0.3046     3.7039     3.5224     0.1815
  3 C      6.1620     6.0000    -0.1620     3.8473     3.8402     0.0071
  4 C      6.0922     6.0000    -0.0922     4.1166     4.1055     0.0111
  5 N      7.3575     7.0000    -0.3575     3.0074     2.9065     0.1010
  6 C      6.1084     6.0000    -0.1084     4.1364     4.1261     0.0103
  7 H      0.9494     1.0000     0.0506     1.0195     1.0185     0.0010
  8 H      0.9566     1.0000     0.0434     1.0015     1.0015     0.0000
  9 H      0.9542     1.0000     0.0458     1.0037     1.0036     0.0001
 10 H      0.9466     1.0000     0.0534     1.0118     1.0117     0.0001

  Mayer bond orders larger than 0.100000
B(  0-Br,  1-C ) :   0.9654 B(  1-C ,  2-C ) :   1.2014 B(  1-C ,  6-C ) :   1.5225 
B(  2-C ,  3-C ) :   1.1885 B(  2-C ,  7-H ) :   1.0186 B(  3-C ,  4-C ) :   1.6009 
B(  3-C ,  8-H ) :   0.9924 B(  4-C ,  5-N ) :   1.3867 B(  4-C ,  9-H ) :   1.0118 
B(  5-N ,  6-C ) :   1.4210 B(  6-C , 10-H ) :   1.0195 


------------------
HIRSHFELD ANALYSIS
------------------

Total integrated alpha density =     38.999994740
Total integrated beta density  =     37.999994563

  ATOM     CHARGE      SPIN    
   0 Br  -0.204239    0.017421
   1 C   -0.038716    0.071002
   2 C   -0.166590    0.304572
   3 C   -0.112185    0.077690
   4 C   -0.050986    0.096224
   5 N   -0.329883    0.276304
   6 C   -0.046617    0.090160
   7 H   -0.024393    0.039186
   8 H   -0.006690    0.008765
   9 H   -0.013085    0.010187
  10 H   -0.006606    0.008490

  TOTAL  -0.999989    1.000000

-------
TIMINGS
-------

Total SCF time: 0 days 0 hours 0 min 32 sec 

Total time                  ....      32.122 sec
Sum of individual times     ....      31.514 sec  ( 98.1%)

Fock matrix formation       ....      29.228 sec  ( 91.0%)
  Split-RI-J                ....       1.487 sec  (  5.1% of F)
  Chain of spheres X        ....      20.596 sec  ( 70.5% of F)
  XC integration            ....       6.969 sec  ( 23.8% of F)
    Basis function eval.    ....       0.465 sec  (  6.7% of XC)
    Density eval.           ....       2.082 sec  ( 29.9% of XC)
    XC-Functional eval.     ....       0.283 sec  (  4.1% of XC)
    XC-Potential eval.      ....       3.417 sec  ( 49.0% of XC)
Diagonalization             ....       0.736 sec  (  2.3%)
Density matrix formation    ....       0.035 sec  (  0.1%)
Population analysis         ....       0.444 sec  (  1.4%)
Initial guess               ....       0.081 sec  (  0.3%)
Orbital Transformation      ....       0.000 sec  (  0.0%)
Orbital Orthonormalization  ....       0.000 sec  (  0.0%)
DIIS solution               ....       0.385 sec  (  1.2%)
Grid generation             ....       0.604 sec  (  1.9%)

Maximum memory used throughout the entire SCF-calculation: 78.2 MB

-------------------------   --------------------
FINAL SINGLE POINT ENERGY     -2821.670000434940
-------------------------   --------------------


                            ***************************************
                            *     ORCA property calculations      *
                            ***************************************

                                    ---------------------
                                    Active property flags
                                    ---------------------
   (+) Dipole Moment


------------------------------------------------------------------------------
                       ORCA ELECTRIC PROPERTIES CALCULATION
------------------------------------------------------------------------------

Dipole Moment Calculation                       ... on
Quadrupole Moment Calculation                   ... off
Polarizability Calculation                      ... off
GBWName                                         ... arbr_12_r2scan3c_wB97MV_red.gbw
Electron density                                ... arbr_12_r2scan3c_wB97MV_red.scfp
The origin for moment calculation is the CENTER OF MASS  = (-0.295472, -0.022066  0.000000)

-------------
DIPOLE MOMENT
-------------
                                X             Y             Z
Electronic contribution:    -24.50774      -1.18955      -0.00001
Nuclear contribution   :     22.45567       1.67682       0.00002
                        -----------------------------------------
Total Dipole Moment    :     -2.05207       0.48727       0.00001
                        -----------------------------------------
Magnitude (a.u.)       :      2.10913
Magnitude (Debye)      :      5.36099



--------------------
Rotational spectrum 
--------------------
 
Rotational constants in cm-1:     0.197201     0.033448     0.028598 
Rotational constants in MHz :  5911.936316  1002.759880   857.341000 

 Dipole components along the rotational axes: 
x,y,z [a.u.] :    -2.058190    -0.460752     0.000005 
x,y,z [Debye]:    -5.231503    -1.171138     0.000014 

 

Timings for individual modules:

Sum of individual times         ...       32.893 sec (=   0.548 min)
GTO integral calculation        ...        0.522 sec (=   0.009 min)   1.6 %
SCF iterations                  ...       32.371 sec (=   0.540 min)  98.4 %
                             ****ORCA TERMINATED NORMALLY****
TOTAL RUN TIME: 0 days 0 hours 0 minutes 33 seconds 378 msec
