
                                 *****************
                                 * O   R   C   A *
                                 *****************

                                            #,                                       
                                            ###                                      
                                            ####                                     
                                            #####                                    
                                            ######                                   
                                           ########,                                 
                                     ,,################,,,,,                         
                               ,,#################################,,                 
                          ,,##########################################,,             
                       ,#########################################, ''#####,          
                    ,#############################################,,   '####,        
                  ,##################################################,,,,####,       
                ,###########''''           ''''###############################       
              ,#####''   ,,,,##########,,,,          '''####'''          '####       
            ,##' ,,,,###########################,,,                        '##       
           ' ,,###''''                  '''############,,,                           
         ,,##''                                '''############,,,,        ,,,,,,###''
      ,#''                                            '''#######################'''  
     '                                                          ''''####''''         
             ,#######,   #######,   ,#######,      ##                                
            ,#'     '#,  ##    ##  ,#'     '#,    #''#        ######   ,####,        
            ##       ##  ##   ,#'  ##            #'  '#       #        #'  '#        
            ##       ##  #######   ##           ,######,      #####,   #    #        
            '#,     ,#'  ##    ##  '#,     ,#' ,#      #,         ##   #,  ,#        
             '#######'   ##     ##  '#######'  #'      '#     #####' # '####'        



                  #######################################################
                  #                        -***-                        #
                  #          Department of theory and spectroscopy      #
                  #    Directorship and core code : Frank Neese         #
                  #        Max Planck Institute fuer Kohlenforschung    #
                  #                Kaiser Wilhelm Platz 1               #
                  #                 D-45470 Muelheim/Ruhr               #
                  #                      Germany                        #
                  #                                                     #
                  #                  All rights reserved                #
                  #                        -***-                        #
                  #######################################################


                         Program Version 5.0.4 -  RELEASE  -


 With contributions from (in alphabetic order):
   Daniel Aravena         : Magnetic Suceptibility
   Michael Atanasov       : Ab Initio Ligand Field Theory (pilot matlab implementation)
   Alexander A. Auer      : GIAO ZORA, VPT2 properties, NMR spectrum
   Ute Becker             : Parallelization
   Giovanni Bistoni       : ED, misc. LED, open-shell LED, HFLD
   Martin Brehm           : Molecular dynamics
   Dmytro Bykov           : SCF Hessian
   Vijay G. Chilkuri      : MRCI spin determinant printing, contributions to CSF-ICE
   Dipayan Datta          : RHF DLPNO-CCSD density
   Achintya Kumar Dutta   : EOM-CC, STEOM-CC
   Dmitry Ganyushin       : Spin-Orbit,Spin-Spin,Magnetic field MRCI
   Miquel Garcia          : C-PCM and meta-GGA Hessian, CC/C-PCM, Gaussian charge scheme
   Yang Guo               : DLPNO-NEVPT2, F12-NEVPT2, CIM, IAO-localization
   Andreas Hansen         : Spin unrestricted coupled pair/coupled cluster methods
   Benjamin Helmich-Paris : MC-RPA, TRAH-SCF, COSX integrals
   Lee Huntington         : MR-EOM, pCC
   Robert Izsak           : Overlap fitted RIJCOSX, COSX-SCS-MP3, EOM
   Marcus Kettner         : VPT2
   Christian Kollmar      : KDIIS, OOCD, Brueckner-CCSD(T), CCSD density, CASPT2, CASPT2-K
   Simone Kossmann        : Meta GGA functionals, TD-DFT gradient, OOMP2, MP2 Hessian
   Martin Krupicka        : Initial AUTO-CI
   Lucas Lang             : DCDCAS
   Marvin Lechner         : AUTO-CI (C++ implementation), FIC-MRCC
   Dagmar Lenk            : GEPOL surface, SMD
   Dimitrios Liakos       : Extrapolation schemes; Compound Job, initial MDCI parallelization
   Dimitrios Manganas     : Further ROCIS development; embedding schemes
   Dimitrios Pantazis     : SARC Basis sets
   Anastasios Papadopoulos: AUTO-CI, single reference methods and gradients
   Taras Petrenko         : DFT Hessian,TD-DFT gradient, ASA, ECA, R-Raman, ABS, FL, XAS/XES, NRVS
   Peter Pinski           : DLPNO-MP2, DLPNO-MP2 Gradient
   Christoph Reimann      : Effective Core Potentials
   Marius Retegan         : Local ZFS, SOC
   Christoph Riplinger    : Optimizer, TS searches, QM/MM, DLPNO-CCSD(T), (RO)-DLPNO pert. Triples
   Tobias Risthaus        : Range-separated hybrids, TD-DFT gradient, RPA, STAB
   Michael Roemelt        : Original ROCIS implementation
   Masaaki Saitow         : Open-shell DLPNO-CCSD energy and density
   Barbara Sandhoefer     : DKH picture change effects
   Avijit Sen             : IP-ROCIS
   Kantharuban Sivalingam : CASSCF convergence, NEVPT2, FIC-MRCI
   Bernardo de Souza      : ESD, SOC TD-DFT
   Georgi Stoychev        : AutoAux, RI-MP2 NMR, DLPNO-MP2 response
   Willem Van den Heuvel  : Paramagnetic NMR
   Boris Wezisla          : Elementary symmetry handling
   Frank Wennmohs         : Technical directorship


 We gratefully acknowledge several colleagues who have allowed us to
 interface, adapt or use parts of their codes:
   Stefan Grimme, W. Hujo, H. Kruse, P. Pracht,  : VdW corrections, initial TS optimization,
                  C. Bannwarth, S. Ehlert          DFT functionals, gCP, sTDA/sTD-DF
   Ed Valeev, F. Pavosevic, A. Kumar             : LibInt (2-el integral package), F12 methods
   Garnet Chan, S. Sharma, J. Yang, R. Olivares  : DMRG
   Ulf Ekstrom                                   : XCFun DFT Library
   Mihaly Kallay                                 : mrcc  (arbitrary order and MRCC methods)
   Jiri Pittner, Ondrej Demel                    : Mk-CCSD
   Frank Weinhold                                : gennbo (NPA and NBO analysis)
   Christopher J. Cramer and Donald G. Truhlar   : smd solvation model
   Lars Goerigk                                  : TD-DFT with DH, B97 family of functionals
   V. Asgeirsson, H. Jonsson                     : NEB implementation
   FAccTs GmbH                                   : IRC, NEB, NEB-TS, DLPNO-Multilevel, CI-OPT
                                                   MM, QMMM, 2- and 3-layer-ONIOM, Crystal-QMMM,
                                                   LR-CPCM, SF, NACMEs, symmetry and pop. for TD-DFT,
                                                   nearIR, NL-DFT gradient (VV10), updates on ESD,
                                                   ML-optimized integration grids
   S Lehtola, MJT Oliveira, MAL Marques          : LibXC Library
   Liviu Ungur et al                             : ANISO software


 Your calculation uses the libint2 library for the computation of 2-el integrals
 For citations please refer to: http://libint.valeyev.net

 Your ORCA version has been built with support for libXC version: 5.1.0
 For citations please refer to: https://tddft.org/programs/libxc/

 This ORCA versions uses:
   CBLAS   interface :  Fast vector & matrix operations
   LAPACKE interface :  Fast linear algebra routines
   SCALAPACK package :  Parallel linear algebra routines
   Shared memory     :  Shared parallel matrices
   BLAS/LAPACK       :  OpenBLAS 0.3.15  USE64BITINT DYNAMIC_ARCH NO_AFFINITY SkylakeX SINGLE_THREADED
        Core in use  :  SkylakeX
   Copyright (c) 2011-2014, The OpenBLAS Project


Your calculation utilizes the DFT-NL dispersion correction.
Cite in your paper:
Vydrov, O. A.; Van Voorhis, T. J. Chem. Phys. 2010, 133, 244103
Hujo, W.; Grimme, S. J. Chem. Theory Comput. 2011, 7, 3866 
   

================================================================================

----- Orbital basis set information -----
Your calculation utilizes the basis: def2-TZVPP
   F. Weigend and R. Ahlrichs, Phys. Chem. Chem. Phys. 7, 3297 (2005).

----- AuxJ basis set information -----
Your calculation utilizes the auxiliary basis: def2/J
   F. Weigend, Phys. Chem. Chem. Phys. 8, 1057 (2006).

================================================================================
                                        WARNINGS
                       Please study these warnings very carefully!
================================================================================

Using LibXC functional ID 531 : wB97M-V exchange-correlation functional
[ 1]  N. Mardirossian and M. Head-Gordon, J. Chem. Phys. 144, 214110 (2016)
Using LibXC functional ID 531 : wB97M-V exchange-correlation functional
[ 1]  N. Mardirossian and M. Head-Gordon, J. Chem. Phys. 144, 214110 (2016)

WARNING: B97M-V or wB97M-V functional requested.
  ===> : libXC variant has now been activated.
         Any manually given DFX/HFX/RangeSep scaling parameters are IGNORED!

Your calculation utilizes LibXC
 by S Lehtola, C Steigemann, MJT Oliveira & MAL Marques
Please cite in your paper:
 S Lehtola, C Steigemann, MJT Oliveira & MAL Marques, SoftwareX, 7, (2018), 1.
   


WARNING: your system is open-shell and RHF/RKS was chosen
  ===> : WILL SWITCH to UHF/UKS


INFO   : the flag for use of the SHARK integral package has been found!

================================================================================
                                       INPUT FILE
================================================================================
NAME = arbr_09_r2scan3c_wB97MV_red.inp
|  1> %PAL NPROCS 16 END
|  2> %maxcore 4000
|  3> # arbr_09_r2scan3c.out
|  4> ! wB97m-v def2-TZVPP def2/J RIJCOSX Hirshfeld
|  5> * xyz -1 2
|  6>    C       -5.56793         0.93866         0.00016
|  7>    C       -4.60322        -0.23609        -0.00005
|  8>    C       -4.76742        -1.06646         1.26436
|  9>    C       -4.76748        -1.06603        -1.26475
| 10>    O       -3.29636         0.42301         0.00005
| 11>    C       -2.17886        -0.29568         0.00010
| 12>    O       -2.09327        -1.49365         0.00008
| 13>    N       -1.06813         0.54267         0.00008
| 14>    C       -1.08696         1.93744         0.00005
| 15>    C        0.17617         2.41195         0.00002
| 16>    C        1.06217         1.27612         0.00002
| 17>    C        2.45227         1.16049        -0.00001
| 18>    C        2.99023        -0.10824        -0.00000
| 19>   Br        4.87754        -0.31262        -0.00004
| 20>    C        2.19317        -1.25608         0.00003
| 21>    C        0.81366        -1.15706         0.00006
| 22>    C        0.26231         0.11965         0.00005
| 23>    H       -5.41745         1.55528        -0.88620
| 24>    H       -6.59404         0.57149         0.00012
| 25>    H       -5.41741         1.55498         0.88673
| 26>    H       -4.09983        -1.92430         1.26660
| 27>    H       -5.79691        -1.42226         1.32122
| 28>    H       -4.56907        -0.45350         2.14468
| 29>    H       -5.79701        -1.42174        -1.32171
| 30>    H       -4.09995        -1.92390        -1.26730
| 31>    H       -4.56912        -0.45278        -2.14486
| 32>    H       -2.03023         2.45319         0.00006
| 33>    H        0.45985         3.45094        -0.00001
| 34>    H        3.08845         2.03465        -0.00004
| 35>    H        2.66373        -2.22894         0.00004
| 36>    H        0.19049        -2.03688         0.00009
| 37> *
| 38> 
| 39>                          ****END OF INPUT****
================================================================================

                       ****************************
                       * Single Point Calculation *
                       ****************************

---------------------------------
CARTESIAN COORDINATES (ANGSTROEM)
---------------------------------
  C     -5.567930    0.938660    0.000160
  C     -4.603220   -0.236090   -0.000050
  C     -4.767420   -1.066460    1.264360
  C     -4.767480   -1.066030   -1.264750
  O     -3.296360    0.423010    0.000050
  C     -2.178860   -0.295680    0.000100
  O     -2.093270   -1.493650    0.000080
  N     -1.068130    0.542670    0.000080
  C     -1.086960    1.937440    0.000050
  C      0.176170    2.411950    0.000020
  C      1.062170    1.276120    0.000020
  C      2.452270    1.160490   -0.000010
  C      2.990230   -0.108240   -0.000000
  Br     4.877540   -0.312620   -0.000040
  C      2.193170   -1.256080    0.000030
  C      0.813660   -1.157060    0.000060
  C      0.262310    0.119650    0.000050
  H     -5.417450    1.555280   -0.886200
  H     -6.594040    0.571490    0.000120
  H     -5.417410    1.554980    0.886730
  H     -4.099830   -1.924300    1.266600
  H     -5.796910   -1.422260    1.321220
  H     -4.569070   -0.453500    2.144680
  H     -5.797010   -1.421740   -1.321710
  H     -4.099950   -1.923900   -1.267300
  H     -4.569120   -0.452780   -2.144860
  H     -2.030230    2.453190    0.000060
  H      0.459850    3.450940   -0.000010
  H      3.088450    2.034650   -0.000040
  H      2.663730   -2.228940    0.000040
  H      0.190490   -2.036880    0.000090

----------------------------
CARTESIAN COORDINATES (A.U.)
----------------------------
  NO LB      ZA    FRAG     MASS         X           Y           Z
   0 C     6.0000    0    12.011  -10.521863    1.773810    0.000302
   1 C     6.0000    0    12.011   -8.698825   -0.446145   -0.000094
   2 C     6.0000    0    12.011   -9.009118   -2.015317    2.389294
   3 C     6.0000    0    12.011   -9.009232   -2.014505   -2.390031
   4 O     8.0000    0    15.999   -6.229218    0.799373    0.000094
   5 C     6.0000    0    12.011   -4.117449   -0.558754    0.000189
   6 O     8.0000    0    15.999   -3.955707   -2.822589    0.000151
   7 N     7.0000    0    14.007   -2.018473    1.025498    0.000151
   8 C     6.0000    0    12.011   -2.054057    3.661231    0.000094
   9 C     6.0000    0    12.011    0.332913    4.557925    0.000038
  10 C     6.0000    0    12.011    2.007210    2.411517    0.000038
  11 C     6.0000    0    12.011    4.634119    2.193008   -0.000019
  12 C     6.0000    0    12.011    5.650716   -0.204544   -0.000000
  13 Br   35.0000    0    79.900    9.217215   -0.590766   -0.000076
  14 C     6.0000    0    12.011    4.144491   -2.373647    0.000057
  15 C     6.0000    0    12.011    1.537595   -2.186527    0.000113
  16 C     6.0000    0    12.011    0.495694    0.226106    0.000094
  17 H     1.0000    0     1.008  -10.237497    2.939053   -1.674675
  18 H     1.0000    0     1.008  -12.460930    1.079960    0.000227
  19 H     1.0000    0     1.008  -10.237421    2.938486    1.675677
  20 H     1.0000    0     1.008   -7.747556   -3.636400    2.393527
  21 H     1.0000    0     1.008  -10.954572   -2.687682    2.496744
  22 H     1.0000    0     1.008   -8.634291   -0.856991    4.052858
  23 H     1.0000    0     1.008  -10.954761   -2.686699   -2.497670
  24 H     1.0000    0     1.008   -7.747783   -3.635644   -2.394850
  25 H     1.0000    0     1.008   -8.634385   -0.855630   -4.053198
  26 H     1.0000    0     1.008   -3.836579    4.635857    0.000113
  27 H     1.0000    0     1.008    0.868991    6.521332   -0.000019
  28 H     1.0000    0     1.008    5.836325    3.844931   -0.000076
  29 H     1.0000    0     1.008    5.033720   -4.212086    0.000076
  30 H     1.0000    0     1.008    0.359974   -3.849145    0.000170

--------------------------------
INTERNAL COORDINATES (ANGSTROEM)
--------------------------------
 C      0   0   0     0.000000000000     0.00000000     0.00000000
 C      1   0   0     1.520099664726     0.00000000     0.00000000
 C      2   1   0     1.521580962355   110.67974176     0.00000000
 C      2   1   3     1.521593848962   110.67871365   125.32277975
 O      2   1   3     1.463658388969   102.62941902   242.66181749
 C      5   2   1     1.328654043986   120.49042052   179.99081407
 O      6   5   2     1.201023633989   126.83260730     0.00000000
 N      6   5   2     1.391600465579   110.20944304   179.99505564
 C      8   6   5     1.394897101115   126.27108112     0.00000000
 C      9   8   6     1.349317285852   109.81582294   180.00079290
 C     10   9   8     1.440522748484   107.36658671     0.00000000
 C     11  10   9     1.394900823643   132.71085799   179.99965770
 C     12  11  10     1.378069945467   117.73262935   180.00001995
 Br    13  12  11     1.898344073686   119.15822403   179.99999628
 C     13  12  11     1.397440986267   122.24623800     0.00000000
 C     15  13  12     1.383059218327   120.67051142     0.00000000
 C     16  15  13     1.390674385577   117.46280546     0.00000000
 H      1   2   3     1.090182784858   110.45053561   177.54549645
 H      1   2   3     1.089823629125   109.70440626   297.33889916
 H      1   2   3     1.090189422853   110.44971557    57.13175637
 H      3   2   1     1.087000869963   111.47618425   178.62835756
 H      3   2   1     1.090722861088   108.85626839    58.61718025
 H      3   2   1     1.090883122291   110.14056157   300.10343268
 H      4   2   1     1.090736478990   108.85526048   301.38669310
 H      4   2   1     1.086988380941   111.47694228   181.37486455
 H      4   2   1     1.090878482783   110.14043814    59.89896379
 H      9   8   6     1.075061093845   119.44190484     0.00000000
 H     10   9   8     1.077021152717   125.86078951   179.99980237
 H     12  11  10     1.081147861719   121.29070850     0.00000000
 H     15  13  12     1.080686491680   119.41142676   180.00019960
 H     16  15  13     1.078157726031   121.20406082   180.00041814

---------------------------
INTERNAL COORDINATES (A.U.)
---------------------------
 C      0   0   0     0.000000000000     0.00000000     0.00000000
 C      1   0   0     2.872572062598     0.00000000     0.00000000
 C      2   1   0     2.875371309439   110.67974176     0.00000000
 C      2   1   3     2.875395661598   110.67871365   125.32277975
 O      2   1   3     2.765913508768   102.62941902   242.66181749
 C      5   2   1     2.510792269860   120.49042052   179.99081407
 O      6   5   2     2.269605748606   126.83260730     0.00000000
 N      6   5   2     2.629743767782   110.20944304   179.99505564
 C      8   6   5     2.635973506109   126.27108112     0.00000000
 C      9   8   6     2.549840138027   109.81582294   180.00079290
 C     10   9   8     2.722193484318   107.36658671     0.00000000
 C     11  10   9     2.635980540667   132.71085799   179.99965770
 C     12  11  10     2.604174790321   117.73262935   180.00001995
 Br    13  12  11     3.587350407220   119.15822403   179.99999628
 C     13  12  11     2.640780752362   122.24623800     0.00000000
 C     15  13  12     2.613603149634   120.67051142     0.00000000
 C     16  15  13     2.627993730200   117.46280546     0.00000000
 H      1   2   3     2.060146899297   110.45053561   177.54549645
 H      1   2   3     2.059468193323   109.70440626   297.33889916
 H      1   2   3     2.060159443289   110.44971557    57.13175637
 H      3   2   1     2.054133951564   111.47618425   178.62835756
 H      3   2   1     2.061167495463   108.85626839    58.61718025
 H      3   2   1     2.061470345247   110.14056157   300.10343268
 H      4   2   1     2.061193229569   108.85526048   301.38669310
 H      4   2   1     2.054110350732   111.47694228   181.37486455
 H      4   2   1     2.061461577848   110.14043814    59.89896379
 H      9   8   6     2.031571044602   119.44190484     0.00000000
 H     10   9   8     2.035275019075   125.86078951   179.99980237
 H     12  11  10     2.043073368924   121.29070850     0.00000000
 H     15  13  12     2.042201505904   119.41142676   180.00019960
 H     16  15  13     2.037422831370   121.20406082   180.00041814

---------------------
BASIS SET INFORMATION
---------------------
There are 5 groups of distinct atoms

 Group   1 Type C   : 11s6p2d1f contracted to 5s3p2d1f pattern {62111/411/11/1}
 Group   2 Type O   : 11s6p2d1f contracted to 5s3p2d1f pattern {62111/411/11/1}
 Group   3 Type N   : 11s6p2d1f contracted to 5s3p2d1f pattern {62111/411/11/1}
 Group   4 Type Br  : 17s13p8d1f contracted to 6s5p4d1f pattern {842111/64111/5111/1}
 Group   5 Type H   : 5s2p1d contracted to 3s2p1d pattern {311/11/1}

Atom   0C    basis set group =>   1
Atom   1C    basis set group =>   1
Atom   2C    basis set group =>   1
Atom   3C    basis set group =>   1
Atom   4O    basis set group =>   2
Atom   5C    basis set group =>   1
Atom   6O    basis set group =>   2
Atom   7N    basis set group =>   3
Atom   8C    basis set group =>   1
Atom   9C    basis set group =>   1
Atom  10C    basis set group =>   1
Atom  11C    basis set group =>   1
Atom  12C    basis set group =>   1
Atom  13Br   basis set group =>   4
Atom  14C    basis set group =>   1
Atom  15C    basis set group =>   1
Atom  16C    basis set group =>   1
Atom  17H    basis set group =>   5
Atom  18H    basis set group =>   5
Atom  19H    basis set group =>   5
Atom  20H    basis set group =>   5
Atom  21H    basis set group =>   5
Atom  22H    basis set group =>   5
Atom  23H    basis set group =>   5
Atom  24H    basis set group =>   5
Atom  25H    basis set group =>   5
Atom  26H    basis set group =>   5
Atom  27H    basis set group =>   5
Atom  28H    basis set group =>   5
Atom  29H    basis set group =>   5
Atom  30H    basis set group =>   5
---------------------------------
AUXILIARY/J BASIS SET INFORMATION
---------------------------------
There are 5 groups of distinct atoms

 Group   1 Type C   : 12s5p4d2f1g contracted to 6s4p3d1f1g pattern {711111/2111/211/2/1}
 Group   2 Type O   : 12s5p4d2f1g contracted to 6s4p3d1f1g pattern {711111/2111/211/2/1}
 Group   3 Type N   : 12s5p4d2f1g contracted to 6s4p3d1f1g pattern {711111/2111/211/2/1}
 Group   4 Type Br  : 19s5p5d3f1g contracted to 8s4p3d2f1g pattern {121111111/2111/311/21/1}
 Group   5 Type H   : 5s2p1d contracted to 3s1p1d pattern {311/2/1}

Atom   0C    basis set group =>   1
Atom   1C    basis set group =>   1
Atom   2C    basis set group =>   1
Atom   3C    basis set group =>   1
Atom   4O    basis set group =>   2
Atom   5C    basis set group =>   1
Atom   6O    basis set group =>   2
Atom   7N    basis set group =>   3
Atom   8C    basis set group =>   1
Atom   9C    basis set group =>   1
Atom  10C    basis set group =>   1
Atom  11C    basis set group =>   1
Atom  12C    basis set group =>   1
Atom  13Br   basis set group =>   4
Atom  14C    basis set group =>   1
Atom  15C    basis set group =>   1
Atom  16C    basis set group =>   1
Atom  17H    basis set group =>   5
Atom  18H    basis set group =>   5
Atom  19H    basis set group =>   5
Atom  20H    basis set group =>   5
Atom  21H    basis set group =>   5
Atom  22H    basis set group =>   5
Atom  23H    basis set group =>   5
Atom  24H    basis set group =>   5
Atom  25H    basis set group =>   5
Atom  26H    basis set group =>   5
Atom  27H    basis set group =>   5
Atom  28H    basis set group =>   5
Atom  29H    basis set group =>   5
Atom  30H    basis set group =>   5


           ************************************************************
           *        Program running with 16 parallel MPI-processes    *
           *              working on a common directory               *
           ************************************************************
------------------------------------------------------------------------------
                           ORCA GTO INTEGRAL CALCULATION
                           -- RI-GTO INTEGRALS CHOSEN --
------------------------------------------------------------------------------
------------------------------------------------------------------------------
                   ___                                                        
                  /   \      - P O W E R E D   B Y -                         
                 /     \                                                     
                 |  |  |   _    _      __       _____    __    __             
                 |  |  |  | |  | |    /  \     |  _  \  |  |  /  |          
                  \  \/   | |  | |   /    \    | | | |  |  | /  /          
                 / \  \   | |__| |  /  /\  \   | |_| |  |  |/  /          
                |  |  |   |  __  | /  /__\  \  |    /   |      \           
                |  |  |   | |  | | |   __   |  |    \   |  |\   \          
                \     /   | |  | | |  |  |  |  | |\  \  |  | \   \       
                 \___/    |_|  |_| |__|  |__|  |_| \__\ |__|  \__/        
                                                                              
                      - O R C A' S   B I G   F R I E N D -                    
                                      &                                       
                       - I N T E G R A L  F E E D E R -                       
                                                                              
 v1 FN, 2020, v2 2021                                                         
------------------------------------------------------------------------------


Reading SHARK input file arbr_09_r2scan3c_wB97MV_red.SHARKINP.tmp ... ok
----------------------
SHARK INTEGRAL PACKAGE
----------------------

Number of atoms                             ...     31
Number of basis functions                   ...    740
Number of shells                            ...    276
Maximum angular momentum                    ...      3
Integral batch strategy                     ... SHARK/LIBINT Hybrid
RI-J (if used) integral strategy            ... SPLIT-RIJ (Revised 2003 algorithm where possible)
Printlevel                                  ...      1
Contraction scheme used                     ... SEGMENTED contraction
Coulomb Range Separation                    ... NOT USED
Exchange Range Separation                   ... Long Range
   Mu parameter                             ...  0.300000
   Scaling (regular/separated)              ...  0.150000  0.850000
Finite Nucleus Model                        ... NOT USED
Auxiliary Coulomb fitting basis             ... AVAILABLE
   # of basis functions in Aux-J            ...    996
   # of shells in Aux-J                     ...    328
   Maximum angular momentum in Aux-J        ...      4
Auxiliary J/K fitting basis                 ... NOT available
Auxiliary Correlation fitting basis         ... NOT available
Auxiliary 'external' fitting basis          ... NOT available
Integral threshold                          ...     1.000000e-10
Primitive cut-off                           ...     1.000000e-11
Primitive pair pre-selection threshold      ...     1.000000e-11

Calculating pre-screening integrals         ... done (  0.1 sec) Dimension = 276
Organizing shell pair data                  ... done (  0.3 sec)
Shell pair information
Total number of shell pairs                 ...     38226
Shell pairs after pre-screening             ...     26533
Total number of primitive shell pairs       ...    111616
Primitive shell pairs kept                  ...     53085
          la=0 lb=0:   5728 shell pairs
          la=1 lb=0:   7482 shell pairs
          la=1 lb=1:   2487 shell pairs
          la=2 lb=0:   4194 shell pairs
          la=2 lb=1:   2779 shell pairs
          la=2 lb=2:    790 shell pairs
          la=3 lb=0:   1473 shell pairs
          la=3 lb=1:    967 shell pairs
          la=3 lb=2:    525 shell pairs
          la=3 lb=3:    108 shell pairs

Calculating one electron integrals          ... done (  0.0 sec)
Calculating RI/J V-Matrix + Cholesky decomp.... done (  0.0 sec)
Calculating Nuclear repulsion               ... done (  0.0 sec) ENN=   1486.527259365712 Eh

SHARK setup successfully completed in   0.7 seconds

Maximum memory used throughout the entire GTOINT-calculation: 42.8 MB


           ************************************************************
           *        Program running with 16 parallel MPI-processes    *
           *              working on a common directory               *
           ************************************************************
-------------------------------------------------------------------------------
                                 ORCA SCF
-------------------------------------------------------------------------------

------------
SCF SETTINGS
------------
Hamiltonian:
 Density Functional     Method          .... DFT(GTOs)
  Functional kind                       .... Exchange-Correlation
  Functional name                       .... wB97M-V exchange-correlation functional
  Functional family                     .... Hybrid MGGA
  Functional refs                              
    [ 0] N. Mardirossian and M. Head-Gordon, J. Chem. Phys. 144, 214110 (2016)
  Fraction of HF Exchange (short range) .... 0.1500
  Fraction of HF Exchange (long range)  .... 1.0000
  Range separation parameter mu         .... 0.3000
  Functional external parameters         .... 0
   Density functional embedding theory  .... OFF
 Long-range corrected/Screened/Range-Separated Hybrid DFT is turned on
   Amount of maximum screened exact exchange              ....  0.850000
   Range separation parameter mu (erf(mu*r12)/r12)        ....  0.300000
   NL short-range parameter             ....  6.000000
   NL long-range parameter              ....  0.010000
 RI-approximation to the Coulomb term is turned on
   Number of AuxJ basis functions       .... 996
   RIJ-COSX (HFX calculated with COS-X)).... on


General Settings:
 Integral files         IntName         .... arbr_09_r2scan3c_wB97MV_red
 Hartree-Fock type      HFTyp           .... UHF
 Total Charge           Charge          ....   -1
 Multiplicity           Mult            ....    2
 Number of Electrons    NEL             ....  151
 Basis Dimension        Dim             ....  740
 Nuclear Repulsion      ENuc            ....   1486.5272593657 Eh

Convergence Acceleration:
 DIIS                   CNVDIIS         .... on
   Start iteration      DIISMaxIt       ....    12
   Startup error        DIISStart       ....  0.200000
   # of expansion vecs  DIISMaxEq       ....     5
   Bias factor          DIISBfac        ....   1.050
   Max. coefficient     DIISMaxC        ....  10.000
 Trust-Rad. Augm. Hess. CNVTRAH         .... auto
   Auto Start mean grad. ratio tolernc. ....  1.125000
   Auto Start start iteration           ....    20
   Auto Start num. interpolation iter.  ....    10
   Max. Number of Micro iterations      ....    16
   Max. Number of Macro iterations      .... Maxiter - #DIIS iter
   Number of Davidson start vectors     ....     2
   Converg. threshold I  (grad. norm)   ....   5.000e-05
   Converg. threshold II (energy diff.) ....   1.000e-06
   Grad. Scal. Fac. for Micro threshold ....   0.100
   Minimum threshold for Micro iter.    ....   0.010
   NR start threshold (gradient norm)   ....   0.001
   Initial trust radius                 ....   0.400
   Minimum AH scaling param. (alpha)    ....   1.000
   Maximum AH scaling param. (alpha)    .... 1000.000
   Orbital update algorithm             .... Taylor
   White noise on init. David. guess    .... on
   Maximum white noise                  ....   0.010
   Quad. conv. algorithm                .... NR
 SOSCF                  CNVSOSCF        .... off
 Level Shifting         CNVShift        .... on
   Level shift para.    LevelShift      ....    0.2500
   Turn off err/grad.   ShiftErr        ....    0.0010
 Zerner damping         CNVZerner       .... off
 Static damping         CNVDamp         .... on
   Fraction old density DampFac         ....    0.7000
   Max. Damping (<1)    DampMax         ....    0.9800
   Min. Damping (>=0)   DampMin         ....    0.0000
   Turn off err/grad.   DampErr         ....    0.1000
 Fernandez-Rico         CNVRico         .... off

SCF Procedure:
 Maximum # iterations   MaxIter         ....   125
 SCF integral mode      SCFMode         .... Direct
   Integral package                     .... SHARK and LIBINT hybrid scheme
 Reset frequency        DirectResetFreq ....    20
 Integral Threshold     Thresh          ....  1.000e-10 Eh
 Primitive CutOff       TCut            ....  1.000e-11 Eh

Convergence Tolerance:
 Convergence Check Mode ConvCheckMode   .... Total+1el-Energy
 Convergence forced     ConvForced      .... 0
 Energy Change          TolE            ....  1.000e-06 Eh
 1-El. energy change                    ....  1.000e-03 Eh
 DIIS Error             TolErr          ....  1.000e-06


Diagonalization of the overlap matrix:
Smallest eigenvalue                        ... 6.161e-06
Time for diagonalization                   ...    0.096 sec
Threshold for overlap eigenvalues          ... 1.000e-08
Number of eigenvalues below threshold      ... 0
Time for construction of square roots      ...    0.046 sec
Total time needed                          ...    0.145 sec

Time for model grid setup =    0.170 sec

------------------------------
INITIAL GUESS: MODEL POTENTIAL
------------------------------
Loading Hartree-Fock densities                     ... done
Calculating cut-offs                               ... done
Initializing the effective Hamiltonian             ... done
Setting up the integral package (SHARK)            ... done
Starting the Coulomb interaction                   ... done (   0.2 sec)
Reading the grid                                   ... done
Mapping shells                                     ... done
Starting the XC term evaluation                    ... done (   0.1 sec)
  promolecular density results
     # of electrons  =    149.995786078
     EX              =   -182.864461292
     EC              =     -5.592776533
     EX+EC           =   -188.457237826
Transforming the Hamiltonian                       ... done (   0.0 sec)
Diagonalizing the Hamiltonian                      ... done (   0.1 sec)
Back transforming the eigenvectors                 ... done (   0.0 sec)
Now organizing SCF variables                       ... done
                      ------------------
                      INITIAL GUESS DONE (   0.7 sec)
                      ------------------
-------------------
DFT GRID GENERATION
-------------------

General Integration Accuracy     IntAcc      ... 4.388
Radial Grid Type                 RadialGrid  ... OptM3 with GC (2021)
Angular Grid (max. ang.)         AngularGrid ... 4 (Lebedev-302)
Angular grid pruning method      GridPruning ... 4 (adaptive)
Weight generation scheme         WeightScheme... Becke
Basis function cutoff            BFCut       ... 1.0000e-10
Integration weight cutoff        WCut        ... 1.0000e-14
Angular grids for H and He will be reduced by one unit
Partially contracted basis set               ... off
Rotationally invariant grid construction     ... off

Total number of grid points                  ...   151633
Total number of batches                      ...     2383
Average number of points per batch           ...       63
Average number of grid points per atom       ...     4891
Time for grid setup =    0.774 sec

--------------------
COSX GRID GENERATION
--------------------

GRIDX 1
-------
General Integration Accuracy     IntAcc      ... 3.816
Radial Grid Type                 RadialGrid  ... OptM3 with GC (2021)
Angular Grid (max. ang.)         AngularGrid ... 1 (Lebedev-50)
Angular grid pruning method      GridPruning ... 4 (adaptive)
Weight generation scheme         WeightScheme... Becke
Basis function cutoff            BFCut       ... 1.0000e-10
Integration weight cutoff        WCut        ... 1.0000e-14
Angular grids for H and He will be reduced by one unit
Partially contracted basis set               ... on
Rotationally invariant grid construction     ... off

Total number of grid points                  ...    19130
Total number of batches                      ...      314
Average number of points per batch           ...       60
Average number of grid points per atom       ...      617
UseSFitting                                  ... on

GRIDX 2
-------
General Integration Accuracy     IntAcc      ... 4.020
Radial Grid Type                 RadialGrid  ... OptM3 with GC (2021)
Angular Grid (max. ang.)         AngularGrid ... 2 (Lebedev-110)
Angular grid pruning method      GridPruning ... 4 (adaptive)
Weight generation scheme         WeightScheme... Becke
Basis function cutoff            BFCut       ... 1.0000e-10
Integration weight cutoff        WCut        ... 1.0000e-14
Angular grids for H and He will be reduced by one unit
Partially contracted basis set               ... on
Rotationally invariant grid construction     ... off

Total number of grid points                  ...    41262
Total number of batches                      ...      660
Average number of points per batch           ...       62
Average number of grid points per atom       ...     1331
UseSFitting                                  ... on

GRIDX 3
-------
General Integration Accuracy     IntAcc      ... 4.338
Radial Grid Type                 RadialGrid  ... OptM3 with GC (2021)
Angular Grid (max. ang.)         AngularGrid ... 3 (Lebedev-194)
Angular grid pruning method      GridPruning ... 4 (adaptive)
Weight generation scheme         WeightScheme... Becke
Basis function cutoff            BFCut       ... 1.0000e-10
Integration weight cutoff        WCut        ... 1.0000e-14
Angular grids for H and He will be reduced by one unit
Partially contracted basis set               ... on
Rotationally invariant grid construction     ... off

Total number of grid points                  ...    90617
Total number of batches                      ...     1430
Average number of points per batch           ...       63
Average number of grid points per atom       ...     2923
UseSFitting                                  ... on

Time for X-Grid setup             =    0.896 sec

--------------
SCF ITERATIONS
--------------
ITER       Energy         Delta-E        Max-DP      RMS-DP      [F,P]     Damp
               ***  Starting incremental Fock matrix formation  ***
  0  -3282.9863584853   0.000000000000 0.03333014  0.00035385  0.1445740 0.7000
  1  -3283.2490435371  -0.262685051799 0.03848987  0.00031894  0.0729972 0.7000
                               ***Turning on DIIS***
  2  -3283.3788183369  -0.129774799797 0.10495595  0.00073293  0.0308461 0.0000
  3  -3283.5871091993  -0.208290862316 0.01655290  0.00019941  0.0293997 0.0000
  4  -3283.6223187335  -0.035209534272 0.01012748  0.00009124  0.0047419 0.0000
  5  -3283.6236795067  -0.001360773189 0.00476532  0.00004493  0.0046380 0.0000
  6  -3283.6240849821  -0.000405475334 0.00300745  0.00002529  0.0014981 0.0000
  7  -3283.6242676182  -0.000182636126 0.00315156  0.00001836  0.0010867 0.0000
  8  -3283.6244052102  -0.000137592047 0.00709198  0.00003500  0.0008819 0.0000
               *** Restarting incremental Fock matrix formation ***
                                   *** Resetting DIIS ***
  9  -3283.6245852825  -0.000180072292 0.01105512  0.00008771  0.0006197 0.0000
 10  -3283.6246824388  -0.000097156243 0.00276792  0.00001650  0.0007666 0.0000
 11  -3283.6247508507  -0.000068411964 0.00735696  0.00004070  0.0005847 0.0000
 12  -3283.6249044650  -0.000153614308 0.00926106  0.00005161  0.0005007 0.0000
 13  -3283.6250491488  -0.000144683733 0.00629696  0.00003626  0.0004040 0.0000
 14  -3283.6251180051  -0.000068856328 0.00465729  0.00002770  0.0003222 0.0000
 15  -3283.6251532194  -0.000035214308 0.00485646  0.00002979  0.0002309 0.0000
 16  -3283.6251733419  -0.000020122534 0.00125451  0.00000514  0.0001524 0.0000
 17  -3283.6251755652  -0.000002223262 0.00211603  0.00001286  0.0000751 0.0000
 18  -3283.6251774557  -0.000001890496 0.00035092  0.00000176  0.0000676 0.0000
                 **** Energy Check signals convergence ****

               *****************************************************
               *                     SUCCESS                       *
               *           SCF CONVERGED AFTER  19 CYCLES          *
               *****************************************************

Old exchange energy                            =    -48.113228042 Eh
New exchange energy                            =    -48.113206775 Eh
Exchange energy change after final integration =      0.000021267 Eh
Total energy after final integration           =  -3283.625156374 Eh
Final COS-X integration done in                =    20.293 sec

------------------
NL GRID GENERATION
------------------

General Integration Accuracy     IntAcc      ... 4.004
Radial Grid Type                 RadialGrid  ... OptM3 with GC (2021)
Angular Grid (max. ang.)         AngularGrid ... 2 (Lebedev-110)
Angular grid pruning method      GridPruning ... 4 (adaptive)
Weight generation scheme         WeightScheme... Becke
Basis function cutoff            BFCut       ... 1.0000e-10
Integration weight cutoff        WCut        ... 1.0000e-14
Angular grids for H and He will be reduced by one unit
Partially contracted basis set               ... off
Rotationally invariant grid construction     ... off

Total number of grid points                  ...    49740
Total number of batches                      ...      795
Average number of points per batch           ...       62
Average number of grid points per atom       ...     1605
Final grid set up in    0.2 sec

-------------------------------------------------------------------------------
                    post-SCF DFT-NL dispersion correction                      
-------------------------------------------------------------------------------

SCF Energy:   -3283.625156374 
NL    Energy:  0.572977094 
SC+NL Energy: -3283.052179279 
NL done in:    1.0 sec
-------------------------------------------------------------------------------

----------------
TOTAL SCF ENERGY
----------------

Total Energy       :        -3283.05217928 Eh          -89336.39157 eV

Components:
Nuclear Repulsion  :         1486.52725937 Eh           40450.46319 eV
Electronic Energy  :        -4769.57943865 Eh         -129786.85476 eV
One Electron Energy:        -7521.01989707 Eh         -204657.35598 eV
Two Electron Energy:         2751.44045842 Eh           74870.50122 eV
Max COSX asymmetry :            0.00000136 Eh               0.00004 eV

Virial components:
Potential Energy   :        -6561.53439849 Eh         -178548.42821 eV
Kinetic Energy     :         3278.48221921 Eh           89212.03664 eV
Virial Ratio       :            2.00139393


DFT components:
N(Alpha)           :       75.999894443938 electrons
N(Beta)            :       74.999898588417 electrons
N(Total)           :      150.999793032355 electrons
NL Energy, E(C,NL) :        0.572977094366 Eh       
E(XC)              :     -143.288276654404 Eh       
DFET-embed. en.    :        0.000000000000 Eh       

---------------
SCF CONVERGENCE
---------------

  Last Energy change         ...   -1.8525e-07  Tolerance :   1.0000e-06
  Last MAX-Density change    ...    0.0000e+00  Tolerance :   1.0000e-05
  Last RMS-Density change    ...    0.0000e+00  Tolerance :   1.0000e-06
  Last DIIS Error            ...    2.6584e-05  Tolerance :   1.0000e-06

             **** THE GBW FILE WAS UPDATED (arbr_09_r2scan3c_wB97MV_red.gbw) ****
             **** DENSITY arbr_09_r2scan3c_wB97MV_red.scfp WAS UPDATED ****
             **** ENERGY FILE WAS UPDATED (arbr_09_r2scan3c_wB97MV_red.en.tmp) ****
----------------------
UHF SPIN CONTAMINATION
----------------------

Warning: in a DFT calculation there is little theoretical justification to 
         calculate <S**2> as in Hartree-Fock theory. We will do it anyways
         but you should keep in mind that the values have only limited relevance

Expectation value of <S**2>     :     0.773718
Ideal value S*(S+1) for S=0.5   :     0.750000
Deviation                       :     0.023718

             **** THE GBW FILE WAS UPDATED (arbr_09_r2scan3c_wB97MV_red.gbw) ****
             **** DENSITY arbr_09_r2scan3c_wB97MV_red.scfp WAS UPDATED ****
----------------
ORBITAL ENERGIES
----------------
                 SPIN UP ORBITALS
  NO   OCC          E(Eh)            E(eV) 
   0   1.0000    -483.368732    -13153.1319 
   1   1.0000     -62.673993     -1705.4460 
   2   1.0000     -56.360303     -1533.6418 
   3   1.0000     -56.358603     -1533.5955 
   4   1.0000     -56.358457     -1533.5916 
   5   1.0000     -19.254536      -523.9426 
   6   1.0000     -19.173763      -521.7446 
   7   1.0000     -14.408624      -392.0786 
   8   1.0000     -10.357777      -281.8494 
   9   1.0000     -10.326484      -280.9979 
  10   1.0000     -10.253332      -279.0073 
  11   1.0000     -10.245729      -278.8005 
  12   1.0000     -10.243727      -278.7460 
  13   1.0000     -10.243716      -278.7457 
  14   1.0000     -10.224175      -278.2139 
  15   1.0000     -10.197062      -277.4762 
  16   1.0000     -10.184897      -277.1451 
  17   1.0000     -10.184154      -277.1249 
  18   1.0000     -10.181866      -277.0627 
  19   1.0000     -10.176951      -276.9289 
  20   1.0000     -10.176208      -276.9087 
  21   1.0000      -8.757419      -238.3015 
  22   1.0000      -6.542406      -178.0279 
  23   1.0000      -6.532952      -177.7707 
  24   1.0000      -6.532936      -177.7702 
  25   1.0000      -2.623579       -71.3912 
  26   1.0000      -2.620831       -71.3164 
  27   1.0000      -2.620785       -71.3152 
  28   1.0000      -2.613138       -71.1071 
  29   1.0000      -2.613136       -71.1070 
  30   1.0000      -1.123356       -30.5681 
  31   1.0000      -1.027988       -27.9730 
  32   1.0000      -0.960509       -26.1368 
  33   1.0000      -0.853231       -23.2176 
  34   1.0000      -0.835790       -22.7430 
  35   1.0000      -0.782013       -21.2797 
  36   1.0000      -0.758514       -20.6402 
  37   1.0000      -0.732668       -19.9369 
  38   1.0000      -0.729513       -19.8511 
  39   1.0000      -0.706173       -19.2159 
  40   1.0000      -0.688062       -18.7231 
  41   1.0000      -0.644243       -17.5307 
  42   1.0000      -0.586211       -15.9516 
  43   1.0000      -0.577975       -15.7275 
  44   1.0000      -0.540429       -14.7058 
  45   1.0000      -0.530382       -14.4324 
  46   1.0000      -0.510925       -13.9030 
  47   1.0000      -0.490518       -13.3477 
  48   1.0000      -0.481719       -13.1082 
  49   1.0000      -0.459347       -12.4995 
  50   1.0000      -0.456140       -12.4122 
  51   1.0000      -0.441948       -12.0260 
  52   1.0000      -0.427293       -11.6272 
  53   1.0000      -0.418416       -11.3857 
  54   1.0000      -0.409094       -11.1320 
  55   1.0000      -0.408646       -11.1198 
  56   1.0000      -0.400766       -10.9054 
  57   1.0000      -0.385077       -10.4785 
  58   1.0000      -0.384946       -10.4749 
  59   1.0000      -0.375925       -10.2294 
  60   1.0000      -0.371714       -10.1148 
  61   1.0000      -0.360735        -9.8161 
  62   1.0000      -0.355265        -9.6672 
  63   1.0000      -0.346432        -9.4269 
  64   1.0000      -0.333056        -9.0629 
  65   1.0000      -0.323196        -8.7946 
  66   1.0000      -0.305403        -8.3104 
  67   1.0000      -0.294372        -8.0103 
  68   1.0000      -0.290963        -7.9175 
  69   1.0000      -0.258871        -7.0442 
  70   1.0000      -0.256779        -6.9873 
  71   1.0000      -0.250140        -6.8067 
  72   1.0000      -0.233000        -6.3402 
  73   1.0000      -0.170864        -4.6494 
  74   1.0000      -0.163582        -4.4513 
  75   1.0000       0.011333         0.3084 
  76   0.0000       0.173580         4.7233 
  77   0.0000       0.206420         5.6170 
  78   0.0000       0.214500         5.8368 
  79   0.0000       0.221860         6.0371 
  80   0.0000       0.222943         6.0666 
  81   0.0000       0.229217         6.2373 
  82   0.0000       0.243634         6.6296 
  83   0.0000       0.249801         6.7974 
  84   0.0000       0.256212         6.9719 
  85   0.0000       0.261379         7.1125 
  86   0.0000       0.268119         7.2959 
  87   0.0000       0.272101         7.4043 
  88   0.0000       0.277107         7.5405 
  89   0.0000       0.283997         7.7280 
  90   0.0000       0.290253         7.8982 
  91   0.0000       0.290435         7.9031 
  92   0.0000       0.295583         8.0432 
  93   0.0000       0.301919         8.2156 
  94   0.0000       0.310666         8.4536 
  95   0.0000       0.317917         8.6510 
  96   0.0000       0.321460         8.7474 
  97   0.0000       0.325724         8.8634 
  98   0.0000       0.331941         9.0326 
  99   0.0000       0.338437         9.2093 
 100   0.0000       0.350998         9.5511 
 101   0.0000       0.366452         9.9717 
 102   0.0000       0.367649        10.0042 
 103   0.0000       0.377688        10.2774 
 104   0.0000       0.382886        10.4189 
 105   0.0000       0.393832        10.7167 
 106   0.0000       0.397927        10.8281 
 107   0.0000       0.410365        11.1666 
 108   0.0000       0.412550        11.2261 
 109   0.0000       0.425967        11.5912 
 110   0.0000       0.427009        11.6195 
 111   0.0000       0.429215        11.6795 
 112   0.0000       0.434597        11.8260 
 113   0.0000       0.441525        12.0145 
 114   0.0000       0.454307        12.3623 
 115   0.0000       0.459205        12.4956 
 116   0.0000       0.463155        12.6031 
 117   0.0000       0.469564        12.7775 
 118   0.0000       0.471223        12.8226 
 119   0.0000       0.482701        13.1349 
 120   0.0000       0.486428        13.2364 
 121   0.0000       0.492427        13.3996 
 122   0.0000       0.495729        13.4895 
 123   0.0000       0.498654        13.5691 
 124   0.0000       0.499152        13.5826 
 125   0.0000       0.501472        13.6458 
 126   0.0000       0.514119        13.9899 
 127   0.0000       0.516782        14.0624 
 128   0.0000       0.518557        14.1107 
 129   0.0000       0.524313        14.2673 
 130   0.0000       0.527569        14.3559 
 131   0.0000       0.532249        14.4832 
 132   0.0000       0.546504        14.8711 
 133   0.0000       0.554766        15.0959 
 134   0.0000       0.556215        15.1354 
 135   0.0000       0.563048        15.3213 
 136   0.0000       0.574552        15.6343 
 137   0.0000       0.576186        15.6788 
 138   0.0000       0.582423        15.8485 
 139   0.0000       0.586800        15.9676 
 140   0.0000       0.592808        16.1311 
 141   0.0000       0.594539        16.1782 
 142   0.0000       0.595056        16.1923 
 143   0.0000       0.596909        16.2427 
 144   0.0000       0.606860        16.5135 
 145   0.0000       0.608726        16.5643 
 146   0.0000       0.612717        16.6729 
 147   0.0000       0.616316        16.7708 
 148   0.0000       0.616736        16.7822 
 149   0.0000       0.633935        17.2502 
 150   0.0000       0.634629        17.2691 
 151   0.0000       0.634817        17.2743 
 152   0.0000       0.640146        17.4192 
 153   0.0000       0.640347        17.4247 
 154   0.0000       0.644249        17.5309 
 155   0.0000       0.656874        17.8744 
 156   0.0000       0.668074        18.1792 
 157   0.0000       0.670985        18.2584 
 158   0.0000       0.674126        18.3439 
 159   0.0000       0.680904        18.5284 
 160   0.0000       0.682651        18.5759 
 161   0.0000       0.692988        18.8572 
 162   0.0000       0.708398        19.2765 
 163   0.0000       0.714487        19.4422 
 164   0.0000       0.735605        20.0168 
 165   0.0000       0.741287        20.1715 
 166   0.0000       0.750616        20.4253 
 167   0.0000       0.751217        20.4417 
 168   0.0000       0.763653        20.7801 
 169   0.0000       0.766912        20.8687 
 170   0.0000       0.773674        21.0527 
 171   0.0000       0.779298        21.2058 
 172   0.0000       0.784617        21.3505 
 173   0.0000       0.793148        21.5826 
 174   0.0000       0.811431        22.0802 
 175   0.0000       0.822855        22.3910 
 176   0.0000       0.823786        22.4163 
 177   0.0000       0.828917        22.5560 
 178   0.0000       0.839485        22.8436 
 179   0.0000       0.848874        23.0990 
 180   0.0000       0.859180        23.3795 
 181   0.0000       0.871135        23.7048 
 182   0.0000       0.875898        23.8344 
 183   0.0000       0.882552        24.0155 
 184   0.0000       0.889434        24.2027 
 185   0.0000       0.894606        24.3435 
 186   0.0000       0.897749        24.4290 
 187   0.0000       0.907331        24.6897 
 188   0.0000       0.915146        24.9024 
 189   0.0000       0.916238        24.9321 
 190   0.0000       0.924599        25.1596 
 191   0.0000       0.926553        25.2128 
 192   0.0000       0.938288        25.5321 
 193   0.0000       0.946103        25.7448 
 194   0.0000       0.948967        25.8227 
 195   0.0000       0.953732        25.9524 
 196   0.0000       0.965204        26.2645 
 197   0.0000       0.967500        26.3270 
 198   0.0000       0.973634        26.4939 
 199   0.0000       0.975731        26.5510 
 200   0.0000       0.987730        26.8775 
 201   0.0000       0.999331        27.1932 
 202   0.0000       1.020300        27.7638 
 203   0.0000       1.024539        27.8791 
 204   0.0000       1.037955        28.2442 
 205   0.0000       1.043094        28.3840 
 206   0.0000       1.047569        28.5058 
 207   0.0000       1.060963        28.8703 
 208   0.0000       1.064140        28.9567 
 209   0.0000       1.074935        29.2505 
 210   0.0000       1.079328        29.3700 
 211   0.0000       1.084459        29.5096 
 212   0.0000       1.099565        29.9207 
 213   0.0000       1.106556        30.1109 
 214   0.0000       1.113229        30.2925 
 215   0.0000       1.121963        30.5302 
 216   0.0000       1.123884        30.5824 
 217   0.0000       1.133322        30.8393 
 218   0.0000       1.134135        30.8614 
 219   0.0000       1.138269        30.9739 
 220   0.0000       1.149280        31.2735 
 221   0.0000       1.164893        31.6984 
 222   0.0000       1.171051        31.8659 
 223   0.0000       1.173178        31.9238 
 224   0.0000       1.188651        32.3448 
 225   0.0000       1.197874        32.5958 
 226   0.0000       1.201564        32.6962 
 227   0.0000       1.208899        32.8958 
 228   0.0000       1.209152        32.9027 
 229   0.0000       1.214866        33.0582 
 230   0.0000       1.223927        33.3047 
 231   0.0000       1.226860        33.3846 
 232   0.0000       1.249553        34.0021 
 233   0.0000       1.255402        34.1612 
 234   0.0000       1.257270        34.2121 
 235   0.0000       1.276270        34.7291 
 236   0.0000       1.290832        35.1253 
 237   0.0000       1.291348        35.1394 
 238   0.0000       1.298362        35.3302 
 239   0.0000       1.309874        35.6435 
 240   0.0000       1.312481        35.7144 
 241   0.0000       1.325299        36.0632 
 242   0.0000       1.327888        36.1337 
 243   0.0000       1.341378        36.5008 
 244   0.0000       1.347279        36.6613 
 245   0.0000       1.350704        36.7545 
 246   0.0000       1.365405        37.1545 
 247   0.0000       1.367449        37.2102 
 248   0.0000       1.376985        37.4697 
 249   0.0000       1.389032        37.7975 
 250   0.0000       1.394729        37.9525 
 251   0.0000       1.400265        38.1031 
 252   0.0000       1.408549        38.3286 
 253   0.0000       1.415464        38.5167 
 254   0.0000       1.432000        38.9667 
 255   0.0000       1.440856        39.2077 
 256   0.0000       1.441761        39.2323 
 257   0.0000       1.454237        39.5718 
 258   0.0000       1.463573        39.8258 
 259   0.0000       1.467943        39.9448 
 260   0.0000       1.474087        40.1120 
 261   0.0000       1.475775        40.1579 
 262   0.0000       1.484804        40.4036 
 263   0.0000       1.508068        41.0366 
 264   0.0000       1.512931        41.1690 
 265   0.0000       1.514144        41.2020 
 266   0.0000       1.519613        41.3508 
 267   0.0000       1.529186        41.6113 
 268   0.0000       1.532578        41.7036 
 269   0.0000       1.541528        41.9471 
 270   0.0000       1.545403        42.0525 
 271   0.0000       1.557705        42.3873 
 272   0.0000       1.574455        42.8431 
 273   0.0000       1.574661        42.8487 
 274   0.0000       1.583579        43.0914 
 275   0.0000       1.585367        43.1400 
 276   0.0000       1.592480        43.3336 
 277   0.0000       1.593975        43.3743 
 278   0.0000       1.605675        43.6926 
 279   0.0000       1.610122        43.8137 
 280   0.0000       1.614963        43.9454 
 281   0.0000       1.625275        44.2260 
 282   0.0000       1.634997        44.4905 
 283   0.0000       1.641796        44.6755 
 284   0.0000       1.646384        44.8004 
 285   0.0000       1.667019        45.3619 
 286   0.0000       1.671415        45.4815 
 287   0.0000       1.672415        45.5087 
 288   0.0000       1.680225        45.7213 
 289   0.0000       1.682085        45.7719 
 290   0.0000       1.691702        46.0336 
 291   0.0000       1.692438        46.0536 
 292   0.0000       1.703181        46.3459 
 293   0.0000       1.709331        46.5133 
 294   0.0000       1.712908        46.6106 
 295   0.0000       1.721100        46.8335 
 296   0.0000       1.728745        47.0416 
 297   0.0000       1.732073        47.1321 
 298   0.0000       1.740683        47.3664 
 299   0.0000       1.747457        47.5507 
 300   0.0000       1.755818        47.7782 
 301   0.0000       1.764738        48.0210 
 302   0.0000       1.773525        48.2601 
 303   0.0000       1.775292        48.3081 
 304   0.0000       1.780207        48.4419 
 305   0.0000       1.784009        48.5454 
 306   0.0000       1.787608        48.6433 
 307   0.0000       1.801418        49.0191 
 308   0.0000       1.806661        49.1617 
 309   0.0000       1.807315        49.1795 
 310   0.0000       1.817208        49.4487 
 311   0.0000       1.820250        49.5315 
 312   0.0000       1.839784        50.0631 
 313   0.0000       1.853309        50.4311 
 314   0.0000       1.859668        50.6041 
 315   0.0000       1.876276        51.0561 
 316   0.0000       1.881924        51.2098 
 317   0.0000       1.882216        51.2177 
 318   0.0000       1.897353        51.6296 
 319   0.0000       1.900914        51.7265 
 320   0.0000       1.901817        51.7511 
 321   0.0000       1.920062        52.2475 
 322   0.0000       1.934529        52.6412 
 323   0.0000       1.934802        52.6487 
 324   0.0000       1.956082        53.2277 
 325   0.0000       1.962491        53.4021 
 326   0.0000       1.967274        53.5322 
 327   0.0000       1.974803        53.7371 
 328   0.0000       1.989954        54.1494 
 329   0.0000       1.990518        54.1648 
 330   0.0000       1.996532        54.3284 
 331   0.0000       2.006394        54.5967 
 332   0.0000       2.024366        55.0858 
 333   0.0000       2.035335        55.3843 
 334   0.0000       2.061974        56.1092 
 335   0.0000       2.072662        56.4000 
 336   0.0000       2.084868        56.7321 
 337   0.0000       2.088325        56.8262 
 338   0.0000       2.099235        57.1231 
 339   0.0000       2.123255        57.7767 
 340   0.0000       2.126541        57.8661 
 341   0.0000       2.153534        58.6007 
 342   0.0000       2.178038        59.2674 
 343   0.0000       2.183994        59.4295 
 344   0.0000       2.195568        59.7444 
 345   0.0000       2.205893        60.0254 
 346   0.0000       2.235731        60.8373 
 347   0.0000       2.237895        60.8962 
 348   0.0000       2.255857        61.3850 
 349   0.0000       2.259658        61.4884 
 350   0.0000       2.275494        61.9193 
 351   0.0000       2.276755        61.9537 
 352   0.0000       2.287641        62.2499 
 353   0.0000       2.296400        62.4882 
 354   0.0000       2.333833        63.5068 
 355   0.0000       2.348924        63.9175 
 356   0.0000       2.352683        64.0198 
 357   0.0000       2.365951        64.3808 
 358   0.0000       2.381649        64.8080 
 359   0.0000       2.397076        65.2278 
 360   0.0000       2.400361        65.3171 
 361   0.0000       2.404232        65.4225 
 362   0.0000       2.418782        65.8184 
 363   0.0000       2.436322        66.2957 
 364   0.0000       2.451078        66.6972 
 365   0.0000       2.463540        67.0363 
 366   0.0000       2.478921        67.4549 
 367   0.0000       2.518158        68.5226 
 368   0.0000       2.526076        68.7380 
 369   0.0000       2.531675        68.8904 
 370   0.0000       2.548474        69.3475 
 371   0.0000       2.554995        69.5250 
 372   0.0000       2.572156        69.9919 
 373   0.0000       2.594361        70.5962 
 374   0.0000       2.608350        70.9768 
 375   0.0000       2.639712        71.8302 
 376   0.0000       2.641561        71.8805 
 377   0.0000       2.644464        71.9595 
 378   0.0000       2.653497        72.2053 
 379   0.0000       2.681086        72.9561 
 380   0.0000       2.701342        73.5073 
 381   0.0000       2.710424        73.7544 
 382   0.0000       2.722425        74.0810 
 383   0.0000       2.729180        74.2648 
 384   0.0000       2.742746        74.6339 
 385   0.0000       2.744742        74.6882 
 386   0.0000       2.761563        75.1459 
 387   0.0000       2.779584        75.6363 
 388   0.0000       2.798688        76.1562 
 389   0.0000       2.803614        76.2902 
 390   0.0000       2.812514        76.5324 
 391   0.0000       2.819246        76.7156 
 392   0.0000       2.857316        77.7515 
 393   0.0000       2.877553        78.3022 
 394   0.0000       2.877814        78.3093 
 395   0.0000       2.879112        78.3446 
 396   0.0000       2.891068        78.6700 
 397   0.0000       2.899846        78.9088 
 398   0.0000       2.912874        79.2633 
 399   0.0000       2.919857        79.4534 
 400   0.0000       2.928149        79.6790 
 401   0.0000       2.931808        79.7785 
 402   0.0000       2.950803        80.2954 
 403   0.0000       2.956362        80.4467 
 404   0.0000       2.960448        80.5579 
 405   0.0000       2.966022        80.7096 
 406   0.0000       2.976732        81.0010 
 407   0.0000       2.977184        81.0133 
 408   0.0000       2.981698        81.1361 
 409   0.0000       2.990203        81.3676 
 410   0.0000       3.015402        82.0533 
 411   0.0000       3.029255        82.4302 
 412   0.0000       3.033550        82.5471 
 413   0.0000       3.038390        82.6788 
 414   0.0000       3.042774        82.7981 
 415   0.0000       3.052737        83.0692 
 416   0.0000       3.054113        83.1066 
 417   0.0000       3.064578        83.3914 
 418   0.0000       3.066392        83.4408 
 419   0.0000       3.082549        83.8804 
 420   0.0000       3.087888        84.0257 
 421   0.0000       3.100896        84.3797 
 422   0.0000       3.106206        84.5242 
 423   0.0000       3.109626        84.6172 
 424   0.0000       3.124896        85.0327 
 425   0.0000       3.138661        85.4073 
 426   0.0000       3.144880        85.5765 
 427   0.0000       3.159012        85.9611 
 428   0.0000       3.163925        86.0948 
 429   0.0000       3.168215        86.2115 
 430   0.0000       3.170712        86.2795 
 431   0.0000       3.180552        86.5472 
 432   0.0000       3.181613        86.5761 
 433   0.0000       3.190488        86.8176 
 434   0.0000       3.200451        87.0887 
 435   0.0000       3.219354        87.6031 
 436   0.0000       3.222676        87.6935 
 437   0.0000       3.228059        87.8400 
 438   0.0000       3.238580        88.1262 
 439   0.0000       3.239135        88.1413 
 440   0.0000       3.245303        88.3092 
 441   0.0000       3.258634        88.6719 
 442   0.0000       3.268255        88.9338 
 443   0.0000       3.270366        88.9912 
 444   0.0000       3.287278        89.4514 
 445   0.0000       3.297944        89.7416 
 446   0.0000       3.310398        90.0805 
 447   0.0000       3.313085        90.1536 
 448   0.0000       3.326437        90.5170 
 449   0.0000       3.335121        90.7533 
 450   0.0000       3.342304        90.9487 
 451   0.0000       3.344779        91.0161 
 452   0.0000       3.349076        91.1330 
 453   0.0000       3.351761        91.2060 
 454   0.0000       3.370049        91.7037 
 455   0.0000       3.371277        91.7371 
 456   0.0000       3.382457        92.0413 
 457   0.0000       3.391317        92.2824 
 458   0.0000       3.401674        92.5642 
 459   0.0000       3.403091        92.6028 
 460   0.0000       3.409557        92.7788 
 461   0.0000       3.423257        93.1516 
 462   0.0000       3.430977        93.3616 
 463   0.0000       3.440218        93.6131 
 464   0.0000       3.440272        93.6146 
 465   0.0000       3.452741        93.9539 
 466   0.0000       3.453075        93.9629 
 467   0.0000       3.462778        94.2270 
 468   0.0000       3.468771        94.3901 
 469   0.0000       3.470341        94.4328 
 470   0.0000       3.481468        94.7356 
 471   0.0000       3.490226        94.9739 
 472   0.0000       3.491291        95.0029 
 473   0.0000       3.498003        95.1855 
 474   0.0000       3.504900        95.3732 
 475   0.0000       3.506995        95.4302 
 476   0.0000       3.518857        95.7530 
 477   0.0000       3.531705        96.1026 
 478   0.0000       3.544417        96.4485 
 479   0.0000       3.548665        96.5641 
 480   0.0000       3.553987        96.7089 
 481   0.0000       3.557867        96.8145 
 482   0.0000       3.570978        97.1712 
 483   0.0000       3.583325        97.5072 
 484   0.0000       3.586281        97.5877 
 485   0.0000       3.592804        97.7652 
 486   0.0000       3.611164        98.2648 
 487   0.0000       3.619432        98.4898 
 488   0.0000       3.619583        98.4939 
 489   0.0000       3.621434        98.5442 
 490   0.0000       3.627551        98.7107 
 491   0.0000       3.640067        99.0513 
 492   0.0000       3.645120        99.1887 
 493   0.0000       3.652698        99.3950 
 494   0.0000       3.654345        99.4398 
 495   0.0000       3.668604        99.8278 
 496   0.0000       3.668795        99.8330 
 497   0.0000       3.674328        99.9835 
 498   0.0000       3.685340       100.2832 
 499   0.0000       3.698339       100.6369 
 500   0.0000       3.715194       101.0956 
 501   0.0000       3.719573       101.2147 
 502   0.0000       3.725236       101.3688 
 503   0.0000       3.737432       101.7007 
 504   0.0000       3.738616       101.7329 
 505   0.0000       3.744678       101.8979 
 506   0.0000       3.771956       102.6401 
 507   0.0000       3.775095       102.7256 
 508   0.0000       3.777132       102.7810 
 509   0.0000       3.784214       102.9737 
 510   0.0000       3.802278       103.4652 
 511   0.0000       3.809734       103.6681 
 512   0.0000       3.827314       104.1465 
 513   0.0000       3.829266       104.1996 
 514   0.0000       3.833644       104.3188 
 515   0.0000       3.850500       104.7774 
 516   0.0000       3.867256       105.2334 
 517   0.0000       3.872736       105.3825 
 518   0.0000       3.881827       105.6299 
 519   0.0000       3.894974       105.9876 
 520   0.0000       3.896941       106.0412 
 521   0.0000       3.901341       106.1609 
 522   0.0000       3.902443       106.1909 
 523   0.0000       3.906302       106.2959 
 524   0.0000       3.937229       107.1375 
 525   0.0000       3.937809       107.1532 
 526   0.0000       3.944848       107.3448 
 527   0.0000       3.958024       107.7033 
 528   0.0000       3.961971       107.8107 
 529   0.0000       3.972459       108.0961 
 530   0.0000       4.000786       108.8669 
 531   0.0000       4.003002       108.9272 
 532   0.0000       4.011379       109.1552 
 533   0.0000       4.024510       109.5125 
 534   0.0000       4.033881       109.7675 
 535   0.0000       4.040019       109.9345 
 536   0.0000       4.050417       110.2175 
 537   0.0000       4.059259       110.4581 
 538   0.0000       4.074683       110.8778 
 539   0.0000       4.082951       111.1028 
 540   0.0000       4.086622       111.2026 
 541   0.0000       4.090250       111.3014 
 542   0.0000       4.113312       111.9289 
 543   0.0000       4.122957       112.1914 
 544   0.0000       4.126580       112.2900 
 545   0.0000       4.129627       112.3729 
 546   0.0000       4.144610       112.7806 
 547   0.0000       4.149824       112.9225 
 548   0.0000       4.159842       113.1950 
 549   0.0000       4.162924       113.2789 
 550   0.0000       4.168563       113.4324 
 551   0.0000       4.183167       113.8298 
 552   0.0000       4.198612       114.2500 
 553   0.0000       4.199352       114.2702 
 554   0.0000       4.209277       114.5402 
 555   0.0000       4.221874       114.8830 
 556   0.0000       4.232169       115.1632 
 557   0.0000       4.239678       115.3675 
 558   0.0000       4.245797       115.5340 
 559   0.0000       4.256036       115.8126 
 560   0.0000       4.259126       115.8967 
 561   0.0000       4.263331       116.0111 
 562   0.0000       4.270398       116.2034 
 563   0.0000       4.289223       116.7157 
 564   0.0000       4.295290       116.8808 
 565   0.0000       4.300582       117.0248 
 566   0.0000       4.305385       117.1555 
 567   0.0000       4.305856       117.1683 
 568   0.0000       4.323979       117.6615 
 569   0.0000       4.343118       118.1823 
 570   0.0000       4.346615       118.2774 
 571   0.0000       4.351310       118.4052 
 572   0.0000       4.352101       118.4267 
 573   0.0000       4.356645       118.5503 
 574   0.0000       4.368290       118.8672 
 575   0.0000       4.377014       119.1046 
 576   0.0000       4.389181       119.4357 
 577   0.0000       4.397686       119.6671 
 578   0.0000       4.414494       120.1245 
 579   0.0000       4.415067       120.1401 
 580   0.0000       4.429166       120.5237 
 581   0.0000       4.430750       120.5668 
 582   0.0000       4.450402       121.1016 
 583   0.0000       4.462354       121.4268 
 584   0.0000       4.482470       121.9742 
 585   0.0000       4.484884       122.0399 
 586   0.0000       4.486622       122.0872 
 587   0.0000       4.516639       122.9040 
 588   0.0000       4.525132       123.1351 
 589   0.0000       4.537056       123.4596 
 590   0.0000       4.543377       123.6316 
 591   0.0000       4.547326       123.7390 
 592   0.0000       4.566415       124.2585 
 593   0.0000       4.575080       124.4943 
 594   0.0000       4.583413       124.7210 
 595   0.0000       4.591355       124.9371 
 596   0.0000       4.604818       125.3035 
 597   0.0000       4.610078       125.4466 
 598   0.0000       4.626786       125.9013 
 599   0.0000       4.642587       126.3312 
 600   0.0000       4.657823       126.7458 
 601   0.0000       4.660738       126.8251 
 602   0.0000       4.672505       127.1453 
 603   0.0000       4.686659       127.5305 
 604   0.0000       4.699065       127.8680 
 605   0.0000       4.732021       128.7648 
 606   0.0000       4.737631       128.9175 
 607   0.0000       4.751710       129.3006 
 608   0.0000       4.756610       129.4339 
 609   0.0000       4.765356       129.6719 
 610   0.0000       4.765412       129.6734 
 611   0.0000       4.768948       129.7697 
 612   0.0000       4.773821       129.9023 
 613   0.0000       4.796027       130.5065 
 614   0.0000       4.804573       130.7391 
 615   0.0000       4.834308       131.5482 
 616   0.0000       4.839651       131.6936 
 617   0.0000       4.851495       132.0159 
 618   0.0000       4.852312       132.0381 
 619   0.0000       4.868697       132.4840 
 620   0.0000       4.880543       132.8063 
 621   0.0000       4.898569       133.2969 
 622   0.0000       4.907143       133.5302 
 623   0.0000       4.914770       133.7377 
 624   0.0000       4.919567       133.8682 
 625   0.0000       4.934643       134.2785 
 626   0.0000       4.937170       134.3472 
 627   0.0000       4.942977       134.5052 
 628   0.0000       4.957398       134.8977 
 629   0.0000       4.960971       134.9949 
 630   0.0000       4.982769       135.5880 
 631   0.0000       4.991054       135.8135 
 632   0.0000       5.041599       137.1889 
 633   0.0000       5.063096       137.7738 
 634   0.0000       5.071023       137.9895 
 635   0.0000       5.078045       138.1806 
 636   0.0000       5.111366       139.0874 
 637   0.0000       5.158131       140.3599 
 638   0.0000       5.174132       140.7953 
 639   0.0000       5.201926       141.5516 
 640   0.0000       5.207259       141.6967 
 641   0.0000       5.234409       142.4355 
 642   0.0000       5.269319       143.3854 
 643   0.0000       5.270007       143.4042 
 644   0.0000       5.289747       143.9413 
 645   0.0000       5.298459       144.1784 
 646   0.0000       5.303695       144.3209 
 647   0.0000       5.308368       144.4480 
 648   0.0000       5.318198       144.7155 
 649   0.0000       5.330033       145.0376 
 650   0.0000       5.349741       145.5738 
 651   0.0000       5.357220       145.7774 
 652   0.0000       5.359244       145.8324 
 653   0.0000       5.377576       146.3313 
 654   0.0000       5.383193       146.4841 
 655   0.0000       5.391484       146.7097 
 656   0.0000       5.404272       147.0577 
 657   0.0000       5.414240       147.3290 
 658   0.0000       5.423529       147.5817 
 659   0.0000       5.438723       147.9952 
 660   0.0000       5.451731       148.3492 
 661   0.0000       5.467036       148.7656 
 662   0.0000       5.470982       148.8730 
 663   0.0000       5.479777       149.1123 
 664   0.0000       5.485607       149.2710 
 665   0.0000       5.503532       149.7587 
 666   0.0000       5.508985       149.9071 
 667   0.0000       5.516011       150.0983 
 668   0.0000       5.530090       150.4814 
 669   0.0000       5.532598       150.5496 
 670   0.0000       5.557480       151.2267 
 671   0.0000       5.558394       151.2516 
 672   0.0000       5.575369       151.7135 
 673   0.0000       5.590657       152.1295 
 674   0.0000       5.609570       152.6442 
 675   0.0000       5.623327       153.0185 
 676   0.0000       5.639529       153.4594 
 677   0.0000       5.656233       153.9139 
 678   0.0000       5.663725       154.1178 
 679   0.0000       5.671390       154.3264 
 680   0.0000       5.691297       154.8681 
 681   0.0000       5.716374       155.5504 
 682   0.0000       5.762487       156.8052 
 683   0.0000       5.762523       156.8062 
 684   0.0000       5.767707       156.9473 
 685   0.0000       5.798609       157.7882 
 686   0.0000       5.804829       157.9574 
 687   0.0000       5.811893       158.1496 
 688   0.0000       5.830595       158.6586 
 689   0.0000       5.835901       158.8029 
 690   0.0000       5.840471       158.9273 
 691   0.0000       5.843933       159.0215 
 692   0.0000       5.866802       159.6438 
 693   0.0000       5.879223       159.9818 
 694   0.0000       5.938039       161.5823 
 695   0.0000       5.958703       162.1446 
 696   0.0000       5.999726       163.2609 
 697   0.0000       6.036597       164.2642 
 698   0.0000       6.037503       164.2888 
 699   0.0000       6.132228       166.8664 
 700   0.0000       6.187203       168.3623 
 701   0.0000       6.215294       169.1267 
 702   0.0000       6.226892       169.4424 
 703   0.0000       6.286617       171.0675 
 704   0.0000       6.323306       172.0659 
 705   0.0000       6.396055       174.0455 
 706   0.0000       6.494827       176.7332 
 707   0.0000       6.516825       177.3318 
 708   0.0000       6.559119       178.4827 
 709   0.0000       6.592902       179.4020 
 710   0.0000       6.705724       182.4720 
 711   0.0000       6.759210       183.9275 
 712   0.0000       6.878862       187.1833 
 713   0.0000       6.905346       187.9040 
 714   0.0000       6.976327       189.8355 
 715   0.0000       7.066937       192.3011 
 716   0.0000       7.087905       192.8717 
 717   0.0000       7.239711       197.0025 
 718   0.0000       7.354237       200.1190 
 719   0.0000       7.389798       201.0866 
 720   0.0000       7.524019       204.7390 
 721   0.0000       7.766927       211.3488 
 722   0.0000       7.804613       212.3743 
 723   0.0000       8.050251       219.0585 
 724   0.0000      23.131388       629.4371 
 725   0.0000      23.169207       630.4662 
 726   0.0000      23.384830       636.3336 
 727   0.0000      23.553175       640.9145 
 728   0.0000      23.657692       643.7585 
 729   0.0000      23.781752       647.1344 
 730   0.0000      23.934228       651.2835 
 731   0.0000      24.048988       654.4062 
 732   0.0000      24.051274       654.4684 
 733   0.0000      24.112332       656.1299 
 734   0.0000      24.195998       658.4066 
 735   0.0000      24.256516       660.0534 
 736   0.0000      24.469776       665.8565 
 737   0.0000      33.733767       917.9425 
 738   0.0000      44.615448      1214.0481 
 739   0.0000      45.118389      1227.7338 

                 SPIN DOWN ORBITALS
  NO   OCC          E(Eh)            E(eV) 
   0   1.0000    -483.368737    -13153.1320 
   1   1.0000     -62.673997     -1705.4462 
   2   1.0000     -56.360298     -1533.6417 
   3   1.0000     -56.358604     -1533.5956 
   4   1.0000     -56.358479     -1533.5922 
   5   1.0000     -19.254326      -523.9368 
   6   1.0000     -19.172477      -521.7096 
   7   1.0000     -14.409055      -392.0903 
   8   1.0000     -10.355926      -281.7991 
   9   1.0000     -10.326497      -280.9983 
  10   1.0000     -10.253325      -279.0072 
  11   1.0000     -10.247060      -278.8367 
  12   1.0000     -10.243706      -278.7454 
  13   1.0000     -10.243696      -278.7451 
  14   1.0000     -10.224104      -278.2120 
  15   1.0000     -10.191942      -277.3368 
  16   1.0000     -10.183344      -277.1029 
  17   1.0000     -10.182335      -277.0754 
  18   1.0000     -10.180080      -277.0141 
  19   1.0000     -10.176282      -276.9107 
  20   1.0000     -10.173583      -276.8373 
  21   1.0000      -8.757427      -238.3017 
  22   1.0000      -6.542394      -178.0276 
  23   1.0000      -6.532972      -177.7712 
  24   1.0000      -6.532956      -177.7708 
  25   1.0000      -2.623574       -71.3911 
  26   1.0000      -2.620823       -71.3162 
  27   1.0000      -2.620808       -71.3158 
  28   1.0000      -2.613164       -71.1078 
  29   1.0000      -2.613154       -71.1075 
  30   1.0000      -1.121771       -30.5250 
  31   1.0000      -1.025935       -27.9171 
  32   1.0000      -0.958670       -26.0867 
  33   1.0000      -0.852544       -23.1989 
  34   1.0000      -0.834015       -22.6947 
  35   1.0000      -0.780567       -21.2403 
  36   1.0000      -0.754800       -20.5392 
  37   1.0000      -0.732614       -19.9354 
[...]
      f-2     :    -0.000000
      f+3     :     0.000004
      f-3     :     0.000002
  4 O s       :     0.000097  s :     0.000097
      pz      :     0.007538  p :     0.006246
      px      :    -0.000678
      py      :    -0.000614
      dz2     :     0.000035  d :     0.003698
      dxz     :     0.002221
      dyz     :     0.001285
      dx2y2   :     0.000061
      dxy     :     0.000096
      f0      :     0.000092  f :     0.000278
      f+1     :    -0.000000
      f-1     :    -0.000000
      f+2     :     0.000056
      f-2     :     0.000118
      f+3     :     0.000003
      f-3     :     0.000009
  5 C s       :     0.001740  s :     0.001740
      pz      :     0.076042  p :     0.077967
      px      :     0.001177
      py      :     0.000748
      dz2     :    -0.000039  d :     0.006115
      dxz     :     0.001721
      dyz     :     0.004644
      dx2y2   :    -0.000088
      dxy     :    -0.000123
      f0      :     0.000847  f :     0.002492
      f+1     :    -0.000074
      f-1     :    -0.000072
      f+2     :     0.001147
      f-2     :     0.000759
      f+3     :    -0.000073
      f-3     :    -0.000041
  6 O s       :     0.000545  s :     0.000545
      pz      :     0.039558  p :     0.038912
      px      :     0.000370
      py      :    -0.001016
      dz2     :     0.000053  d :     0.005505
      dxz     :     0.000059
      dyz     :     0.005273
      dx2y2   :     0.000090
      dxy     :     0.000030
      f0      :     0.000176  f :     0.000490
      f+1     :     0.000000
      f-1     :    -0.000007
      f+2     :     0.000310
      f-2     :    -0.000001
      f+3     :     0.000005
      f-3     :     0.000007
  7 N s       :    -0.001135  s :    -0.001135
      pz      :    -0.004771  p :    -0.010174
      px      :    -0.001502
      py      :    -0.003901
      dz2     :     0.000064  d :     0.021690
      dxz     :     0.003996
      dyz     :     0.016626
      dx2y2   :     0.000516
      dxy     :     0.000489
      f0      :     0.000161  f :     0.001511
      f+1     :     0.000006
      f-1     :     0.000012
      f+2     :     0.000715
      f-2     :     0.000554
      f+3     :     0.000027
      f-3     :     0.000035
  8 C s       :     0.004433  s :     0.004433
      pz      :     0.228957  p :     0.237570
      px      :     0.004070
      py      :     0.004544
      dz2     :    -0.000543  d :     0.006462
      dxz     :     0.010435
      dyz     :    -0.001936
      dx2y2   :    -0.000871
      dxy     :    -0.000623
      f0      :     0.001780  f :     0.000866
      f+1     :    -0.000159
      f-1     :    -0.000189
      f+2     :    -0.000211
      f-2     :    -0.000094
      f+3     :    -0.000063
      f-3     :    -0.000198
  9 C s       :    -0.000751  s :    -0.000751
      pz      :     0.007879  p :     0.003949
      px      :    -0.003128
      py      :    -0.000802
      dz2     :     0.000026  d :     0.045874
      dxz     :     0.044630
      dyz     :    -0.000171
      dx2y2   :     0.000424
      dxy     :     0.000964
      f0      :     0.000695  f :     0.005481
      f+1     :    -0.000002
      f-1     :     0.000010
      f+2     :     0.001708
      f-2     :     0.002839
      f+3     :     0.000129
      f-3     :     0.000103
 10 C s       :     0.001148  s :     0.001148
      pz      :     0.073869  p :     0.075395
      px      :     0.000286
      py      :     0.001240
      dz2     :    -0.000115  d :     0.019398
      dxz     :     0.011478
      dyz     :     0.007951
      dx2y2   :     0.000046
      dxy     :     0.000039
      f0      :     0.000735  f :     0.001647
      f+1     :    -0.000055
      f-1     :    -0.000049
      f+2     :     0.001225
      f-2     :    -0.000206
      f+3     :    -0.000028
      f-3     :     0.000025
 11 C s       :     0.001942  s :     0.001942
      pz      :     0.108799  p :     0.112638
      px      :     0.001544
      py      :     0.002295
      dz2     :    -0.000344  d :     0.007909
      dxz     :     0.012319
      dyz     :    -0.003307
      dx2y2   :    -0.000447
      dxy     :    -0.000313
      f0      :     0.000752  f :     0.000525
      f+1     :    -0.000086
      f-1     :    -0.000080
      f+2     :     0.000247
      f-2     :    -0.000202
      f+3     :    -0.000082
      f-3     :    -0.000024
 12 C s       :    -0.002317  s :    -0.002317
      pz      :    -0.043713  p :    -0.049206
      px      :    -0.001787
      py      :    -0.003705
      dz2     :     0.000115  d :     0.045377
      dxz     :     0.001915
      dyz     :     0.041908
      dx2y2   :     0.000706
      dxy     :     0.000734
      f0      :     0.000330  f :     0.002909
      f+1     :     0.000030
      f-1     :     0.000032
      f+2     :     0.000298
      f-2     :     0.002038
      f+3     :     0.000080
      f-3     :     0.000101
 13 Brs       :    -0.000060  s :    -0.000060
      pz      :    -0.002909  p :    -0.001231
      px      :     0.001740
      py      :    -0.000063
      dz2     :    -0.000085  d :    -0.001428
      dxz     :    -0.003574
      dyz     :     0.002677
      dx2y2   :    -0.000220
      dxy     :    -0.000225
      f0      :    -0.000110  f :    -0.000290
      f+1     :    -0.000007
      f-1     :    -0.000003
      f+2     :    -0.000219
      f-2     :     0.000109
      f+3     :    -0.000030
      f-3     :    -0.000029
 14 C s       :     0.002726  s :     0.002726
      pz      :     0.147666  p :     0.153515
      px      :     0.002850
      py      :     0.002998
      dz2     :    -0.000441  d :     0.003693
      dxz     :     0.006068
      dyz     :    -0.000876
      dx2y2   :    -0.000579
      dxy     :    -0.000479
      f0      :     0.000795  f :     0.000226
      f+1     :    -0.000113
      f-1     :    -0.000104
      f+2     :     0.000164
      f-2     :    -0.000363
      f+3     :    -0.000106
      f-3     :    -0.000047
 15 C s       :     0.000193  s :     0.000193
      pz      :     0.040757  p :     0.040028
      px      :    -0.000892
      py      :     0.000163
      dz2     :    -0.000090  d :     0.024120
      dxz     :     0.023479
      dyz     :     0.000212
      dx2y2   :     0.000159
      dxy     :     0.000360
      f0      :     0.000620  f :     0.002326
      f+1     :    -0.000031
      f-1     :    -0.000020
      f+2     :     0.001689
      f-2     :    -0.000008
      f+3     :     0.000012
      f-3     :     0.000064
 16 C s       :    -0.000319  s :    -0.000319
      pz      :     0.007594  p :     0.006322
      px      :    -0.000145
      py      :    -0.001126
      dz2     :    -0.000030  d :     0.018273
      dxz     :    -0.002560
      dyz     :     0.021094
      dx2y2   :     0.000072
      dxy     :    -0.000304
      f0      :     0.000304  f :     0.000996
      f+1     :    -0.000008
      f-1     :    -0.000006
      f+2     :     0.000139
      f-2     :     0.000624
      f+3     :    -0.000004
      f-3     :    -0.000054
 17 H s       :     0.000358  s :     0.000358
      pz      :     0.000009  p :     0.000154
      px      :     0.000130
      py      :     0.000015
      dz2     :     0.000000  d :     0.000006
      dxz     :     0.000000
      dyz     :     0.000001
      dx2y2   :     0.000002
      dxy     :     0.000001
 18 H s       :    -0.000038  s :    -0.000038
      pz      :     0.000083  p :     0.000079
      px      :    -0.000005
      py      :     0.000001
      dz2     :     0.000000  d :     0.000005
      dxz     :     0.000005
      dyz     :     0.000001
      dx2y2   :     0.000000
      dxy     :    -0.000000
 19 H s       :     0.000358  s :     0.000358
      pz      :     0.000009  p :     0.000154
      px      :     0.000130
      py      :     0.000015
      dz2     :     0.000000  d :     0.000006
      dxz     :     0.000000
      dyz     :     0.000001
      dx2y2   :     0.000002
      dxy     :     0.000001
 20 H s       :     0.000334  s :     0.000334
      pz      :    -0.000005  p :     0.000259
      px      :     0.000120
      py      :     0.000144
      dz2     :     0.000000  d :     0.000011
      dxz     :     0.000002
      dyz     :     0.000000
      dx2y2   :     0.000009
      dxy     :    -0.000000
 21 H s       :     0.000080  s :     0.000080
      pz      :     0.000015  p :     0.000065
      px      :     0.000036
      py      :     0.000015
      dz2     :     0.000000  d :     0.000001
      dxz     :     0.000001
      dyz     :     0.000000
      dx2y2   :    -0.000000
      dxy     :     0.000000
 22 H s       :     0.000175  s :     0.000175
      pz      :     0.000028  p :     0.000084
      px      :     0.000001
      py      :     0.000055
      dz2     :     0.000002  d :     0.000006
      dxz     :    -0.000000
      dyz     :     0.000002
      dx2y2   :    -0.000000
      dxy     :     0.000002
 23 H s       :     0.000080  s :     0.000080
      pz      :     0.000015  p :     0.000065
      px      :     0.000036
      py      :     0.000015
      dz2     :     0.000000  d :     0.000001
      dxz     :     0.000001
      dyz     :     0.000000
      dx2y2   :    -0.000000
      dxy     :     0.000000
 24 H s       :     0.000335  s :     0.000335
      pz      :    -0.000005  p :     0.000259
      px      :     0.000120
      py      :     0.000144
      dz2     :     0.000000  d :     0.000011
      dxz     :     0.000002
      dyz     :     0.000000
      dx2y2   :     0.000009
      dxy     :    -0.000000
 25 H s       :     0.000176  s :     0.000176
      pz      :     0.000028  p :     0.000084
      px      :     0.000001
      py      :     0.000055
      dz2     :     0.000002  d :     0.000006
      dxz     :    -0.000000
      dyz     :     0.000002
      dx2y2   :    -0.000000
      dxy     :     0.000002
 26 H s       :    -0.005853  s :    -0.005853
      pz      :     0.030215  p :     0.032072
      px      :     0.001229
      py      :     0.000629
      dz2     :    -0.000012  d :     0.004070
      dxz     :     0.002793
      dyz     :     0.000954
      dx2y2   :     0.000157
      dxy     :     0.000179
 27 H s       :    -0.000445  s :    -0.000445
      pz      :     0.002037  p :     0.001692
      px      :    -0.000386
      py      :     0.000041
      dz2     :    -0.000003  d :     0.000131
      dxz     :    -0.000091
      dyz     :     0.000287
      dx2y2   :     0.000002
      dxy     :    -0.000064
 28 H s       :    -0.002936  s :    -0.002936
      pz      :     0.012561  p :     0.013359
      px      :     0.000222
      py      :     0.000577
      dz2     :    -0.000004  d :     0.001982
      dxz     :     0.000416
      dyz     :     0.001410
      dx2y2   :     0.000077
      dxy     :     0.000082
 29 H s       :    -0.003839  s :    -0.003839
      pz      :     0.018109  p :     0.019214
      px      :     0.000271
      py      :     0.000834
      dz2     :    -0.000007  d :     0.002528
      dxz     :     0.000308
      dyz     :     0.002006
      dx2y2   :     0.000119
      dxy     :     0.000103
 30 H s       :    -0.001121  s :    -0.001121
      pz      :     0.006896  p :     0.007007
      px      :    -0.000109
      py      :     0.000221
      dz2     :    -0.000004  d :     0.000677
      dxz     :    -0.000019
      dyz     :     0.000675
      dx2y2   :     0.000005
      dxy     :     0.000020


                      *****************************
                      * MAYER POPULATION ANALYSIS *
                      *****************************

  NA   - Mulliken gross atomic population
  ZA   - Total nuclear charge
  QA   - Mulliken gross atomic charge
  VA   - Mayer's total valence
  BVA  - Mayer's bonded valence
  FA   - Mayer's free valence

  ATOM       NA         ZA         QA         VA         BVA        FA
  0 C      6.3169     6.0000    -0.3169     3.8230     3.8230     0.0000
  1 C      5.8571     6.0000     0.1429     4.0048     4.0048     0.0000
  2 C      6.3363     6.0000    -0.3363     3.7857     3.7857     0.0000
  3 C      6.3362     6.0000    -0.3362     3.7859     3.7859     0.0000
  4 O      8.3023     8.0000    -0.3023     2.0548     2.0547     0.0001
  5 C      5.5488     6.0000     0.4512     4.2020     4.1933     0.0087
  6 O      8.4575     8.0000    -0.4575     2.0447     2.0423     0.0024
  7 N      7.0296     7.0000    -0.0296     3.2059     3.2053     0.0006
  8 C      6.1912     6.0000    -0.1912     3.7532     3.6436     0.1096
  9 C      6.2668     6.0000    -0.2668     3.9720     3.9671     0.0049
 10 C      5.9595     6.0000     0.0405     3.7442     3.7289     0.0153
 11 C      6.2627     6.0000    -0.2627     3.9462     3.9191     0.0271
 12 C      5.9517     6.0000     0.0483     3.8345     3.8297     0.0048
 13 Br    35.1707    35.0000    -0.1707     1.1198     1.1198     0.0001
 14 C      6.2069     6.0000    -0.2069     3.7965     3.7474     0.0492
 15 C      6.2103     6.0000    -0.2103     3.9730     3.9666     0.0065
 16 C      5.9903     6.0000     0.0097     3.8903     3.8890     0.0013
 17 H      0.8867     1.0000     0.1133     1.0020     1.0020     0.0000
 18 H      0.9093     1.0000     0.0907     0.9957     0.9957     0.0000
 19 H      0.8867     1.0000     0.1133     1.0021     1.0021     0.0000
 20 H      0.8628     1.0000     0.1372     1.0250     1.0250     0.0000
 21 H      0.9114     1.0000     0.0886     0.9930     0.9930     0.0000
 22 H      0.8886     1.0000     0.1114     1.0000     1.0000     0.0000
 23 H      0.9113     1.0000     0.0887     0.9930     0.9930     0.0000
 24 H      0.8629     1.0000     0.1371     1.0250     1.0250     0.0000
 25 H      0.8886     1.0000     0.1114     1.0000     1.0000     0.0000
 26 H      0.9034     1.0000     0.0966     1.0309     1.0302     0.0007
 27 H      0.9249     1.0000     0.0751     1.0164     1.0164     0.0000
 28 H      0.9329     1.0000     0.0671     1.0197     1.0195     0.0001
 29 H      0.9349     1.0000     0.0651     1.0152     1.0150     0.0002
 30 H      0.9007     1.0000     0.0993     1.0444     1.0443     0.0000

  Mayer bond orders larger than 0.100000
B(  0-C ,  1-C ) :   0.9587 B(  0-C , 17-H ) :   0.9831 B(  0-C , 18-H ) :   0.9802 
B(  0-C , 19-H ) :   0.9832 B(  1-C ,  2-C ) :   0.9742 B(  1-C ,  3-C ) :   0.9747 
B(  1-C ,  4-O ) :   0.9304 B(  2-C , 20-H ) :   0.9693 B(  2-C , 21-H ) :   0.9739 
B(  2-C , 22-H ) :   0.9826 B(  3-C , 23-H ) :   0.9739 B(  3-C , 24-H ) :   0.9692 
B(  3-C , 25-H ) :   0.9825 B(  4-O ,  5-C ) :   1.1056 B(  5-C ,  6-O ) :   1.8269 
B(  5-C ,  7-N ) :   1.1844 B(  7-N ,  8-C ) :   0.9809 B(  7-N , 16-C ) :   1.0583 
B(  8-C ,  9-C ) :   1.5184 B(  8-C , 26-H ) :   0.9915 B(  9-C , 10-C ) :   1.3221 
B(  9-C , 27-H ) :   0.9727 B( 10-C , 11-C ) :   1.1845 B( 10-C , 16-C ) :   1.2131 
B( 11-C , 12-C ) :   1.5050 B( 11-C , 28-H ) :   0.9814 B( 12-C , 13-Br) :   0.9726 
B( 12-C , 14-C ) :   1.3058 B( 14-C , 15-C ) :   1.2918 B( 14-C , 29-H ) :   1.0005 
B( 15-C , 16-C ) :   1.4959 B( 15-C , 30-H ) :   0.9458 


------------------
HIRSHFELD ANALYSIS
------------------

Total integrated alpha density =     75.999894429
Total integrated beta density  =     74.999898575

  ATOM     CHARGE      SPIN    
   0 C   -0.077382    0.000666
   1 C    0.113978    0.000899
   2 C   -0.081958    0.000639
   3 C   -0.081950    0.000639
   4 O   -0.143139    0.014648
   5 C    0.231370    0.080317
   6 O   -0.319063    0.050019
   7 N   -0.063250    0.019773
   8 C   -0.106276    0.241809
   9 C   -0.132088    0.048630
  10 C   -0.063767    0.096346
  11 C   -0.106345    0.126041
  12 C   -0.010498   -0.007753
  13 Br  -0.178021    0.001504
  14 C   -0.128979    0.159672
  15 C   -0.092357    0.064041
  16 C    0.022964    0.026486
  17 H    0.025680    0.000496
  18 H    0.018724    0.000003
  19 H    0.025680    0.000496
  20 H    0.027737    0.000670
  21 H    0.015868    0.000194
  22 H    0.024659    0.000344
  23 H    0.015873    0.000194
  24 H    0.027742    0.000671
  25 H    0.024660    0.000344
  26 H   -0.005571    0.030773
  27 H    0.006467    0.002967
  28 H    0.005640    0.012694
  29 H   -0.005261    0.018033
  30 H    0.009070    0.007743

  TOTAL  -0.999793    0.999996

-------
TIMINGS
-------

Total SCF time: 0 days 0 hours 3 min 21 sec 

Total time                  ....     201.146 sec
Sum of individual times     ....     198.246 sec  ( 98.6%)

Fock matrix formation       ....     183.886 sec  ( 91.4%)
  Split-RI-J                ....       8.295 sec  (  4.5% of F)
  Chain of spheres X        ....     147.434 sec  ( 80.2% of F)
  XC integration            ....      27.410 sec  ( 14.9% of F)
    Basis function eval.    ....       1.829 sec  (  6.7% of XC)
    Density eval.           ....      10.497 sec  ( 38.3% of XC)
    XC-Functional eval.     ....       0.631 sec  (  2.3% of XC)
    XC-Potential eval.      ....      12.574 sec  ( 45.9% of XC)
Diagonalization             ....       6.134 sec  (  3.0%)
Density matrix formation    ....       0.220 sec  (  0.1%)
Population analysis         ....       2.847 sec  (  1.4%)
Initial guess               ....       0.537 sec  (  0.3%)
Orbital Transformation      ....       0.000 sec  (  0.0%)
Orbital Orthonormalization  ....       0.000 sec  (  0.0%)
DIIS solution               ....       2.615 sec  (  1.3%)
Grid generation             ....       2.007 sec  (  1.0%)

Maximum memory used throughout the entire SCF-calculation: 164.7 MB

-------------------------   --------------------
FINAL SINGLE POINT ENERGY     -3283.052179279311
-------------------------   --------------------


                            ***************************************
                            *     ORCA property calculations      *
                            ***************************************

                                    ---------------------
                                    Active property flags
                                    ---------------------
   (+) Dipole Moment


------------------------------------------------------------------------------
                       ORCA ELECTRIC PROPERTIES CALCULATION
------------------------------------------------------------------------------

Dipole Moment Calculation                       ... on
Quadrupole Moment Calculation                   ... off
Polarizability Calculation                      ... off
GBWName                                         ... arbr_09_r2scan3c_wB97MV_red.gbw
Electron density                                ... arbr_09_r2scan3c_wB97MV_red.scfp
The origin for moment calculation is the CENTER OF MASS  = ( 0.572961, -0.017986 -0.000001)

-------------
DIPOLE MOMENT
-------------
                                X             Y             Z
Electronic contribution:     84.10459      -2.79109       0.00008
Nuclear contribution   :    -85.94398       2.69811      -0.00017
                        -----------------------------------------
Total Dipole Moment    :     -1.83939      -0.09298      -0.00009
                        -----------------------------------------
Magnitude (a.u.)       :      1.84174
Magnitude (Debye)      :      4.68133



--------------------
Rotational spectrum 
--------------------
 
Rotational constants in cm-1:     0.044299     0.004255     0.003985 
Rotational constants in MHz :  1328.064381   127.561832   119.465966 

 Dipole components along the rotational axes: 
x,y,z [a.u.] :     1.838654    -0.106563    -0.000093 
x,y,z [Debye]:     4.673488    -0.270861    -0.000237 

 

Timings for individual modules:

Sum of individual times         ...      202.470 sec (=   3.374 min)
GTO integral calculation        ...        1.022 sec (=   0.017 min)   0.5 %
SCF iterations                  ...      201.448 sec (=   3.357 min)  99.5 %
                             ****ORCA TERMINATED NORMALLY****
TOTAL RUN TIME: 0 days 0 hours 3 minutes 23 seconds 229 msec
