
                                 *****************
                                 * O   R   C   A *
                                 *****************

                                            #,                                       
                                            ###                                      
                                            ####                                     
                                            #####                                    
                                            ######                                   
                                           ########,                                 
                                     ,,################,,,,,                         
                               ,,#################################,,                 
                          ,,##########################################,,             
                       ,#########################################, ''#####,          
                    ,#############################################,,   '####,        
                  ,##################################################,,,,####,       
                ,###########''''           ''''###############################       
              ,#####''   ,,,,##########,,,,          '''####'''          '####       
            ,##' ,,,,###########################,,,                        '##       
           ' ,,###''''                  '''############,,,                           
         ,,##''                                '''############,,,,        ,,,,,,###''
      ,#''                                            '''#######################'''  
     '                                                          ''''####''''         
             ,#######,   #######,   ,#######,      ##                                
            ,#'     '#,  ##    ##  ,#'     '#,    #''#        ######   ,####,        
            ##       ##  ##   ,#'  ##            #'  '#       #        #'  '#        
            ##       ##  #######   ##           ,######,      #####,   #    #        
            '#,     ,#'  ##    ##  '#,     ,#' ,#      #,         ##   #,  ,#        
             '#######'   ##     ##  '#######'  #'      '#     #####' # '####'        



                  #######################################################
                  #                        -***-                        #
                  #          Department of theory and spectroscopy      #
                  #    Directorship and core code : Frank Neese         #
                  #        Max Planck Institute fuer Kohlenforschung    #
                  #                Kaiser Wilhelm Platz 1               #
                  #                 D-45470 Muelheim/Ruhr               #
                  #                      Germany                        #
                  #                                                     #
                  #                  All rights reserved                #
                  #                        -***-                        #
                  #######################################################


                         Program Version 5.0.4 -  RELEASE  -


 With contributions from (in alphabetic order):
   Daniel Aravena         : Magnetic Suceptibility
   Michael Atanasov       : Ab Initio Ligand Field Theory (pilot matlab implementation)
   Alexander A. Auer      : GIAO ZORA, VPT2 properties, NMR spectrum
   Ute Becker             : Parallelization
   Giovanni Bistoni       : ED, misc. LED, open-shell LED, HFLD
   Martin Brehm           : Molecular dynamics
   Dmytro Bykov           : SCF Hessian
   Vijay G. Chilkuri      : MRCI spin determinant printing, contributions to CSF-ICE
   Dipayan Datta          : RHF DLPNO-CCSD density
   Achintya Kumar Dutta   : EOM-CC, STEOM-CC
   Dmitry Ganyushin       : Spin-Orbit,Spin-Spin,Magnetic field MRCI
   Miquel Garcia          : C-PCM and meta-GGA Hessian, CC/C-PCM, Gaussian charge scheme
   Yang Guo               : DLPNO-NEVPT2, F12-NEVPT2, CIM, IAO-localization
   Andreas Hansen         : Spin unrestricted coupled pair/coupled cluster methods
   Benjamin Helmich-Paris : MC-RPA, TRAH-SCF, COSX integrals
   Lee Huntington         : MR-EOM, pCC
   Robert Izsak           : Overlap fitted RIJCOSX, COSX-SCS-MP3, EOM
   Marcus Kettner         : VPT2
   Christian Kollmar      : KDIIS, OOCD, Brueckner-CCSD(T), CCSD density, CASPT2, CASPT2-K
   Simone Kossmann        : Meta GGA functionals, TD-DFT gradient, OOMP2, MP2 Hessian
   Martin Krupicka        : Initial AUTO-CI
   Lucas Lang             : DCDCAS
   Marvin Lechner         : AUTO-CI (C++ implementation), FIC-MRCC
   Dagmar Lenk            : GEPOL surface, SMD
   Dimitrios Liakos       : Extrapolation schemes; Compound Job, initial MDCI parallelization
   Dimitrios Manganas     : Further ROCIS development; embedding schemes
   Dimitrios Pantazis     : SARC Basis sets
   Anastasios Papadopoulos: AUTO-CI, single reference methods and gradients
   Taras Petrenko         : DFT Hessian,TD-DFT gradient, ASA, ECA, R-Raman, ABS, FL, XAS/XES, NRVS
   Peter Pinski           : DLPNO-MP2, DLPNO-MP2 Gradient
   Christoph Reimann      : Effective Core Potentials
   Marius Retegan         : Local ZFS, SOC
   Christoph Riplinger    : Optimizer, TS searches, QM/MM, DLPNO-CCSD(T), (RO)-DLPNO pert. Triples
   Tobias Risthaus        : Range-separated hybrids, TD-DFT gradient, RPA, STAB
   Michael Roemelt        : Original ROCIS implementation
   Masaaki Saitow         : Open-shell DLPNO-CCSD energy and density
   Barbara Sandhoefer     : DKH picture change effects
   Avijit Sen             : IP-ROCIS
   Kantharuban Sivalingam : CASSCF convergence, NEVPT2, FIC-MRCI
   Bernardo de Souza      : ESD, SOC TD-DFT
   Georgi Stoychev        : AutoAux, RI-MP2 NMR, DLPNO-MP2 response
   Willem Van den Heuvel  : Paramagnetic NMR
   Boris Wezisla          : Elementary symmetry handling
   Frank Wennmohs         : Technical directorship


 We gratefully acknowledge several colleagues who have allowed us to
 interface, adapt or use parts of their codes:
   Stefan Grimme, W. Hujo, H. Kruse, P. Pracht,  : VdW corrections, initial TS optimization,
                  C. Bannwarth, S. Ehlert          DFT functionals, gCP, sTDA/sTD-DF
   Ed Valeev, F. Pavosevic, A. Kumar             : LibInt (2-el integral package), F12 methods
   Garnet Chan, S. Sharma, J. Yang, R. Olivares  : DMRG
   Ulf Ekstrom                                   : XCFun DFT Library
   Mihaly Kallay                                 : mrcc  (arbitrary order and MRCC methods)
   Jiri Pittner, Ondrej Demel                    : Mk-CCSD
   Frank Weinhold                                : gennbo (NPA and NBO analysis)
   Christopher J. Cramer and Donald G. Truhlar   : smd solvation model
   Lars Goerigk                                  : TD-DFT with DH, B97 family of functionals
   V. Asgeirsson, H. Jonsson                     : NEB implementation
   FAccTs GmbH                                   : IRC, NEB, NEB-TS, DLPNO-Multilevel, CI-OPT
                                                   MM, QMMM, 2- and 3-layer-ONIOM, Crystal-QMMM,
                                                   LR-CPCM, SF, NACMEs, symmetry and pop. for TD-DFT,
                                                   nearIR, NL-DFT gradient (VV10), updates on ESD,
                                                   ML-optimized integration grids
   S Lehtola, MJT Oliveira, MAL Marques          : LibXC Library
   Liviu Ungur et al                             : ANISO software


 Your calculation uses the libint2 library for the computation of 2-el integrals
 For citations please refer to: http://libint.valeyev.net

 Your ORCA version has been built with support for libXC version: 5.1.0
 For citations please refer to: https://tddft.org/programs/libxc/

 This ORCA versions uses:
   CBLAS   interface :  Fast vector & matrix operations
   LAPACKE interface :  Fast linear algebra routines
   SCALAPACK package :  Parallel linear algebra routines
   Shared memory     :  Shared parallel matrices
   BLAS/LAPACK       :  OpenBLAS 0.3.15  USE64BITINT DYNAMIC_ARCH NO_AFFINITY SkylakeX SINGLE_THREADED
        Core in use  :  SkylakeX
   Copyright (c) 2011-2014, The OpenBLAS Project


Your calculation utilizes the DFT-NL dispersion correction.
Cite in your paper:
Vydrov, O. A.; Van Voorhis, T. J. Chem. Phys. 2010, 133, 244103
Hujo, W.; Grimme, S. J. Chem. Theory Comput. 2011, 7, 3866 
   

================================================================================

----- Orbital basis set information -----
Your calculation utilizes the basis: def2-TZVPP
   F. Weigend and R. Ahlrichs, Phys. Chem. Chem. Phys. 7, 3297 (2005).

----- AuxJ basis set information -----
Your calculation utilizes the auxiliary basis: def2/J
   F. Weigend, Phys. Chem. Chem. Phys. 8, 1057 (2006).

================================================================================
                                        WARNINGS
                       Please study these warnings very carefully!
================================================================================

WARNING: Old DensityContainer found on disk!
         Will remove this file - 
         If you want to keep old densities, please start your calculation with a different basename. 

Using LibXC functional ID 531 : wB97M-V exchange-correlation functional
[ 1]  N. Mardirossian and M. Head-Gordon, J. Chem. Phys. 144, 214110 (2016)
Using LibXC functional ID 531 : wB97M-V exchange-correlation functional
[ 1]  N. Mardirossian and M. Head-Gordon, J. Chem. Phys. 144, 214110 (2016)

WARNING: B97M-V or wB97M-V functional requested.
  ===> : libXC variant has now been activated.
         Any manually given DFX/HFX/RangeSep scaling parameters are IGNORED!

Your calculation utilizes LibXC
 by S Lehtola, C Steigemann, MJT Oliveira & MAL Marques
Please cite in your paper:
 S Lehtola, C Steigemann, MJT Oliveira & MAL Marques, SoftwareX, 7, (2018), 1.
   


INFO   : the flag for use of the SHARK integral package has been found!

================================================================================
                                       INPUT FILE
================================================================================
NAME = arbr_03_r2scan3c.inp
|  1> %PAL NPROCS 16 END
|  2> %maxcore 4000
|  3> # arbr_03_r2scan3c.out
|  4> ! wB97m-v def2-TZVPP def2/J RIJCOSX Hirshfeld 
|  5> * xyz 0 1
|  6>   Br       -2.89657        -0.24500        -0.00000
|  7>    C       -1.04428         0.15537         0.00000
|  8>    C       -0.65059         1.51035        -0.00000
|  9>    C        0.67888         1.81816         0.00000
| 10>    C        1.66649         0.80354         0.00000
| 11>    C        3.05048         1.09947        -0.00000
| 12>    C        3.97798         0.09694        -0.00000
| 13>    C        3.56550        -1.25418        -0.00000
| 14>    C        2.23711        -1.57117         0.00000
| 15>    C        1.25275        -0.55302         0.00000
| 16>    C       -0.13087        -0.85572         0.00000
| 17>    H       -1.40352         2.28577        -0.00000
| 18>    H        0.99363         2.85484         0.00000
| 19>    H        3.36047         2.13761        -0.00000
| 20>    H        5.03374         0.33396        -0.00001
| 21>    H        4.30933        -2.04016        -0.00001
| 22>    H        1.91674        -2.60600         0.00000
| 23>    H       -0.45113        -1.88940         0.00000
| 24> *
| 25> 
| 26>                          ****END OF INPUT****
================================================================================

                       ****************************
                       * Single Point Calculation *
                       ****************************

---------------------------------
CARTESIAN COORDINATES (ANGSTROEM)
---------------------------------
  Br    -2.896570   -0.245000   -0.000000
  C     -1.044280    0.155370    0.000000
  C     -0.650590    1.510350   -0.000000
  C      0.678880    1.818160    0.000000
  C      1.666490    0.803540    0.000000
  C      3.050480    1.099470   -0.000000
  C      3.977980    0.096940   -0.000000
  C      3.565500   -1.254180   -0.000000
  C      2.237110   -1.571170    0.000000
  C      1.252750   -0.553020    0.000000
  C     -0.130870   -0.855720    0.000000
  H     -1.403520    2.285770   -0.000000
  H      0.993630    2.854840    0.000000
  H      3.360470    2.137610   -0.000000
  H      5.033740    0.333960   -0.000010
  H      4.309330   -2.040160   -0.000010
  H      1.916740   -2.606000    0.000000
  H     -0.451130   -1.889400    0.000000

----------------------------
CARTESIAN COORDINATES (A.U.)
----------------------------
  NO LB      ZA    FRAG     MASS         X           Y           Z
   0 Br   35.0000    0    79.900   -5.473724   -0.462983   -0.000000
   1 C     6.0000    0    12.011   -1.973403    0.293607    0.000000
   2 C     6.0000    0    12.011   -1.229437    2.854148   -0.000000
   3 C     6.0000    0    12.011    1.282897    3.435824    0.000000
   4 C     6.0000    0    12.011    3.149210    1.518471    0.000000
   5 C     6.0000    0    12.011    5.764572    2.077697   -0.000000
   6 C     6.0000    0    12.011    7.517293    0.183190   -0.000000
   7 C     6.0000    0    12.011    6.737819   -2.370057   -0.000000
   8 C     6.0000    0    12.011    4.227525   -2.969081    0.000000
   9 C     6.0000    0    12.011    2.367354   -1.045056    0.000000
  10 C     6.0000    0    12.011   -0.247308   -1.617076    0.000000
  11 H     1.0000    0     1.008   -2.652268    4.319479   -0.000000
  12 H     1.0000    0     1.008    1.877689    5.394866    0.000000
  13 H     1.0000    0     1.008    6.350368    4.039497   -0.000000
  14 H     1.0000    0     1.008    9.512390    0.631093   -0.000019
  15 H     1.0000    0     1.008    8.143454   -3.855344   -0.000019
  16 H     1.0000    0     1.008    3.622114   -4.924626    0.000000
  17 H     1.0000    0     1.008   -0.852512   -3.570449    0.000000

--------------------------------
INTERNAL COORDINATES (ANGSTROEM)
--------------------------------
 Br     0   0   0     0.000000000000     0.00000000     0.00000000
 C      1   0   0     1.895065798594     0.00000000     0.00000000
 C      2   1   0     1.411014747088   118.39801549     0.00000000
 C      3   2   1     1.364638222021   119.23714995   180.00000000
 C      4   3   2     1.415919226686   121.19122390     0.00000000
 C      5   4   3     1.415274844332   122.15767836   180.00000000
 C      6   5   4     1.365768154154   120.70429431   180.00000000
 C      7   6   5     1.412680078716   120.24948143     0.00000000
 C      8   7   6     1.365687611498   120.39811233     0.00000000
 C      9   8   7     1.416189970343   120.61195400     0.00000000
 C      2   1   3     1.362578737615   119.89761569   180.00000085
 H      3   2   1     1.080823649491   119.64181424     0.00000000
 H      4   3   2     1.083408041737   119.92490131   180.00000000
 H      6   5   4     1.083433643423   118.69514655     0.00000000
 H      7   6   5     1.082038658320   120.12053489   179.99938782
 H      8   7   6     1.082149541145   119.60146586   179.99939106
 H      9   8   7     1.083286696032   120.62318833   180.00000000
 H     11   2   1     1.082155631136   120.69132067     0.00000000

---------------------------
INTERNAL COORDINATES (A.U.)
---------------------------
 Br     0   0   0     0.000000000000     0.00000000     0.00000000
 C      1   0   0     3.581155365103     0.00000000     0.00000000
 C      2   1   0     2.666431442921   118.39801549     0.00000000
 C      3   2   1     2.578792511500   119.23714995   180.00000000
 C      4   3   2     2.675699566191   121.19122390     0.00000000
 C      5   4   3     2.674481860016   122.15767836   180.00000000
 C      6   5   4     2.580927773781   120.70429431   180.00000000
 C      7   6   5     2.669578463619   120.24948143     0.00000000
 C      8   7   6     2.580775570221   120.39811233     0.00000000
 C      9   8   7     2.676211197554   120.61195400     0.00000000
 C      2   1   3     2.574900649996   119.89761569   180.00000085
 H      3   2   1     2.042460696604   119.64181424     0.00000000
 H      4   3   2     2.047344490171   119.92490131   180.00000000
 H      6   5   4     2.047392870345   118.69514655     0.00000000
 H      7   6   5     2.044756730541   120.12053489   179.99938782
 H      8   7   6     2.044966268712   119.60146586   179.99939106
 H      9   8   7     2.047115180021   120.62318833   180.00000000
 H     11   2   1     2.044977777128   120.69132067     0.00000000

---------------------
BASIS SET INFORMATION
---------------------
There are 3 groups of distinct atoms

 Group   1 Type Br  : 17s13p8d1f contracted to 6s5p4d1f pattern {842111/64111/5111/1}
 Group   2 Type C   : 11s6p2d1f contracted to 5s3p2d1f pattern {62111/411/11/1}
 Group   3 Type H   : 5s2p1d contracted to 3s2p1d pattern {311/11/1}

Atom   0Br   basis set group =>   1
Atom   1C    basis set group =>   2
Atom   2C    basis set group =>   2
Atom   3C    basis set group =>   2
Atom   4C    basis set group =>   2
Atom   5C    basis set group =>   2
Atom   6C    basis set group =>   2
Atom   7C    basis set group =>   2
Atom   8C    basis set group =>   2
Atom   9C    basis set group =>   2
Atom  10C    basis set group =>   2
Atom  11H    basis set group =>   3
Atom  12H    basis set group =>   3
Atom  13H    basis set group =>   3
Atom  14H    basis set group =>   3
Atom  15H    basis set group =>   3
Atom  16H    basis set group =>   3
Atom  17H    basis set group =>   3
---------------------------------
AUXILIARY/J BASIS SET INFORMATION
---------------------------------
There are 3 groups of distinct atoms

 Group   1 Type Br  : 19s5p5d3f1g contracted to 8s4p3d2f1g pattern {121111111/2111/311/21/1}
 Group   2 Type C   : 12s5p4d2f1g contracted to 6s4p3d1f1g pattern {711111/2111/211/2/1}
 Group   3 Type H   : 5s2p1d contracted to 3s1p1d pattern {311/2/1}

Atom   0Br   basis set group =>   1
Atom   1C    basis set group =>   2
Atom   2C    basis set group =>   2
Atom   3C    basis set group =>   2
Atom   4C    basis set group =>   2
Atom   5C    basis set group =>   2
Atom   6C    basis set group =>   2
Atom   7C    basis set group =>   2
Atom   8C    basis set group =>   2
Atom   9C    basis set group =>   2
Atom  10C    basis set group =>   2
Atom  11H    basis set group =>   3
Atom  12H    basis set group =>   3
Atom  13H    basis set group =>   3
Atom  14H    basis set group =>   3
Atom  15H    basis set group =>   3
Atom  16H    basis set group =>   3
Atom  17H    basis set group =>   3

Checking for AutoStart:
The File: arbr_03_r2scan3c.gbw exists
Trying to determine its content:
     ... Fine, the file contains calculation information
     ... Fine, the calculation information was read
     ... Fine, the file contains a basis set
     ... Fine, the basis set was read
     ... Fine, the file contains a geometry
     ... Fine, the geometry was read
     ... Fine, the file contains a set of orbitals
     ... Fine, the orbitals can be read
     => possible old guess file was deleted
     => GBW file was renamed to GES file
     => GES file is set as startup file
     => Guess is set to MORead
     ... now leaving AutoStart



           ************************************************************
           *        Program running with 16 parallel MPI-processes    *
           *              working on a common directory               *
           ************************************************************
------------------------------------------------------------------------------
                           ORCA GTO INTEGRAL CALCULATION
                           -- RI-GTO INTEGRALS CHOSEN --
------------------------------------------------------------------------------
------------------------------------------------------------------------------
                   ___                                                        
                  /   \      - P O W E R E D   B Y -                         
                 /     \                                                     
                 |  |  |   _    _      __       _____    __    __             
                 |  |  |  | |  | |    /  \     |  _  \  |  |  /  |          
                  \  \/   | |  | |   /    \    | | | |  |  | /  /          
                 / \  \   | |__| |  /  /\  \   | |_| |  |  |/  /          
                |  |  |   |  __  | /  /__\  \  |    /   |      \           
                |  |  |   | |  | | |   __   |  |    \   |  |\   \          
                \     /   | |  | | |  |  |  |  | |\  \  |  | \   \       
                 \___/    |_|  |_| |__|  |__|  |_| \__\ |__|  \__/        
                                                                              
                      - O R C A' S   B I G   F R I E N D -                    
                                      &                                       
                       - I N T E G R A L  F E E D E R -                       
                                                                              
 v1 FN, 2020, v2 2021                                                         
------------------------------------------------------------------------------


Reading SHARK input file arbr_03_r2scan3c.SHARKINP.tmp ... ok
----------------------
SHARK INTEGRAL PACKAGE
----------------------

Number of atoms                             ...     18
Number of basis functions                   ...    456
Number of shells                            ...    168
Maximum angular momentum                    ...      3
Integral batch strategy                     ... SHARK/LIBINT Hybrid
RI-J (if used) integral strategy            ... SPLIT-RIJ (Revised 2003 algorithm where possible)
Printlevel                                  ...      1
Contraction scheme used                     ... SEGMENTED contraction
Coulomb Range Separation                    ... NOT USED
Exchange Range Separation                   ... Long Range
   Mu parameter                             ...  0.300000
   Scaling (regular/separated)              ...  0.150000  0.850000
Finite Nucleus Model                        ... NOT USED
Auxiliary Coulomb fitting basis             ... AVAILABLE
   # of basis functions in Aux-J            ...    625
   # of shells in Aux-J                     ...    203
   Maximum angular momentum in Aux-J        ...      4
Auxiliary J/K fitting basis                 ... NOT available
Auxiliary Correlation fitting basis         ... NOT available
Auxiliary 'external' fitting basis          ... NOT available
Integral threshold                          ...     1.000000e-10
Primitive cut-off                           ...     1.000000e-11
Primitive pair pre-selection threshold      ...     1.000000e-11

Calculating pre-screening integrals         ... done (  0.0 sec) Dimension = 168
Organizing shell pair data                  ... done (  0.1 sec)
Shell pair information
Total number of shell pairs                 ...     14196
Shell pairs after pre-screening             ...     11938
Total number of primitive shell pairs       ...     43967
Primitive shell pairs kept                  ...     26415
          la=0 lb=0:   2429 shell pairs
          la=1 lb=0:   3232 shell pairs
          la=1 lb=1:   1090 shell pairs
          la=2 lb=0:   1931 shell pairs
          la=2 lb=1:   1296 shell pairs
          la=2 lb=2:    408 shell pairs
          la=3 lb=0:    724 shell pairs
          la=3 lb=1:    476 shell pairs
          la=3 lb=2:    289 shell pairs
          la=3 lb=3:     63 shell pairs

Calculating one electron integrals          ... done (  0.0 sec)
Calculating RI/J V-Matrix + Cholesky decomp.... done (  0.0 sec)
Calculating Nuclear repulsion               ... done (  0.0 sec) ENN=    762.010724349241 Eh

SHARK setup successfully completed in   0.4 seconds

Maximum memory used throughout the entire GTOINT-calculation: 28.6 MB


           ************************************************************
           *        Program running with 16 parallel MPI-processes    *
           *              working on a common directory               *
           ************************************************************
-------------------------------------------------------------------------------
                                 ORCA SCF
-------------------------------------------------------------------------------

------------
SCF SETTINGS
------------
Hamiltonian:
 Density Functional     Method          .... DFT(GTOs)
  Functional kind                       .... Exchange-Correlation
  Functional name                       .... wB97M-V exchange-correlation functional
  Functional family                     .... Hybrid MGGA
  Functional refs                              
    [ 0] N. Mardirossian and M. Head-Gordon, J. Chem. Phys. 144, 214110 (2016)
  Fraction of HF Exchange (short range) .... 0.1500
  Fraction of HF Exchange (long range)  .... 1.0000
  Range separation parameter mu         .... 0.3000
  Functional external parameters         .... 0
   Density functional embedding theory  .... OFF
 Long-range corrected/Screened/Range-Separated Hybrid DFT is turned on
   Amount of maximum screened exact exchange              ....  0.850000
   Range separation parameter mu (erf(mu*r12)/r12)        ....  0.300000
   NL short-range parameter             ....  6.000000
   NL long-range parameter              ....  0.010000
 RI-approximation to the Coulomb term is turned on
   Number of AuxJ basis functions       .... 625
   RIJ-COSX (HFX calculated with COS-X)).... on


General Settings:
 Integral files         IntName         .... arbr_03_r2scan3c
 Hartree-Fock type      HFTyp           .... RHF
 Total Charge           Charge          ....    0
 Multiplicity           Mult            ....    1
 Number of Electrons    NEL             ....  102
 Basis Dimension        Dim             ....  456
 Nuclear Repulsion      ENuc            ....    762.0107243492 Eh

Convergence Acceleration:
 DIIS                   CNVDIIS         .... on
   Start iteration      DIISMaxIt       ....    12
   Startup error        DIISStart       ....  0.200000
   # of expansion vecs  DIISMaxEq       ....     5
   Bias factor          DIISBfac        ....   1.050
   Max. coefficient     DIISMaxC        ....  10.000
 Trust-Rad. Augm. Hess. CNVTRAH         .... auto
   Auto Start mean grad. ratio tolernc. ....  1.125000
   Auto Start start iteration           ....     1
   Auto Start num. interpolation iter.  ....    10
   Max. Number of Micro iterations      ....    16
   Max. Number of Macro iterations      .... Maxiter - #DIIS iter
   Number of Davidson start vectors     ....     2
   Converg. threshold I  (grad. norm)   ....   5.000e-05
   Converg. threshold II (energy diff.) ....   1.000e-06
   Grad. Scal. Fac. for Micro threshold ....   0.100
   Minimum threshold for Micro iter.    ....   0.010
   NR start threshold (gradient norm)   ....   0.001
   Initial trust radius                 ....   0.400
   Minimum AH scaling param. (alpha)    ....   1.000
   Maximum AH scaling param. (alpha)    .... 1000.000
   Orbital update algorithm             .... Taylor
   White noise on init. David. guess    .... on
   Maximum white noise                  ....   0.010
   Quad. conv. algorithm                .... NR
 SOSCF                  CNVSOSCF        .... on
   Start iteration      SOSCFMaxIt      ....   150
   Startup grad/error   SOSCFStart      ....  0.003300
 Level Shifting         CNVShift        .... on
   Level shift para.    LevelShift      ....    0.2500
   Turn off err/grad.   ShiftErr        ....    0.0010
 Zerner damping         CNVZerner       .... off
 Static damping         CNVDamp         .... on
   Fraction old density DampFac         ....    0.7000
   Max. Damping (<1)    DampMax         ....    0.9800
   Min. Damping (>=0)   DampMin         ....    0.0000
   Turn off err/grad.   DampErr         ....    0.1000
 Fernandez-Rico         CNVRico         .... off

SCF Procedure:
 Maximum # iterations   MaxIter         ....   125
 SCF integral mode      SCFMode         .... Direct
   Integral package                     .... SHARK and LIBINT hybrid scheme
 Reset frequency        DirectResetFreq ....    20
 Integral Threshold     Thresh          ....  1.000e-10 Eh
 Primitive CutOff       TCut            ....  1.000e-11 Eh

Convergence Tolerance:
 Convergence Check Mode ConvCheckMode   .... Total+1el-Energy
 Convergence forced     ConvForced      .... 0
 Energy Change          TolE            ....  1.000e-06 Eh
 1-El. energy change                    ....  1.000e-03 Eh
 Orbital Gradient       TolG            ....  5.000e-05
 Orbital Rotation angle TolX            ....  5.000e-05
 DIIS Error             TolErr          ....  1.000e-06


Diagonalization of the overlap matrix:
Smallest eigenvalue                        ... 5.887e-06
Time for diagonalization                   ...    0.026 sec
Threshold for overlap eigenvalues          ... 1.000e-08
Number of eigenvalues below threshold      ... 0
Time for construction of square roots      ...    0.019 sec
Total time needed                          ...    0.046 sec

---------------------
INITIAL GUESS: MOREAD
---------------------
Guess MOs are being read from file: arbr_03_r2scan3c.ges
Input Geometry matches current geometry (good)
Input basis set matches current basis set (good)
MOs were renormalized
MOs were reorthogonalized (Cholesky)
                      ------------------
                      INITIAL GUESS DONE (   0.1 sec)
                      ------------------
-------------------
DFT GRID GENERATION
-------------------

General Integration Accuracy     IntAcc      ... 4.388
Radial Grid Type                 RadialGrid  ... OptM3 with GC (2021)
Angular Grid (max. ang.)         AngularGrid ... 4 (Lebedev-302)
Angular grid pruning method      GridPruning ... 4 (adaptive)
Weight generation scheme         WeightScheme... Becke
Basis function cutoff            BFCut       ... 1.0000e-10
Integration weight cutoff        WCut        ... 1.0000e-14
Angular grids for H and He will be reduced by one unit
Partially contracted basis set               ... off
Rotationally invariant grid construction     ... off

Total number of grid points                  ...    93624
Total number of batches                      ...     1474
Average number of points per batch           ...       63
Average number of grid points per atom       ...     5201
Time for grid setup =    0.408 sec

--------------------
COSX GRID GENERATION
--------------------

GRIDX 1
-------
General Integration Accuracy     IntAcc      ... 3.816
Radial Grid Type                 RadialGrid  ... OptM3 with GC (2021)
Angular Grid (max. ang.)         AngularGrid ... 1 (Lebedev-50)
Angular grid pruning method      GridPruning ... 4 (adaptive)
Weight generation scheme         WeightScheme... Becke
Basis function cutoff            BFCut       ... 1.0000e-10
Integration weight cutoff        WCut        ... 1.0000e-14
Angular grids for H and He will be reduced by one unit
Partially contracted basis set               ... on
Rotationally invariant grid construction     ... off

Total number of grid points                  ...    11748
Total number of batches                      ...      191
Average number of points per batch           ...       61
Average number of grid points per atom       ...      653
UseSFitting                                  ... on

GRIDX 2
-------
General Integration Accuracy     IntAcc      ... 4.020
Radial Grid Type                 RadialGrid  ... OptM3 with GC (2021)
Angular Grid (max. ang.)         AngularGrid ... 2 (Lebedev-110)
Angular grid pruning method      GridPruning ... 4 (adaptive)
Weight generation scheme         WeightScheme... Becke
Basis function cutoff            BFCut       ... 1.0000e-10
Integration weight cutoff        WCut        ... 1.0000e-14
Angular grids for H and He will be reduced by one unit
Partially contracted basis set               ... on
Rotationally invariant grid construction     ... off

Total number of grid points                  ...    25830
Total number of batches                      ...      413
Average number of points per batch           ...       62
Average number of grid points per atom       ...     1435
UseSFitting                                  ... on

GRIDX 3
-------
General Integration Accuracy     IntAcc      ... 4.338
Radial Grid Type                 RadialGrid  ... OptM3 with GC (2021)
Angular Grid (max. ang.)         AngularGrid ... 3 (Lebedev-194)
Angular grid pruning method      GridPruning ... 4 (adaptive)
Weight generation scheme         WeightScheme... Becke
Basis function cutoff            BFCut       ... 1.0000e-10
Integration weight cutoff        WCut        ... 1.0000e-14
Angular grids for H and He will be reduced by one unit
Partially contracted basis set               ... on
Rotationally invariant grid construction     ... off

Total number of grid points                  ...    56964
Total number of batches                      ...      899
Average number of points per batch           ...       63
Average number of grid points per atom       ...     3165
UseSFitting                                  ... on

Time for X-Grid setup             =    0.364 sec

--------------
SCF ITERATIONS
--------------
ITER       Energy         Delta-E        Max-DP      RMS-DP      [F,P]     Damp
               ***  Starting incremental Fock matrix formation  ***
                      *** Initiating the SOSCF procedure ***
                      *** Re-Reading the Fockian *** 
                      *** Removing any level shift *** 
ITER      Energy       Delta-E        Grad      Rot      Max-DP    RMS-DP
  0  -2959.68763120 -2959.6876312009  0.000011  0.000011  0.000481  0.000007
               *** Restarting incremental Fock matrix formation ***
                 **** Energy Check signals convergence ****
              ***Rediagonalizing the Fockian in SOSCF/NRSCF***

               *****************************************************
               *                     SUCCESS                       *
               *           SCF CONVERGED AFTER   1 CYCLES          *
               *****************************************************

Old exchange energy                            =    -35.346391930 Eh
New exchange energy                            =    -35.346435078 Eh
Exchange energy change after final integration =     -0.000043149 Eh
Total energy after final integration           =  -2959.687674352 Eh
Final COS-X integration done in                =     5.637 sec

------------------
NL GRID GENERATION
------------------

General Integration Accuracy     IntAcc      ... 4.004
Radial Grid Type                 RadialGrid  ... OptM3 with GC (2021)
Angular Grid (max. ang.)         AngularGrid ... 2 (Lebedev-110)
Angular grid pruning method      GridPruning ... 4 (adaptive)
Weight generation scheme         WeightScheme... Becke
Basis function cutoff            BFCut       ... 1.0000e-10
Integration weight cutoff        WCut        ... 1.0000e-14
Angular grids for H and He will be reduced by one unit
Partially contracted basis set               ... off
Rotationally invariant grid construction     ... off

Total number of grid points                  ...    32075
Total number of batches                      ...      511
Average number of points per batch           ...       62
Average number of grid points per atom       ...     1782
Final grid set up in    0.1 sec

-------------------------------------------------------------------------------
                    post-SCF DFT-NL dispersion correction                      
-------------------------------------------------------------------------------

SCF Energy:   -2959.687674352 
NL    Energy:  0.394539451 
SC+NL Energy: -2959.293134901 
NL done in:    0.3 sec
-------------------------------------------------------------------------------

----------------
TOTAL SCF ENERGY
----------------

Total Energy       :        -2959.29313490 Eh          -80526.46009 eV

Components:
Nuclear Repulsion  :          762.01072435 Eh           20735.36598 eV
Electronic Energy  :        -3721.30385925 Eh         -101261.82606 eV
One Electron Energy:        -5615.46273016 Eh         -152804.50932 eV
Two Electron Energy:         1894.15887091 Eh           51542.68326 eV
Max COSX asymmetry :            0.00000325 Eh               0.00009 eV

Virial components:
Potential Energy   :        -5914.50247514 Eh         -160941.79447 eV
Kinetic Energy     :         2955.20934023 Eh           80415.33438 eV
Virial Ratio       :            2.00138190


DFT components:
N(Alpha)           :       51.000052215371 electrons
N(Beta)            :       51.000052215371 electrons
N(Total)           :      102.000104430742 electrons
NL Energy, E(C,NL) :        0.394539451315 Eh       
E(XC)              :     -112.721105779207 Eh       
DFET-embed. en.    :        0.000000000000 Eh       

---------------
SCF CONVERGENCE
---------------

  Last Energy change         ...   -2.2346e-09  Tolerance :   1.0000e-06
  Last MAX-Density change    ...    2.6645e-15  Tolerance :   1.0000e-05
  Last RMS-Density change    ...    1.8433e-17  Tolerance :   1.0000e-06
  Last Orbital Gradient      ...    8.4305e-06  Tolerance :   5.0000e-05
  Last Orbital Rotation      ...    2.5692e-05  Tolerance :   5.0000e-05

             **** THE GBW FILE WAS UPDATED (arbr_03_r2scan3c.gbw) ****
             **** DENSITY arbr_03_r2scan3c.scfp WAS UPDATED ****
             **** ENERGY FILE WAS UPDATED (arbr_03_r2scan3c.en.tmp) ****
             **** THE GBW FILE WAS UPDATED (arbr_03_r2scan3c.gbw) ****
             **** DENSITY arbr_03_r2scan3c.scfp WAS UPDATED ****
----------------
ORBITAL ENERGIES
----------------

  NO   OCC          E(Eh)            E(eV) 
   0   2.0000    -483.508351    -13156.9311 
   1   2.0000     -62.813419     -1709.2400 
   2   2.0000     -56.499970     -1537.4423 
   3   2.0000     -56.497864     -1537.3850 
   4   2.0000     -56.497782     -1537.3828 
   5   2.0000     -10.411280      -283.3053 
   6   2.0000     -10.372007      -282.2366 
   7   2.0000     -10.369497      -282.1684 
   8   2.0000     -10.365494      -282.0594 
   9   2.0000     -10.364843      -282.0417 
  10   2.0000     -10.364563      -282.0341 
  11   2.0000     -10.359668      -281.9009 
  12   2.0000     -10.359515      -281.8967 
  13   2.0000     -10.358884      -281.8796 
  14   2.0000     -10.358301      -281.8637 
  15   2.0000      -8.896677      -242.0909 
  16   2.0000      -6.682602      -181.8428 
  17   2.0000      -6.671783      -181.5484 
  18   2.0000      -6.671565      -181.5425 
  19   2.0000      -2.763579       -75.2008 
  20   2.0000      -2.760447       -75.1156 
  21   2.0000      -2.760328       -75.1123 
  22   2.0000      -2.751584       -74.8744 
  23   2.0000      -2.751576       -74.8742 
  24   2.0000      -1.023603       -27.8536 
  25   2.0000      -0.977416       -26.5968 
  26   2.0000      -0.926455       -25.2101 
  27   2.0000      -0.908021       -24.7085 
  28   2.0000      -0.867739       -23.6124 
  29   2.0000      -0.844637       -22.9837 
  30   2.0000      -0.756065       -20.5736 
  31   2.0000      -0.732549       -19.9337 
  32   2.0000      -0.728935       -19.8353 
  33   2.0000      -0.641971       -17.4689 
  34   2.0000      -0.629707       -17.1352 
  35   2.0000      -0.608546       -16.5594 
  36   2.0000      -0.567847       -15.4519 
  37   2.0000      -0.561009       -15.2658 
  38   2.0000      -0.536515       -14.5993 
  39   2.0000      -0.533618       -14.5205 
  40   2.0000      -0.527722       -14.3600 
  41   2.0000      -0.508932       -13.8487 
  42   2.0000      -0.480785       -13.0828 
  43   2.0000      -0.468340       -12.7442 
  44   2.0000      -0.448479       -12.2037 
  45   2.0000      -0.441053       -12.0017 
  46   2.0000      -0.410962       -11.1829 
  47   2.0000      -0.390578       -10.6282 
  48   2.0000      -0.390496       -10.6259 
  49   2.0000      -0.336182        -9.1480 
  50   2.0000      -0.312456        -8.5024 
  51   0.0000       0.015682         0.4267 
  52   0.0000       0.042984         1.1697 
  53   0.0000       0.079699         2.1687 
  54   0.0000       0.084091         2.2882 
  55   0.0000       0.113927         3.1001 
  56   0.0000       0.118483         3.2241 
  57   0.0000       0.134107         3.6492 
  58   0.0000       0.149955         4.0805 
  59   0.0000       0.152172         4.1408 
  60   0.0000       0.166180         4.5220 
  61   0.0000       0.176996         4.8163 
  62   0.0000       0.182717         4.9720 
  63   0.0000       0.188692         5.1346 
  64   0.0000       0.215052         5.8519 
  65   0.0000       0.227669         6.1952 
  66   0.0000       0.227899         6.2014 
  67   0.0000       0.239709         6.5228 
  68   0.0000       0.254832         6.9343 
  69   0.0000       0.259348         7.0572 
  70   0.0000       0.271350         7.3838 
  71   0.0000       0.282258         7.6806 
  72   0.0000       0.289502         7.8777 
  73   0.0000       0.296876         8.0784 
  74   0.0000       0.305572         8.3150 
  75   0.0000       0.312317         8.4986 
  76   0.0000       0.317153         8.6302 
  77   0.0000       0.319539         8.6951 
  78   0.0000       0.332989         9.0611 
  79   0.0000       0.336364         9.1529 
  80   0.0000       0.345279         9.3955 
  81   0.0000       0.360686         9.8148 
  82   0.0000       0.367914        10.0114 
  83   0.0000       0.372050        10.1240 
  84   0.0000       0.373126        10.1533 
  85   0.0000       0.374421        10.1885 
  86   0.0000       0.385245        10.4830 
  87   0.0000       0.386733        10.5235 
  88   0.0000       0.395591        10.7646 
  89   0.0000       0.412549        11.2260 
  90   0.0000       0.420162        11.4332 
  91   0.0000       0.427436        11.6311 
  92   0.0000       0.433177        11.7874 
  93   0.0000       0.445647        12.1267 
  94   0.0000       0.449180        12.2228 
  95   0.0000       0.457419        12.4470 
  96   0.0000       0.471187        12.8216 
  97   0.0000       0.479303        13.0425 
  98   0.0000       0.481069        13.0906 
  99   0.0000       0.489464        13.3190 
 100   0.0000       0.489935        13.3318 
 101   0.0000       0.498220        13.5573 
 102   0.0000       0.512799        13.9540 
 103   0.0000       0.519737        14.1428 
 104   0.0000       0.528262        14.3747 
 105   0.0000       0.546850        14.8805 
 106   0.0000       0.549830        14.9616 
 107   0.0000       0.567101        15.4316 
 108   0.0000       0.577628        15.7181 
 109   0.0000       0.584085        15.8938 
 110   0.0000       0.587484        15.9862 
 111   0.0000       0.602519        16.3954 
 112   0.0000       0.615120        16.7383 
 113   0.0000       0.631021        17.1710 
 114   0.0000       0.639669        17.4063 
 115   0.0000       0.653374        17.7792 
 116   0.0000       0.663340        18.0504 
 117   0.0000       0.695533        18.9264 
 118   0.0000       0.699242        19.0274 
 119   0.0000       0.719103        19.5678 
 120   0.0000       0.730636        19.8816 
 121   0.0000       0.734045        19.9744 
 122   0.0000       0.747607        20.3434 
 123   0.0000       0.757694        20.6179 
 124   0.0000       0.761415        20.7192 
 125   0.0000       0.764709        20.8088 
 126   0.0000       0.775688        21.1075 
 127   0.0000       0.775791        21.1104 
 128   0.0000       0.788978        21.4692 
 129   0.0000       0.796627        21.6773 
 130   0.0000       0.811144        22.0724 
 131   0.0000       0.815836        22.2000 
 132   0.0000       0.833317        22.6757 
 133   0.0000       0.857497        23.3337 
 134   0.0000       0.873320        23.7643 
 135   0.0000       0.874203        23.7883 
 136   0.0000       0.896112        24.3844 
 137   0.0000       0.902111        24.5477 
 138   0.0000       0.908708        24.7272 
 139   0.0000       0.922933        25.1143 
 140   0.0000       0.925371        25.1806 
 141   0.0000       0.936208        25.4755 
 142   0.0000       0.963664        26.2226 
 143   0.0000       0.983876        26.7726 
 144   0.0000       0.991099        26.9692 
 145   0.0000       0.998362        27.1668 
 146   0.0000       1.011695        27.5296 
 147   0.0000       1.015635        27.6368 
 148   0.0000       1.045940        28.4615 
 149   0.0000       1.046541        28.4778 
 150   0.0000       1.050392        28.5826 
 151   0.0000       1.069086        29.0913 
 152   0.0000       1.081311        29.4240 
 153   0.0000       1.109127        30.1809 
 154   0.0000       1.112079        30.2612 
 155   0.0000       1.119374        30.4597 
 156   0.0000       1.138030        30.9674 
 157   0.0000       1.150764        31.3139 
 158   0.0000       1.177858        32.0512 
 159   0.0000       1.187574        32.3155 
 160   0.0000       1.222171        33.2570 
 161   0.0000       1.230910        33.4948 
 162   0.0000       1.240348        33.7516 
 163   0.0000       1.244985        33.8778 
 164   0.0000       1.263553        34.3830 
 165   0.0000       1.267089        34.4793 
 166   0.0000       1.268166        34.5085 
 167   0.0000       1.271793        34.6072 
 168   0.0000       1.283915        34.9371 
 169   0.0000       1.295074        35.2407 
 170   0.0000       1.310207        35.6525 
 171   0.0000       1.319015        35.8922 
 172   0.0000       1.339666        36.4542 
 173   0.0000       1.352580        36.8056 
 174   0.0000       1.365812        37.1656 
 175   0.0000       1.382204        37.6117 
 176   0.0000       1.386249        37.7218 
 177   0.0000       1.390439        37.8358 
 178   0.0000       1.399337        38.0779 
 179   0.0000       1.421731        38.6873 
 180   0.0000       1.423634        38.7391 
 181   0.0000       1.427915        38.8556 
 182   0.0000       1.437065        39.1045 
 183   0.0000       1.440171        39.1890 
 184   0.0000       1.454478        39.5783 
 185   0.0000       1.487318        40.4720 
 186   0.0000       1.492730        40.6193 
 187   0.0000       1.494575        40.6695 
 188   0.0000       1.511664        41.1345 
 189   0.0000       1.519249        41.3409 
 190   0.0000       1.520970        41.3877 
 191   0.0000       1.534006        41.7424 
 192   0.0000       1.538874        41.8749 
 193   0.0000       1.562646        42.5218 
 194   0.0000       1.570795        42.7435 
 195   0.0000       1.583482        43.0887 
 196   0.0000       1.593562        43.3630 
 197   0.0000       1.620770        44.1034 
 198   0.0000       1.635967        44.5169 
 199   0.0000       1.649950        44.8974 
 200   0.0000       1.654382        45.0180 
 201   0.0000       1.675692        45.5979 
 202   0.0000       1.693397        46.0797 
 203   0.0000       1.704907        46.3929 
 204   0.0000       1.712229        46.5921 
 205   0.0000       1.724911        46.9372 
 206   0.0000       1.724983        46.9392 
 207   0.0000       1.735641        47.2292 
 208   0.0000       1.738253        47.3003 
 209   0.0000       1.751113        47.6502 
 210   0.0000       1.753101        47.7043 
 211   0.0000       1.788057        48.6555 
 212   0.0000       1.795501        48.8581 
 213   0.0000       1.807471        49.1838 
 214   0.0000       1.810693        49.2715 
 215   0.0000       1.821473        49.5648 
 216   0.0000       1.826147        49.6920 
 217   0.0000       1.829626        49.7867 
 218   0.0000       1.845112        50.2081 
 219   0.0000       1.863047        50.6961 
 220   0.0000       1.899450        51.6867 
 221   0.0000       1.901017        51.7293 
 222   0.0000       1.916790        52.1585 
 223   0.0000       1.926592        52.4252 
 224   0.0000       1.950932        53.0876 
 225   0.0000       1.955538        53.2129 
 226   0.0000       2.005402        54.5698 
 227   0.0000       2.009655        54.6855 
 228   0.0000       2.043517        55.6069 
 229   0.0000       2.072222        56.3880 
 230   0.0000       2.095831        57.0305 
 231   0.0000       2.104750        57.2731 
 232   0.0000       2.128873        57.9296 
 233   0.0000       2.133621        58.0588 
 234   0.0000       2.140050        58.2337 
 235   0.0000       2.190212        59.5987 
 236   0.0000       2.210366        60.1471 
 237   0.0000       2.223549        60.5058 
 238   0.0000       2.236817        60.8669 
 239   0.0000       2.284210        62.1565 
 240   0.0000       2.333071        63.4861 
 241   0.0000       2.348027        63.8931 
 242   0.0000       2.360384        64.2293 
 243   0.0000       2.384924        64.8971 
 244   0.0000       2.386550        64.9413 
 245   0.0000       2.435440        66.2717 
 246   0.0000       2.442688        66.4689 
 247   0.0000       2.445568        66.5473 
 248   0.0000       2.464204        67.0544 
 249   0.0000       2.486451        67.6598 
 250   0.0000       2.510938        68.3261 
 251   0.0000       2.597167        70.6725 
 252   0.0000       2.606583        70.9287 
 253   0.0000       2.642555        71.9076 
 254   0.0000       2.664025        72.4918 
 255   0.0000       2.676411        72.8288 
 256   0.0000       2.712269        73.8046 
 257   0.0000       2.734123        74.3993 
 258   0.0000       2.753082        74.9152 
 259   0.0000       2.761729        75.1505 
 260   0.0000       2.769625        75.3653 
 261   0.0000       2.787424        75.8497 
 262   0.0000       2.788872        75.8891 
 263   0.0000       2.801942        76.2447 
 264   0.0000       2.815659        76.6180 
 265   0.0000       2.830241        77.0148 
 266   0.0000       2.847262        77.4779 
 267   0.0000       2.850200        77.5579 
 268   0.0000       2.860576        77.8402 
 269   0.0000       2.860661        77.8425 
 270   0.0000       2.891299        78.6762 
 271   0.0000       2.915285        79.3289 
 272   0.0000       2.929204        79.7077 
 273   0.0000       2.940334        80.0105 
 274   0.0000       2.958259        80.4983 
 275   0.0000       2.976247        80.9878 
 276   0.0000       2.987648        81.2980 
 277   0.0000       2.994464        81.4835 
 278   0.0000       3.002071        81.6905 
 279   0.0000       3.017694        82.1156 
 280   0.0000       3.024584        82.3031 
 281   0.0000       3.032598        82.5212 
 282   0.0000       3.042646        82.7946 
 283   0.0000       3.052361        83.0590 
 284   0.0000       3.065965        83.4291 
 285   0.0000       3.075773        83.6960 
 286   0.0000       3.078127        83.7601 
 287   0.0000       3.087850        84.0247 
 288   0.0000       3.096977        84.2730 
 289   0.0000       3.101201        84.3880 
 290   0.0000       3.123399        84.9920 
 291   0.0000       3.140747        85.4641 
 292   0.0000       3.149859        85.7120 
 293   0.0000       3.154957        85.8508 
 294   0.0000       3.178169        86.4824 
 295   0.0000       3.221405        87.6589 
 296   0.0000       3.222172        87.6798 
 297   0.0000       3.225366        87.7667 
 298   0.0000       3.227788        87.8326 
 299   0.0000       3.243366        88.2565 
 300   0.0000       3.251066        88.4660 
 301   0.0000       3.252666        88.5095 
 302   0.0000       3.268112        88.9298 
 303   0.0000       3.270623        88.9982 
 304   0.0000       3.291802        89.5745 
 305   0.0000       3.329955        90.6127 
 306   0.0000       3.353441        91.2518 
 307   0.0000       3.356436        91.3333 
 308   0.0000       3.364332        91.5481 
 309   0.0000       3.371308        91.7380 
 310   0.0000       3.392686        92.3197 
 311   0.0000       3.396344        92.4192 
 312   0.0000       3.399279        92.4991 
 313   0.0000       3.426387        93.2367 
 314   0.0000       3.429983        93.3346 
 315   0.0000       3.448192        93.8301 
 316   0.0000       3.455770        94.0363 
 317   0.0000       3.465290        94.2953 
 318   0.0000       3.469249        94.4031 
 319   0.0000       3.482638        94.7674 
 320   0.0000       3.492400        95.0330 
 321   0.0000       3.501316        95.2756 
 322   0.0000       3.509096        95.4874 
 323   0.0000       3.527923        95.9997 
 324   0.0000       3.539249        96.3078 
 325   0.0000       3.547480        96.5318 
 326   0.0000       3.556222        96.7697 
 327   0.0000       3.570280        97.1523 
 328   0.0000       3.584400        97.5365 
 329   0.0000       3.607964        98.1777 
 330   0.0000       3.626434        98.6803 
 331   0.0000       3.632046        98.8330 
 332   0.0000       3.652169        99.3806 
 333   0.0000       3.667953        99.8101 
 334   0.0000       3.677215       100.0621 
 335   0.0000       3.681705       100.1843 
 336   0.0000       3.700591       100.6982 
 337   0.0000       3.760491       102.3282 
 338   0.0000       3.768124       102.5359 
 339   0.0000       3.794675       103.2584 
 340   0.0000       3.801290       103.4384 
 341   0.0000       3.808694       103.6398 
 342   0.0000       3.815004       103.8115 
 343   0.0000       3.828223       104.1712 
 344   0.0000       3.832573       104.2896 
 345   0.0000       3.860254       105.0429 
 346   0.0000       3.865018       105.1725 
 347   0.0000       3.877103       105.5013 
 348   0.0000       3.877943       105.5242 
 349   0.0000       3.896503       106.0292 
 350   0.0000       3.928773       106.9074 
 351   0.0000       3.944942       107.3473 
 352   0.0000       3.956425       107.6598 
 353   0.0000       3.959876       107.7537 
 354   0.0000       3.977742       108.2399 
 355   0.0000       3.991045       108.6019 
 356   0.0000       4.016500       109.2945 
 357   0.0000       4.027483       109.5934 
 358   0.0000       4.048293       110.1597 
 359   0.0000       4.057678       110.4150 
 360   0.0000       4.080844       111.0454 
 361   0.0000       4.093906       111.4009 
 362   0.0000       4.116104       112.0049 
 363   0.0000       4.118171       112.0611 
 364   0.0000       4.131317       112.4189 
 365   0.0000       4.151252       112.9613 
 366   0.0000       4.169958       113.4703 
 367   0.0000       4.173267       113.5604 
 368   0.0000       4.201644       114.3326 
 369   0.0000       4.203182       114.3744 
 370   0.0000       4.210119       114.5632 
 371   0.0000       4.218044       114.7788 
 372   0.0000       4.232839       115.1814 
 373   0.0000       4.251438       115.6875 
 374   0.0000       4.259561       115.9086 
 375   0.0000       4.272407       116.2581 
 376   0.0000       4.274543       116.3162 
 377   0.0000       4.275118       116.3319 
 378   0.0000       4.313136       117.3664 
 379   0.0000       4.331972       117.8789 
 380   0.0000       4.334149       117.9382 
 381   0.0000       4.355197       118.5109 
 382   0.0000       4.364636       118.7678 
 383   0.0000       4.376461       119.0896 
 384   0.0000       4.380042       119.1870 
 385   0.0000       4.409441       119.9870 
 386   0.0000       4.421282       120.3092 
 387   0.0000       4.447298       121.0171 
 388   0.0000       4.461363       121.3998 
 389   0.0000       4.470802       121.6567 
 390   0.0000       4.490628       122.1962 
 391   0.0000       4.524716       123.1238 
 392   0.0000       4.536761       123.4516 
 393   0.0000       4.567493       124.2878 
 394   0.0000       4.588968       124.8722 
 395   0.0000       4.605059       125.3100 
 396   0.0000       4.613415       125.5374 
 397   0.0000       4.649171       126.5104 
 398   0.0000       4.671685       127.1230 
 399   0.0000       4.692314       127.6844 
 400   0.0000       4.694175       127.7350 
 401   0.0000       4.735434       128.8577 
 402   0.0000       4.735764       128.8667 
 403   0.0000       4.766595       129.7057 
 404   0.0000       4.796822       130.5282 
 405   0.0000       4.808617       130.8491 
 406   0.0000       4.842798       131.7792 
 407   0.0000       4.866267       132.4178 
 408   0.0000       4.882633       132.8632 
 409   0.0000       4.918905       133.8502 
 410   0.0000       4.927006       134.0707 
 411   0.0000       4.949286       134.6769 
 412   0.0000       4.956223       134.8657 
 413   0.0000       4.979548       135.5004 
 414   0.0000       4.984700       135.6406 
 415   0.0000       5.030880       136.8972 
 416   0.0000       5.088550       138.4665 
 417   0.0000       5.117306       139.2490 
 418   0.0000       5.163901       140.5169 
 419   0.0000       5.191407       141.2654 
 420   0.0000       5.206039       141.6635 
 421   0.0000       5.220427       142.0550 
 422   0.0000       5.252832       142.9368 
 423   0.0000       5.290242       143.9548 
 424   0.0000       5.310636       144.5098 
 425   0.0000       5.343704       145.4096 
 426   0.0000       5.348926       145.5517 
 427   0.0000       5.383176       146.4837 
 428   0.0000       5.409425       147.1979 
 429   0.0000       5.437954       147.9742 
 430   0.0000       5.450575       148.3177 
 431   0.0000       5.555508       151.1731 
 432   0.0000       5.588532       152.0717 
 433   0.0000       5.644013       153.5814 
 434   0.0000       5.650282       153.7520 
 435   0.0000       5.663128       154.1015 
 436   0.0000       5.743699       156.2940 
 437   0.0000       5.859132       159.4351 
 438   0.0000       5.896038       160.4394 
 439   0.0000       5.944651       161.7622 
 440   0.0000       6.095411       165.8646 
 441   0.0000       6.133038       166.8885 
 442   0.0000       6.206470       168.8866 
 443   0.0000       6.364554       173.1883 
 444   0.0000       6.815562       185.4609 
 445   0.0000       7.907716       215.1799 
 446   0.0000      22.609806       615.2441 
 447   0.0000      23.240433       632.4043 
 448   0.0000      23.385451       636.3505 
 449   0.0000      23.452121       638.1647 
 450   0.0000      23.482759       638.9984 
 451   0.0000      23.522778       640.0873 
 452   0.0000      23.660280       643.8289 
 453   0.0000      23.691915       644.6898 
 454   0.0000      24.034407       654.0095 
 455   0.0000      24.544304       667.8845 

                    ********************************
                    * MULLIKEN POPULATION ANALYSIS *
                    ********************************

-----------------------
MULLIKEN ATOMIC CHARGES
-----------------------
   0 Br:   -0.046365
   1 C :   -0.034407
   2 C :   -0.110074
   3 C :   -0.098829
   4 C :   -0.015023
   5 C :   -0.099766
   6 C :   -0.121756
   7 C :   -0.121339
   8 C :   -0.104094
   9 C :   -0.021276
  10 C :   -0.070804
  11 H :    0.128174
  12 H :    0.117419
  13 H :    0.114997
  14 H :    0.123036
  15 H :    0.123406
  16 H :    0.115641
  17 H :    0.121062
Sum of atomic charges:   -0.0000000

--------------------------------
MULLIKEN REDUCED ORBITAL CHARGES
--------------------------------
  0 Brs       :     7.873192  s :     7.873192
      pz      :     5.944998  p :    17.116494
      px      :     5.233580
      py      :     5.937916
      dz2     :     2.006431  d :    10.049404
      dxz     :     2.015493
      dyz     :     2.000835
      dx2y2   :     2.017548
      dxy     :     2.009097
      f0      :     0.000787  f :     0.007275
      f+1     :     0.001396
      f-1     :     0.000157
      f+2     :     0.000982
      f-2     :     0.000198
      f+3     :     0.002062
      f-3     :     0.001692
  1 C s       :     3.274454  s :     3.274454
      pz      :     0.985365  p :     2.592052
      px      :     0.770510
      py      :     0.836177
      dz2     :     0.007326  d :     0.158403
      dxz     :     0.023633
      dyz     :     0.027148
      dx2y2   :     0.054382
      dxy     :     0.045914
      f0      :     0.001931  f :     0.009497
      f+1     :     0.000882
      f-1     :     0.000659
      f+2     :     0.000728
      f-2     :     0.000998
      f+3     :     0.001948
      f-3     :     0.002351
  2 C s       :     3.167301  s :     3.167301
      pz      :     0.969509  p :     2.847010
      px      :     0.976075
      py      :     0.901426
      dz2     :     0.004545  d :     0.088271
      dxz     :     0.014780
      dyz     :     0.015471
      dx2y2   :     0.018646
      dxy     :     0.034829
      f0      :     0.001516  f :     0.007492
      f+1     :     0.000575
      f-1     :     0.000643
      f+2     :     0.001123
      f-2     :     0.000253
      f+3     :     0.001530
      f-3     :     0.001853
  3 C s       :     3.164461  s :     3.164461
      pz      :     0.953676  p :     2.842979
      px      :     0.893047
      py      :     0.996255
      dz2     :     0.003899  d :     0.084123
      dxz     :     0.024195
      dyz     :     0.006760
      dx2y2   :     0.022122
      dxy     :     0.027147
      f0      :     0.001440  f :     0.007266
      f+1     :     0.000576
      f-1     :     0.000544
      f+2     :     0.000513
      f-2     :     0.000758
      f+3     :     0.001654
      f-3     :     0.001782
  4 C s       :     3.246795  s :     3.246795
      pz      :     0.930537  p :     2.640325
      px      :     0.847163
      py      :     0.862625
      dz2     :     0.004845  d :     0.117746
      dxz     :     0.024984
      dyz     :     0.020276
      dx2y2   :     0.035278
      dxy     :     0.032363
      f0      :     0.001857  f :     0.010157
      f+1     :     0.000759
      f-1     :     0.000692
      f+2     :     0.000963
      f-2     :     0.000850
      f+3     :     0.002347
      f-3     :     0.002690
  5 C s       :     3.161150  s :     3.161150
      pz      :     0.962087  p :     2.847163
      px      :     0.874153
      py      :     1.010923
      dz2     :     0.003683  d :     0.084180
      dxz     :     0.022368
      dyz     :     0.007866
      dx2y2   :     0.030288
      dxy     :     0.019975
      f0      :     0.001426  f :     0.007274
      f+1     :     0.000596
      f-1     :     0.000533
      f+2     :     0.000529
      f-2     :     0.000732
      f+3     :     0.001494
      f-3     :     0.001964
  6 C s       :     3.208013  s :     3.208013
      pz      :     0.957113  p :     2.822149
      px      :     0.983786
      py      :     0.881250
      dz2     :     0.004205  d :     0.084307
      dxz     :     0.007094
      dyz     :     0.022016
      dx2y2   :     0.030345
      dxy     :     0.020648
      f0      :     0.001452  f :     0.007287
      f+1     :     0.000535
      f-1     :     0.000610
      f+2     :     0.000373
      f-2     :     0.000957
      f+3     :     0.001528
      f-3     :     0.001831
  7 C s       :     3.209706  s :     3.209706
      pz      :     0.952715  p :     2.819654
      px      :     0.940525
      py      :     0.926414
      dz2     :     0.004222  d :     0.084686
      dxz     :     0.015416
      dyz     :     0.014016
      dx2y2   :     0.020434
      dxy     :     0.030599
      f0      :     0.001451  f :     0.007293
      f+1     :     0.000542
      f-1     :     0.000601
      f+2     :     0.001067
      f-2     :     0.000273
      f+3     :     0.001576
      f-3     :     0.001783
  8 C s       :     3.164717  s :     3.164717
      pz      :     0.965585  p :     2.848322
      px      :     0.894106
      py      :     0.988631
      dz2     :     0.003738  d :     0.083781
      dxz     :     0.023290
      dyz     :     0.006668
      dx2y2   :     0.023462
      dxy     :     0.026623
      f0      :     0.001431  f :     0.007274
      f+1     :     0.000587
      f-1     :     0.000546
      f+2     :     0.000491
      f-2     :     0.000763
      f+3     :     0.001697
      f-3     :     0.001759
  9 C s       :     3.261078  s :     3.261078
      pz      :     0.923801  p :     2.632883
      px      :     0.846763
      py      :     0.862319
      dz2     :     0.005090  d :     0.117172
      dxz     :     0.025247
      dyz     :     0.021169
      dx2y2   :     0.035231
      dxy     :     0.030435
      f0      :     0.001865  f :     0.010143
      f+1     :     0.000756
      f-1     :     0.000695
      f+2     :     0.000960
      f-2     :     0.000893
      f+3     :     0.002347
      f-3     :     0.002628
 10 C s       :     3.095787  s :     3.095787
      pz      :     0.970806  p :     2.880266
      px      :     0.911256
      py      :     0.998204
      dz2     :     0.003872  d :     0.087247
      dxz     :     0.022116
      dyz     :     0.009544
      dx2y2   :     0.026273
      dxy     :     0.025442
      f0      :     0.001494  f :     0.007504
      f+1     :     0.000648
      f-1     :     0.000551
      f+2     :     0.000528
      f-2     :     0.000782
      f+3     :     0.001594
      f-3     :     0.001907
 11 H s       :     0.835989  s :     0.835989
      pz      :     0.010886  p :     0.033385
      px      :     0.009963
      py      :     0.012536
      dz2     :     0.000139  d :     0.002452
      dxz     :     0.000404
      dyz     :     0.000362
      dx2y2   :     0.001036
      dxy     :     0.000511
 12 H s       :     0.847619  s :     0.847619
      pz      :     0.010721  p :     0.032563
      px      :     0.007535
      py      :     0.014308
      dz2     :     0.000145  d :     0.002399
      dxz     :     0.000097
      dyz     :     0.000662
      dx2y2   :     0.000691
      dxy     :     0.000805
 13 H s       :     0.850011  s :     0.850011
      pz      :     0.010745  p :     0.032603
      px      :     0.009327
      py      :     0.012531
      dz2     :     0.000141  d :     0.002389
      dxz     :     0.000061
      dyz     :     0.000696
      dx2y2   :     0.000604
      dxy     :     0.000887
 14 H s       :     0.844132  s :     0.844132
      pz      :     0.010921  p :     0.030520
      px      :     0.011594
      py      :     0.008005
      dz2     :     0.000131  d :     0.002312
      dxz     :     0.000718
      dyz     :     0.000037
      dx2y2   :     0.000557
      dxy     :     0.000869
 15 H s       :     0.843825  s :     0.843825
      pz      :     0.010843  p :     0.030458
      px      :     0.009348
      py      :     0.010266
      dz2     :     0.000131  d :     0.002311
      dxz     :     0.000385
      dyz     :     0.000366
      dx2y2   :     0.000959
      dxy     :     0.000470
 16 H s       :     0.849287  s :     0.849287
      pz      :     0.010786  p :     0.032682
      px      :     0.007644
      py      :     0.014253
      dz2     :     0.000141  d :     0.002390
      dxz     :     0.000097
      dyz     :     0.000663
      dx2y2   :     0.000696
      dxy     :     0.000794
 17 H s       :     0.841182  s :     0.841182
      pz      :     0.010831  p :     0.035228
      px      :     0.009995
      py      :     0.014403
      dz2     :     0.000148  d :     0.002529
      dxz     :     0.000067
      dyz     :     0.000714
      dx2y2   :     0.000682
      dxy     :     0.000918


                     *******************************
                     * LOEWDIN POPULATION ANALYSIS *
                     *******************************

----------------------
LOEWDIN ATOMIC CHARGES
----------------------
   0 Br:    0.347688
   1 C :   -0.346200
   2 C :   -0.036479
   3 C :    0.016197
   4 C :   -0.055638
   5 C :    0.009720
   6 C :   -0.012116
   7 C :   -0.010468
   8 C :    0.009864
   9 C :   -0.052822
  10 C :   -0.015870
  11 H :    0.020371
  12 H :    0.023620
  13 H :    0.021180
  14 H :    0.017752
  15 H :    0.018253
  16 H :    0.021358
  17 H :    0.023589

-------------------------------
LOEWDIN REDUCED ORBITAL CHARGES
-------------------------------
  0 Brs       :     7.571018  s :     7.571018
      pz      :     5.878264  p :    16.948846
      px      :     5.224205
      py      :     5.846377
      dz2     :     2.014945  d :    10.117487
      dxz     :     2.033753
      dyz     :     2.001642
      dx2y2   :     2.039980
      dxy     :     2.027167
      f0      :     0.001531  f :     0.014961
      f+1     :     0.002620
      f-1     :     0.000320
      f+2     :     0.002028
      f-2     :     0.000381
      f+3     :     0.004233
      f-3     :     0.003848
  1 C s       :     2.776920  s :     2.776920
      pz      :     0.909642  p :     2.962418
      px      :     0.972163
      py      :     1.080613
      dz2     :     0.036980  d :     0.552196
      dxz     :     0.072683
      dyz     :     0.082634
      dx2y2   :     0.201470
      dxy     :     0.158428
      f0      :     0.003821  f :     0.054667
      f+1     :     0.004221
      f-1     :     0.004307
      f+2     :     0.004813
      f-2     :     0.007158
      f+3     :     0.013810
      f-3     :     0.016537
  2 C s       :     2.721650  s :     2.721650
      pz      :     0.855004  p :     2.875236
      px      :     1.030768
      py      :     0.989464
      dz2     :     0.026373  d :     0.395497
      dxz     :     0.047435
      dyz     :     0.048243
      dx2y2   :     0.110336
      dxy     :     0.163111
      f0      :     0.002581  f :     0.044096
      f+1     :     0.003793
      f-1     :     0.003633
      f+2     :     0.008021
      f-2     :     0.002043
      f+3     :     0.011407
      f-3     :     0.012617
  3 C s       :     2.713072  s :     2.713072
      pz      :     0.838268  p :     2.834605
      px      :     1.018377
      py      :     0.977960
      dz2     :     0.025385  d :     0.393069
      dxz     :     0.077018
      dyz     :     0.019231
      dx2y2   :     0.141362
      dxy     :     0.130073
      f0      :     0.002460  f :     0.043057
      f+1     :     0.003968
      f-1     :     0.003123
      f+2     :     0.003755
      f-2     :     0.005542
      f+3     :     0.011653
      f-3     :     0.012557
  4 C s       :     2.683840  s :     2.683840
      pz      :     0.833110  p :     2.810878
      px      :     0.986676
      py      :     0.991091
      dz2     :     0.032571  d :     0.503703
      dxz     :     0.074752
      dyz     :     0.065841
      dx2y2   :     0.164540
      dxy     :     0.165999
      f0      :     0.003785  f :     0.057217
      f+1     :     0.004156
      f-1     :     0.004033
      f+2     :     0.006838
      f-2     :     0.006325
      f+3     :     0.014661
      f-3     :     0.017418
  5 C s       :     2.713158  s :     2.713158
      pz      :     0.844597  p :     2.842796
      px      :     1.001520
      py      :     0.996678
      dz2     :     0.025341  d :     0.391412
      dxz     :     0.072125
      dyz     :     0.021509
      dx2y2   :     0.153566
      dxy     :     0.118871
      f0      :     0.002428  f :     0.042915
      f+1     :     0.003816
      f-1     :     0.003257
      f+2     :     0.003630
      f-2     :     0.005481
      f+3     :     0.011001
      f-3     :     0.013301
  6 C s       :     2.719648  s :     2.719648
      pz      :     0.846873  p :     2.858073
      px      :     0.993122
      py      :     1.018078
      dz2     :     0.024718  d :     0.391250
      dxz     :     0.018587
      dyz     :     0.074451
      dx2y2   :     0.158024
      dxy     :     0.115470
      f0      :     0.002392  f :     0.043144
      f+1     :     0.003223
      f-1     :     0.003806
      f+2     :     0.002718
      f-2     :     0.006731
      f+3     :     0.011314
      f-3     :     0.012960
  7 C s       :     2.719798  s :     2.719798
      pz      :     0.843497  p :     2.855293
      px      :     1.018163
      py      :     0.993634
      dz2     :     0.024724  d :     0.392194
      dxz     :     0.048415
      dyz     :     0.045593
      dx2y2   :     0.108029
      dxy     :     0.165434
      f0      :     0.002388  f :     0.043182
      f+1     :     0.003645
      f-1     :     0.003375
      f+2     :     0.007556
      f-2     :     0.001958
      f+3     :     0.011326
      f-3     :     0.012934
  8 C s       :     2.713051  s :     2.713051
      pz      :     0.847439  p :     2.844276
      px      :     1.020091
      py      :     0.976746
      dz2     :     0.025364  d :     0.389979
      dxz     :     0.073143
      dyz     :     0.019135
      dx2y2   :     0.139853
      dxy     :     0.132484
      f0      :     0.002435  f :     0.042830
      f+1     :     0.003945
      f-1     :     0.003141
      f+2     :     0.003595
      f-2     :     0.005425
      f+3     :     0.011734
      f-3     :     0.012556
  9 C s       :     2.684124  s :     2.684124
      pz      :     0.828719  p :     2.804117
      px      :     0.980767
      py      :     0.994631
      dz2     :     0.032606  d :     0.507276
      dxz     :     0.077117
      dyz     :     0.067812
      dx2y2   :     0.165388
      dxy     :     0.164352
      f0      :     0.003782  f :     0.057305
      f+1     :     0.004157
      f-1     :     0.004017
      f+2     :     0.006943
      f-2     :     0.006523
      f+3     :     0.014568
      f-3     :     0.017314
 10 C s       :     2.715230  s :     2.715230
      pz      :     0.853188  p :     2.863434
      px      :     1.013246
      py      :     0.997000
      dz2     :     0.027007  d :     0.393383
      dxz     :     0.072558
      dyz     :     0.024199
      dx2y2   :     0.143624
      dxy     :     0.125995
      f0      :     0.002664  f :     0.043823
      f+1     :     0.004070
      f-1     :     0.003408
      f+2     :     0.003613
      f-2     :     0.006189
      f+3     :     0.010824
      f-3     :     0.013054
 11 H s       :     0.803210  s :     0.803210
      pz      :     0.041075  p :     0.146742
      px      :     0.052411
      py      :     0.053256
      dz2     :     0.002734  d :     0.029677
      dxz     :     0.004411
      dyz     :     0.004284
      dx2y2   :     0.009494
      dxy     :     0.008754
 12 H s       :     0.801679  s :     0.801679
      pz      :     0.040399  p :     0.145369
      px      :     0.036074
      py      :     0.068896
      dz2     :     0.002700  d :     0.029332
      dxz     :     0.000858
      dyz     :     0.007595
      dx2y2   :     0.009093
      dxy     :     0.009087
 13 H s       :     0.803781  s :     0.803781
      pz      :     0.040964  p :     0.145724
      px      :     0.036120
      py      :     0.068639
      dz2     :     0.002690  d :     0.029315
      dxz     :     0.000649
      dyz     :     0.007853
      dx2y2   :     0.008703
      dxy     :     0.009421
 14 H s       :     0.806479  s :     0.806479
      pz      :     0.040821  p :     0.146536
      px      :     0.069518
      py      :     0.036197
      dz2     :     0.002692  d :     0.029234
      dxz     :     0.008056
      dyz     :     0.000384
      dx2y2   :     0.008692
      dxy     :     0.009409
 15 H s       :     0.806228  s :     0.806228
      pz      :     0.040494  p :     0.146306
      px      :     0.051411
      py      :     0.054401
      dz2     :     0.002692  d :     0.029213
      dxz     :     0.004113
      dyz     :     0.004284
      dx2y2   :     0.009545
      dxy     :     0.008579
 16 H s       :     0.803448  s :     0.803448
      pz      :     0.041153  p :     0.145843
      px      :     0.036188
      py      :     0.068502
      dz2     :     0.002694  d :     0.029351
      dxz     :     0.000883
      dyz     :     0.007665
      dx2y2   :     0.009056
      dxy     :     0.009053
 17 H s       :     0.800469  s :     0.800469
      pz      :     0.041229  p :     0.146117
      px      :     0.035593
      py      :     0.069295
      dz2     :     0.002727  d :     0.029825
      dxz     :     0.000752
      dyz     :     0.008066
      dx2y2   :     0.008967
      dxy     :     0.009314


                      *****************************
                      * MAYER POPULATION ANALYSIS *
                      *****************************

  NA   - Mulliken gross atomic population
  ZA   - Total nuclear charge
  QA   - Mulliken gross atomic charge
  VA   - Mayer's total valence
  BVA  - Mayer's bonded valence
  FA   - Mayer's free valence

  ATOM       NA         ZA         QA         VA         BVA        FA
  0 Br    35.0464    35.0000    -0.0464     1.2105     1.2105     0.0000
  1 C      6.0344     6.0000    -0.0344     4.0166     4.0166    -0.0000
  2 C      6.1101     6.0000    -0.1101     3.9285     3.9285    -0.0000
  3 C      6.0988     6.0000    -0.0988     3.9556     3.9556    -0.0000
  4 C      6.0150     6.0000    -0.0150     3.8822     3.8822    -0.0000
  5 C      6.0998     6.0000    -0.0998     3.9399     3.9399    -0.0000
  6 C      6.1218     6.0000    -0.1218     3.9571     3.9571    -0.0000
  7 C      6.1213     6.0000    -0.1213     3.9559     3.9559     0.0000
  8 C      6.1041     6.0000    -0.1041     3.9364     3.9364    -0.0000
  9 C      6.0213     6.0000    -0.0213     3.8955     3.8955    -0.0000
 10 C      6.0708     6.0000    -0.0708     3.8801     3.8801    -0.0000
 11 H      0.8718     1.0000     0.1282     1.0001     1.0001    -0.0000
 12 H      0.8826     1.0000     0.1174     1.0060     1.0060    -0.0000
 13 H      0.8850     1.0000     0.1150     1.0068     1.0068     0.0000
 14 H      0.8770     1.0000     0.1230     0.9972     0.9972    -0.0000
 15 H      0.8766     1.0000     0.1234     0.9970     0.9970     0.0000
 16 H      0.8844     1.0000     0.1156     1.0076     1.0076    -0.0000
 17 H      0.8789     1.0000     0.1211     1.0120     1.0120    -0.0000

  Mayer bond orders larger than 0.100000
B(  0-Br,  1-C ) :   1.0966 B(  1-C ,  2-C ) :   1.2298 B(  1-C , 10-C ) :   1.5607 
B(  2-C ,  3-C ) :   1.6108 B(  2-C , 11-H ) :   0.9601 B(  3-C ,  4-C ) :   1.2415 
B(  3-C , 12-H ) :   0.9390 B(  4-C ,  5-C ) :   1.2433 B(  4-C ,  9-C ) :   1.2798 
B(  5-C ,  6-C ) :   1.6062 B(  5-C , 13-H ) :   0.9441 B(  6-C ,  7-C ) :   1.2754 
B(  6-C , 14-H ) :   0.9686 B(  7-C ,  8-C ) :   1.6052 B(  7-C , 15-H ) :   0.9690 
B(  8-C ,  9-C ) :   1.2392 B(  8-C , 16-H ) :   0.9452 B(  9-C , 10-C ) :   1.2332 
B( 10-C , 17-H ) :   0.9243 


------------------
HIRSHFELD ANALYSIS
------------------

Total integrated alpha density =     51.000052216
Total integrated beta density  =     51.000052216

  ATOM     CHARGE      SPIN    
   0 Br  -0.071335    0.000000
   1 C    0.019685    0.000000
   2 C   -0.037014    0.000000
   3 C   -0.026188    0.000000
   4 C    0.001034    0.000000
   5 C   -0.032050    0.000000
   6 C   -0.034160    0.000000
   7 C   -0.032434    0.000000
   8 C   -0.032572    0.000000
   9 C    0.005086    0.000000
  10 C   -0.035972    0.000000
  11 H    0.041853    0.000000
  12 H    0.040521    0.000000
  13 H    0.037287    0.000000
  14 H    0.037948    0.000000
  15 H    0.038365    0.000000
  16 H    0.037934    0.000000
  17 H    0.041908    0.000000

  TOTAL  -0.000104    0.000000

-------
TIMINGS
-------

Total SCF time: 0 days 0 hours 0 min 14 sec 

Total time                  ....      14.570 sec
Sum of individual times     ....      13.839 sec  ( 95.0%)

Fock matrix formation       ....      12.335 sec  ( 84.7%)
  Split-RI-J                ....       0.532 sec  (  4.3% of F)
  Chain of spheres X        ....      11.070 sec  ( 89.7% of F)
  XC integration            ....       0.971 sec  (  7.9% of F)
    Basis function eval.    ....       0.094 sec  (  9.7% of XC)
    Density eval.           ....       0.272 sec  ( 28.0% of XC)
    XC-Functional eval.     ....       0.027 sec  (  2.7% of XC)
    XC-Potential eval.      ....       0.324 sec  ( 33.4% of XC)
Diagonalization             ....       0.038 sec  (  0.3%)
Density matrix formation    ....       0.008 sec  (  0.1%)
Population analysis         ....       0.498 sec  (  3.4%)
Initial guess               ....       0.056 sec  (  0.4%)
Orbital Transformation      ....       0.000 sec  (  0.0%)
Orbital Orthonormalization  ....       0.043 sec  (  0.3%)
DIIS solution               ....       0.016 sec  (  0.1%)
SOSCF solution              ....       0.037 sec  (  0.3%)
Grid generation             ....       0.850 sec  (  5.8%)

Maximum memory used throughout the entire SCF-calculation: 95.6 MB

-------------------------   --------------------
FINAL SINGLE POINT ENERGY     -2959.293134900625
-------------------------   --------------------


                            ***************************************
                            *     ORCA property calculations      *
                            ***************************************

                                    ---------------------
                                    Active property flags
                                    ---------------------
   (+) Dipole Moment


------------------------------------------------------------------------------
                       ORCA ELECTRIC PROPERTIES CALCULATION
------------------------------------------------------------------------------

Dipole Moment Calculation                       ... on
Quadrupole Moment Calculation                   ... off
Polarizability Calculation                      ... off
GBWName                                         ... arbr_03_r2scan3c.gbw
Electron density                                ... arbr_03_r2scan3c.scfp
The origin for moment calculation is the CENTER OF MASS  = (-0.384802, -0.031756 -0.000000)

-------------
DIPOLE MOMENT
-------------
                                X             Y             Z
Electronic contribution:    -38.47996      -3.10954       0.00001
Nuclear contribution   :     39.24986       3.23921      -0.00002
                        -----------------------------------------
Total Dipole Moment    :      0.76990       0.12967      -0.00001
                        -----------------------------------------
Magnitude (a.u.)       :      0.78075
Magnitude (Debye)      :      1.98450



--------------------
Rotational spectrum 
--------------------
 
Rotational constants in cm-1:     0.089540     0.012818     0.011213 
Rotational constants in MHz :  2684.355040   384.264586   336.145467 

 Dipole components along the rotational axes: 
x,y,z [a.u.] :    -0.771097     0.122366    -0.000006 
x,y,z [Debye]:    -1.959973     0.311029    -0.000015 

 

Timings for individual modules:

Sum of individual times         ...       15.393 sec (=   0.257 min)
GTO integral calculation        ...        0.589 sec (=   0.010 min)   3.8 %
SCF iterations                  ...       14.804 sec (=   0.247 min)  96.2 %
                             ****ORCA TERMINATED NORMALLY****
TOTAL RUN TIME: 0 days 0 hours 0 minutes 15 seconds 845 msec
