
                                 *****************
                                 * O   R   C   A *
                                 *****************

                                            #,                                       
                                            ###                                      
                                            ####                                     
                                            #####                                    
                                            ######                                   
                                           ########,                                 
                                     ,,################,,,,,                         
                               ,,#################################,,                 
                          ,,##########################################,,             
                       ,#########################################, ''#####,          
                    ,#############################################,,   '####,        
                  ,##################################################,,,,####,       
                ,###########''''           ''''###############################       
              ,#####''   ,,,,##########,,,,          '''####'''          '####       
            ,##' ,,,,###########################,,,                        '##       
           ' ,,###''''                  '''############,,,                           
         ,,##''                                '''############,,,,        ,,,,,,###''
      ,#''                                            '''#######################'''  
     '                                                          ''''####''''         
             ,#######,   #######,   ,#######,      ##                                
            ,#'     '#,  ##    ##  ,#'     '#,    #''#        ######   ,####,        
            ##       ##  ##   ,#'  ##            #'  '#       #        #'  '#        
            ##       ##  #######   ##           ,######,      #####,   #    #        
            '#,     ,#'  ##    ##  '#,     ,#' ,#      #,         ##   #,  ,#        
             '#######'   ##     ##  '#######'  #'      '#     #####' # '####'        



                  #######################################################
                  #                        -***-                        #
                  #          Department of theory and spectroscopy      #
                  #    Directorship and core code : Frank Neese         #
                  #        Max Planck Institute fuer Kohlenforschung    #
                  #                Kaiser Wilhelm Platz 1               #
                  #                 D-45470 Muelheim/Ruhr               #
                  #                      Germany                        #
                  #                                                     #
                  #                  All rights reserved                #
                  #                        -***-                        #
                  #######################################################


                         Program Version 5.0.4 -  RELEASE  -


 With contributions from (in alphabetic order):
   Daniel Aravena         : Magnetic Suceptibility
   Michael Atanasov       : Ab Initio Ligand Field Theory (pilot matlab implementation)
   Alexander A. Auer      : GIAO ZORA, VPT2 properties, NMR spectrum
   Ute Becker             : Parallelization
   Giovanni Bistoni       : ED, misc. LED, open-shell LED, HFLD
   Martin Brehm           : Molecular dynamics
   Dmytro Bykov           : SCF Hessian
   Vijay G. Chilkuri      : MRCI spin determinant printing, contributions to CSF-ICE
   Dipayan Datta          : RHF DLPNO-CCSD density
   Achintya Kumar Dutta   : EOM-CC, STEOM-CC
   Dmitry Ganyushin       : Spin-Orbit,Spin-Spin,Magnetic field MRCI
   Miquel Garcia          : C-PCM and meta-GGA Hessian, CC/C-PCM, Gaussian charge scheme
   Yang Guo               : DLPNO-NEVPT2, F12-NEVPT2, CIM, IAO-localization
   Andreas Hansen         : Spin unrestricted coupled pair/coupled cluster methods
   Benjamin Helmich-Paris : MC-RPA, TRAH-SCF, COSX integrals
   Lee Huntington         : MR-EOM, pCC
   Robert Izsak           : Overlap fitted RIJCOSX, COSX-SCS-MP3, EOM
   Marcus Kettner         : VPT2
   Christian Kollmar      : KDIIS, OOCD, Brueckner-CCSD(T), CCSD density, CASPT2, CASPT2-K
   Simone Kossmann        : Meta GGA functionals, TD-DFT gradient, OOMP2, MP2 Hessian
   Martin Krupicka        : Initial AUTO-CI
   Lucas Lang             : DCDCAS
   Marvin Lechner         : AUTO-CI (C++ implementation), FIC-MRCC
   Dagmar Lenk            : GEPOL surface, SMD
   Dimitrios Liakos       : Extrapolation schemes; Compound Job, initial MDCI parallelization
   Dimitrios Manganas     : Further ROCIS development; embedding schemes
   Dimitrios Pantazis     : SARC Basis sets
   Anastasios Papadopoulos: AUTO-CI, single reference methods and gradients
   Taras Petrenko         : DFT Hessian,TD-DFT gradient, ASA, ECA, R-Raman, ABS, FL, XAS/XES, NRVS
   Peter Pinski           : DLPNO-MP2, DLPNO-MP2 Gradient
   Christoph Reimann      : Effective Core Potentials
   Marius Retegan         : Local ZFS, SOC
   Christoph Riplinger    : Optimizer, TS searches, QM/MM, DLPNO-CCSD(T), (RO)-DLPNO pert. Triples
   Tobias Risthaus        : Range-separated hybrids, TD-DFT gradient, RPA, STAB
   Michael Roemelt        : Original ROCIS implementation
   Masaaki Saitow         : Open-shell DLPNO-CCSD energy and density
   Barbara Sandhoefer     : DKH picture change effects
   Avijit Sen             : IP-ROCIS
   Kantharuban Sivalingam : CASSCF convergence, NEVPT2, FIC-MRCI
   Bernardo de Souza      : ESD, SOC TD-DFT
   Georgi Stoychev        : AutoAux, RI-MP2 NMR, DLPNO-MP2 response
   Willem Van den Heuvel  : Paramagnetic NMR
   Boris Wezisla          : Elementary symmetry handling
   Frank Wennmohs         : Technical directorship


 We gratefully acknowledge several colleagues who have allowed us to
 interface, adapt or use parts of their codes:
   Stefan Grimme, W. Hujo, H. Kruse, P. Pracht,  : VdW corrections, initial TS optimization,
                  C. Bannwarth, S. Ehlert          DFT functionals, gCP, sTDA/sTD-DF
   Ed Valeev, F. Pavosevic, A. Kumar             : LibInt (2-el integral package), F12 methods
   Garnet Chan, S. Sharma, J. Yang, R. Olivares  : DMRG
   Ulf Ekstrom                                   : XCFun DFT Library
   Mihaly Kallay                                 : mrcc  (arbitrary order and MRCC methods)
   Jiri Pittner, Ondrej Demel                    : Mk-CCSD
   Frank Weinhold                                : gennbo (NPA and NBO analysis)
   Christopher J. Cramer and Donald G. Truhlar   : smd solvation model
   Lars Goerigk                                  : TD-DFT with DH, B97 family of functionals
   V. Asgeirsson, H. Jonsson                     : NEB implementation
   FAccTs GmbH                                   : IRC, NEB, NEB-TS, DLPNO-Multilevel, CI-OPT
                                                   MM, QMMM, 2- and 3-layer-ONIOM, Crystal-QMMM,
                                                   LR-CPCM, SF, NACMEs, symmetry and pop. for TD-DFT,
                                                   nearIR, NL-DFT gradient (VV10), updates on ESD,
                                                   ML-optimized integration grids
   S Lehtola, MJT Oliveira, MAL Marques          : LibXC Library
   Liviu Ungur et al                             : ANISO software


 Your calculation uses the libint2 library for the computation of 2-el integrals
 For citations please refer to: http://libint.valeyev.net

 Your ORCA version has been built with support for libXC version: 5.1.0
 For citations please refer to: https://tddft.org/programs/libxc/

 This ORCA versions uses:
   CBLAS   interface :  Fast vector & matrix operations
   LAPACKE interface :  Fast linear algebra routines
   SCALAPACK package :  Parallel linear algebra routines
   Shared memory     :  Shared parallel matrices
   BLAS/LAPACK       :  OpenBLAS 0.3.15  USE64BITINT DYNAMIC_ARCH NO_AFFINITY SkylakeX SINGLE_THREADED
        Core in use  :  SkylakeX
   Copyright (c) 2011-2014, The OpenBLAS Project


Your calculation utilizes the DFT-NL dispersion correction.
Cite in your paper:
Vydrov, O. A.; Van Voorhis, T. J. Chem. Phys. 2010, 133, 244103
Hujo, W.; Grimme, S. J. Chem. Theory Comput. 2011, 7, 3866 
   

================================================================================

----- Orbital basis set information -----
Your calculation utilizes the basis: def2-TZVPP
   F. Weigend and R. Ahlrichs, Phys. Chem. Chem. Phys. 7, 3297 (2005).

----- AuxJ basis set information -----
Your calculation utilizes the auxiliary basis: def2/J
   F. Weigend, Phys. Chem. Chem. Phys. 8, 1057 (2006).

================================================================================
                                        WARNINGS
                       Please study these warnings very carefully!
================================================================================

Using LibXC functional ID 531 : wB97M-V exchange-correlation functional
[ 1]  N. Mardirossian and M. Head-Gordon, J. Chem. Phys. 144, 214110 (2016)
Using LibXC functional ID 531 : wB97M-V exchange-correlation functional
[ 1]  N. Mardirossian and M. Head-Gordon, J. Chem. Phys. 144, 214110 (2016)

WARNING: B97M-V or wB97M-V functional requested.
  ===> : libXC variant has now been activated.
         Any manually given DFX/HFX/RangeSep scaling parameters are IGNORED!

Your calculation utilizes LibXC
 by S Lehtola, C Steigemann, MJT Oliveira & MAL Marques
Please cite in your paper:
 S Lehtola, C Steigemann, MJT Oliveira & MAL Marques, SoftwareX, 7, (2018), 1.
   


WARNING: your system is open-shell and RHF/RKS was chosen
  ===> : WILL SWITCH to UHF/UKS


INFO   : the flag for use of the SHARK integral package has been found!

================================================================================
                                       INPUT FILE
================================================================================
NAME = arbr_24_r2scan3c_wB97MV_red.inp
|  1> %PAL NPROCS 16 END
|  2> %maxcore 4000
|  3> # arbr_24_r2scan3c.out
|  4> ! wB97m-v def2-TZVPP def2/J RIJCOSX Hirshfeld
|  5> * xyz -1 2
|  6>   Br        2.60262        -0.18003        -0.00000
|  7>    C        0.73555         0.09861         0.00001
|  8>    C        0.26521         1.45026         0.00001
|  9>    C       -1.06148         1.69326         0.00001
| 10>    N       -1.93300         0.63449         0.00000
| 11>    C       -3.29667         0.54280        -0.00006
| 12>    N       -3.65659        -0.70940         0.00006
| 13>    N       -2.54669        -1.48854        -0.00002
| 14>    C       -1.50819        -0.68381        -0.00000
| 15>    C       -0.11395        -0.95490        -0.00000
| 16>    H        0.96691         2.26982         0.00001
| 17>    H       -1.49523         2.68235         0.00000
| 18>    H       -3.95162         1.39727        -0.00007
| 19>    H        0.21949        -1.98162        -0.00001
| 20> *
| 21> 
| 22>                          ****END OF INPUT****
================================================================================

                       ****************************
                       * Single Point Calculation *
                       ****************************

---------------------------------
CARTESIAN COORDINATES (ANGSTROEM)
---------------------------------
  Br     2.602620   -0.180030   -0.000000
  C      0.735550    0.098610    0.000010
  C      0.265210    1.450260    0.000010
  C     -1.061480    1.693260    0.000010
  N     -1.933000    0.634490    0.000000
  C     -3.296670    0.542800   -0.000060
  N     -3.656590   -0.709400    0.000060
  N     -2.546690   -1.488540   -0.000020
  C     -1.508190   -0.683810   -0.000000
  C     -0.113950   -0.954900   -0.000000
  H      0.966910    2.269820    0.000010
  H     -1.495230    2.682350    0.000000
  H     -3.951620    1.397270   -0.000070
  H      0.219490   -1.981620   -0.000010

----------------------------
CARTESIAN COORDINATES (A.U.)
----------------------------
  NO LB      ZA    FRAG     MASS         X           Y           Z
   0 Br   35.0000    0    79.900    4.918239   -0.340207   -0.000000
   1 C     6.0000    0    12.011    1.389988    0.186346    0.000019
   2 C     6.0000    0    12.011    0.501174    2.740594    0.000019
   3 C     6.0000    0    12.011   -2.005906    3.199798    0.000019
   4 N     7.0000    0    14.007   -3.652841    1.199012    0.000000
   5 C     6.0000    0    12.011   -6.229803    1.025743   -0.000113
   6 N     7.0000    0    14.007   -6.909954   -1.340572    0.000113
   7 N     7.0000    0    14.007   -4.812547   -2.812933   -0.000038
   8 C     6.0000    0    12.011   -2.850066   -1.292214   -0.000000
   9 C     6.0000    0    12.011   -0.215334   -1.804499   -0.000000
  10 H     1.0000    0     1.008    1.827195    4.289338    0.000019
  11 H     1.0000    0     1.008   -2.825575    5.068907    0.000000
  12 H     1.0000    0     1.008   -7.467480    2.640458   -0.000132
  13 H     1.0000    0     1.008    0.414776   -3.744719   -0.000019

--------------------------------
INTERNAL COORDINATES (ANGSTROEM)
--------------------------------
 Br     0   0   0     0.000000000000     0.00000000     0.00000000
 C      1   0   0     1.887747502872     0.00000000     0.00000000
 C      2   1   0     1.431145498578   117.67473192     0.00000000
 C      3   2   1     1.348760674138   119.56599723   179.99965728
 N      4   3   2     1.371328196822   119.07989960     0.00000000
 C      5   4   3     1.366749036436   133.30593853   180.00329501
 N      6   5   4     1.302899558984   109.88289008   180.00472463
 N      7   6   5     1.356074170538   109.03227046     0.00000000
 C      8   7   6     1.313800830910   107.15950504     0.00000000
 C      2   1   3     1.353341631001   120.39291300   179.99917199
 H      3   2   1     1.078916810324   120.24355168     0.00000000
 H      4   3   2     1.080017634439   124.05849830   180.00064035
 H      6   5   4     1.076605073135   123.62346662     0.00000000
 H     10   2   1     1.079507383995   123.12711333     0.00000000

---------------------------
INTERNAL COORDINATES (A.U.)
---------------------------
 Br     0   0   0     0.000000000000     0.00000000     0.00000000
 C      1   0   0     3.567325790422     0.00000000     0.00000000
 C      2   1   0     2.704473050107   117.67473192     0.00000000
 C      3   2   1     2.548788294323   119.56599723   179.99965728
 N      4   3   2     2.591434731718   119.07989960     0.00000000
 C      5   4   3     2.582781372666   133.30593853   180.00329501
 N      6   5   4     2.462123346486   109.88289008   180.00472463
 N      7   6   5     2.562608799601   109.03227046     0.00000000
 C      8   7   6     2.482723764938   107.15950504     0.00000000
 C      2   1   3     2.557445048226   120.39291300   179.99917199
 H      3   2   1     2.038857292796   120.24355168     0.00000000
 H      4   3   2     2.040937548896   124.05849830   180.00064035
 H      6   5   4     2.034488742615   123.62346662     0.00000000
 H     10   2   1     2.039973315297   123.12711333     0.00000000

---------------------
BASIS SET INFORMATION
---------------------
There are 4 groups of distinct atoms

 Group   1 Type Br  : 17s13p8d1f contracted to 6s5p4d1f pattern {842111/64111/5111/1}
 Group   2 Type C   : 11s6p2d1f contracted to 5s3p2d1f pattern {62111/411/11/1}
 Group   3 Type N   : 11s6p2d1f contracted to 5s3p2d1f pattern {62111/411/11/1}
 Group   4 Type H   : 5s2p1d contracted to 3s2p1d pattern {311/11/1}

Atom   0Br   basis set group =>   1
Atom   1C    basis set group =>   2
Atom   2C    basis set group =>   2
Atom   3C    basis set group =>   2
Atom   4N    basis set group =>   3
Atom   5C    basis set group =>   2
Atom   6N    basis set group =>   3
Atom   7N    basis set group =>   3
Atom   8C    basis set group =>   2
Atom   9C    basis set group =>   2
Atom  10H    basis set group =>   4
Atom  11H    basis set group =>   4
Atom  12H    basis set group =>   4
Atom  13H    basis set group =>   4
---------------------------------
AUXILIARY/J BASIS SET INFORMATION
---------------------------------
There are 4 groups of distinct atoms

 Group   1 Type Br  : 19s5p5d3f1g contracted to 8s4p3d2f1g pattern {121111111/2111/311/21/1}
 Group   2 Type C   : 12s5p4d2f1g contracted to 6s4p3d1f1g pattern {711111/2111/211/2/1}
 Group   3 Type N   : 12s5p4d2f1g contracted to 6s4p3d1f1g pattern {711111/2111/211/2/1}
 Group   4 Type H   : 5s2p1d contracted to 3s1p1d pattern {311/2/1}

Atom   0Br   basis set group =>   1
Atom   1C    basis set group =>   2
Atom   2C    basis set group =>   2
Atom   3C    basis set group =>   2
Atom   4N    basis set group =>   3
Atom   5C    basis set group =>   2
Atom   6N    basis set group =>   3
Atom   7N    basis set group =>   3
Atom   8C    basis set group =>   2
Atom   9C    basis set group =>   2
Atom  10H    basis set group =>   4
Atom  11H    basis set group =>   4
Atom  12H    basis set group =>   4
Atom  13H    basis set group =>   4


           ************************************************************
           *        Program running with 16 parallel MPI-processes    *
           *              working on a common directory               *
           ************************************************************
------------------------------------------------------------------------------
                           ORCA GTO INTEGRAL CALCULATION
                           -- RI-GTO INTEGRALS CHOSEN --
------------------------------------------------------------------------------
------------------------------------------------------------------------------
                   ___                                                        
                  /   \      - P O W E R E D   B Y -                         
                 /     \                                                     
                 |  |  |   _    _      __       _____    __    __             
                 |  |  |  | |  | |    /  \     |  _  \  |  |  /  |          
                  \  \/   | |  | |   /    \    | | | |  |  | /  /          
                 / \  \   | |__| |  /  /\  \   | |_| |  |  |/  /          
                |  |  |   |  __  | /  /__\  \  |    /   |      \           
                |  |  |   | |  | | |   __   |  |    \   |  |\   \          
                \     /   | |  | | |  |  |  |  | |\  \  |  | \   \       
                 \___/    |_|  |_| |__|  |__|  |_| \__\ |__|  \__/        
                                                                              
                      - O R C A' S   B I G   F R I E N D -                    
                                      &                                       
                       - I N T E G R A L  F E E D E R -                       
                                                                              
 v1 FN, 2020, v2 2021                                                         
------------------------------------------------------------------------------


Reading SHARK input file arbr_24_r2scan3c_wB97MV_red.SHARKINP.tmp ... ok
----------------------
SHARK INTEGRAL PACKAGE
----------------------

Number of atoms                             ...     14
Number of basis functions                   ...    383
Number of shells                            ...    139
Maximum angular momentum                    ...      3
Integral batch strategy                     ... SHARK/LIBINT Hybrid
RI-J (if used) integral strategy            ... SPLIT-RIJ (Revised 2003 algorithm where possible)
Printlevel                                  ...      1
Contraction scheme used                     ... SEGMENTED contraction
Coulomb Range Separation                    ... NOT USED
Exchange Range Separation                   ... Long Range
   Mu parameter                             ...  0.300000
   Scaling (regular/separated)              ...  0.150000  0.850000
Finite Nucleus Model                        ... NOT USED
Auxiliary Coulomb fitting basis             ... AVAILABLE
   # of basis functions in Aux-J            ...    543
   # of shells in Aux-J                     ...    173
   Maximum angular momentum in Aux-J        ...      4
Auxiliary J/K fitting basis                 ... NOT available
Auxiliary Correlation fitting basis         ... NOT available
Auxiliary 'external' fitting basis          ... NOT available
Integral threshold                          ...     1.000000e-10
Primitive cut-off                           ...     1.000000e-11
Primitive pair pre-selection threshold      ...     1.000000e-11

Calculating pre-screening integrals         ... done (  0.1 sec) Dimension = 139
Organizing shell pair data                  ... done (  0.2 sec)
Shell pair information
Total number of shell pairs                 ...      9730
Shell pairs after pre-screening             ...      8445
Total number of primitive shell pairs       ...     31902
Primitive shell pairs kept                  ...     19749
          la=0 lb=0:   1655 shell pairs
          la=1 lb=0:   2225 shell pairs
          la=1 lb=1:    759 shell pairs
          la=2 lb=0:   1378 shell pairs
          la=2 lb=1:    932 shell pairs
          la=2 lb=2:    304 shell pairs
          la=3 lb=0:    544 shell pairs
          la=3 lb=1:    363 shell pairs
          la=3 lb=2:    233 shell pairs
          la=3 lb=3:     52 shell pairs

Calculating one electron integrals          ... done (  0.0 sec)
Calculating RI/J V-Matrix + Cholesky decomp.... done (  0.0 sec)
Calculating Nuclear repulsion               ... done (  0.0 sec) ENN=    702.605231014658 Eh

SHARK setup successfully completed in   0.6 seconds

Maximum memory used throughout the entire GTOINT-calculation: 25.6 MB


           ************************************************************
           *        Program running with 16 parallel MPI-processes    *
           *              working on a common directory               *
           ************************************************************
-------------------------------------------------------------------------------
                                 ORCA SCF
-------------------------------------------------------------------------------

------------
SCF SETTINGS
------------
Hamiltonian:
 Density Functional     Method          .... DFT(GTOs)
  Functional kind                       .... Exchange-Correlation
  Functional name                       .... wB97M-V exchange-correlation functional
  Functional family                     .... Hybrid MGGA
  Functional refs                              
    [ 0] N. Mardirossian and M. Head-Gordon, J. Chem. Phys. 144, 214110 (2016)
  Fraction of HF Exchange (short range) .... 0.1500
  Fraction of HF Exchange (long range)  .... 1.0000
  Range separation parameter mu         .... 0.3000
  Functional external parameters         .... 0
   Density functional embedding theory  .... OFF
 Long-range corrected/Screened/Range-Separated Hybrid DFT is turned on
   Amount of maximum screened exact exchange              ....  0.850000
   Range separation parameter mu (erf(mu*r12)/r12)        ....  0.300000
   NL short-range parameter             ....  6.000000
   NL long-range parameter              ....  0.010000
 RI-approximation to the Coulomb term is turned on
   Number of AuxJ basis functions       .... 543
   RIJ-COSX (HFX calculated with COS-X)).... on


General Settings:
 Integral files         IntName         .... arbr_24_r2scan3c_wB97MV_red
 Hartree-Fock type      HFTyp           .... UHF
 Total Charge           Charge          ....   -1
 Multiplicity           Mult            ....    2
 Number of Electrons    NEL             ....   97
 Basis Dimension        Dim             ....  383
 Nuclear Repulsion      ENuc            ....    702.6052310147 Eh

Convergence Acceleration:
 DIIS                   CNVDIIS         .... on
   Start iteration      DIISMaxIt       ....    12
   Startup error        DIISStart       ....  0.200000
   # of expansion vecs  DIISMaxEq       ....     5
   Bias factor          DIISBfac        ....   1.050
   Max. coefficient     DIISMaxC        ....  10.000
 Trust-Rad. Augm. Hess. CNVTRAH         .... auto
   Auto Start mean grad. ratio tolernc. ....  1.125000
   Auto Start start iteration           ....    20
   Auto Start num. interpolation iter.  ....    10
   Max. Number of Micro iterations      ....    16
   Max. Number of Macro iterations      .... Maxiter - #DIIS iter
   Number of Davidson start vectors     ....     2
   Converg. threshold I  (grad. norm)   ....   5.000e-05
   Converg. threshold II (energy diff.) ....   1.000e-06
   Grad. Scal. Fac. for Micro threshold ....   0.100
   Minimum threshold for Micro iter.    ....   0.010
   NR start threshold (gradient norm)   ....   0.001
   Initial trust radius                 ....   0.400
   Minimum AH scaling param. (alpha)    ....   1.000
   Maximum AH scaling param. (alpha)    .... 1000.000
   Orbital update algorithm             .... Taylor
   White noise on init. David. guess    .... on
   Maximum white noise                  ....   0.010
   Quad. conv. algorithm                .... NR
 SOSCF                  CNVSOSCF        .... off
 Level Shifting         CNVShift        .... on
   Level shift para.    LevelShift      ....    0.2500
   Turn off err/grad.   ShiftErr        ....    0.0010
 Zerner damping         CNVZerner       .... off
 Static damping         CNVDamp         .... on
   Fraction old density DampFac         ....    0.7000
   Max. Damping (<1)    DampMax         ....    0.9800
   Min. Damping (>=0)   DampMin         ....    0.0000
   Turn off err/grad.   DampErr         ....    0.1000
 Fernandez-Rico         CNVRico         .... off

SCF Procedure:
 Maximum # iterations   MaxIter         ....   125
 SCF integral mode      SCFMode         .... Direct
   Integral package                     .... SHARK and LIBINT hybrid scheme
 Reset frequency        DirectResetFreq ....    20
 Integral Threshold     Thresh          ....  1.000e-10 Eh
 Primitive CutOff       TCut            ....  1.000e-11 Eh

Convergence Tolerance:
 Convergence Check Mode ConvCheckMode   .... Total+1el-Energy
 Convergence forced     ConvForced      .... 0
 Energy Change          TolE            ....  1.000e-06 Eh
 1-El. energy change                    ....  1.000e-03 Eh
 DIIS Error             TolErr          ....  1.000e-06


Diagonalization of the overlap matrix:
Smallest eigenvalue                        ... 3.012e-05
Time for diagonalization                   ...    0.033 sec
Threshold for overlap eigenvalues          ... 1.000e-08
Number of eigenvalues below threshold      ... 0
Time for construction of square roots      ...    0.018 sec
Total time needed                          ...    0.053 sec

Time for model grid setup =    0.130 sec

------------------------------
INITIAL GUESS: MODEL POTENTIAL
------------------------------
Loading Hartree-Fock densities                     ... done
Calculating cut-offs                               ... done
Initializing the effective Hamiltonian             ... done
Setting up the integral package (SHARK)            ... done
Starting the Coulomb interaction                   ... done (   0.1 sec)
Reading the grid                                   ... done
Mapping shells                                     ... done
Starting the XC term evaluation                    ... done (   0.1 sec)
  promolecular density results
     # of electrons  =     95.995133832
     EX              =   -140.814629477
     EC              =     -3.791496194
     EX+EC           =   -144.606125671
Transforming the Hamiltonian                       ... done (   0.0 sec)
Diagonalizing the Hamiltonian                      ... done (   0.0 sec)
Back transforming the eigenvectors                 ... done (   0.0 sec)
Now organizing SCF variables                       ... done
                      ------------------
                      INITIAL GUESS DONE (   0.4 sec)
                      ------------------
-------------------
DFT GRID GENERATION
-------------------

General Integration Accuracy     IntAcc      ... 4.388
Radial Grid Type                 RadialGrid  ... OptM3 with GC (2021)
Angular Grid (max. ang.)         AngularGrid ... 4 (Lebedev-302)
Angular grid pruning method      GridPruning ... 4 (adaptive)
Weight generation scheme         WeightScheme... Becke
Basis function cutoff            BFCut       ... 1.0000e-10
Integration weight cutoff        WCut        ... 1.0000e-14
Angular grids for H and He will be reduced by one unit
Partially contracted basis set               ... off
Rotationally invariant grid construction     ... off

Total number of grid points                  ...    78308
Total number of batches                      ...     1229
Average number of points per batch           ...       63
Average number of grid points per atom       ...     5593
Time for grid setup =    0.659 sec

--------------------
COSX GRID GENERATION
--------------------

GRIDX 1
-------
General Integration Accuracy     IntAcc      ... 3.816
Radial Grid Type                 RadialGrid  ... OptM3 with GC (2021)
Angular Grid (max. ang.)         AngularGrid ... 1 (Lebedev-50)
Angular grid pruning method      GridPruning ... 4 (adaptive)
Weight generation scheme         WeightScheme... Becke
Basis function cutoff            BFCut       ... 1.0000e-10
Integration weight cutoff        WCut        ... 1.0000e-14
Angular grids for H and He will be reduced by one unit
Partially contracted basis set               ... on
Rotationally invariant grid construction     ... off

Total number of grid points                  ...     9766
Total number of batches                      ...      160
Average number of points per batch           ...       61
Average number of grid points per atom       ...      698
UseSFitting                                  ... on

GRIDX 2
-------
General Integration Accuracy     IntAcc      ... 4.020
Radial Grid Type                 RadialGrid  ... OptM3 with GC (2021)
Angular Grid (max. ang.)         AngularGrid ... 2 (Lebedev-110)
Angular grid pruning method      GridPruning ... 4 (adaptive)
Weight generation scheme         WeightScheme... Becke
Basis function cutoff            BFCut       ... 1.0000e-10
Integration weight cutoff        WCut        ... 1.0000e-14
Angular grids for H and He will be reduced by one unit
Partially contracted basis set               ... on
Rotationally invariant grid construction     ... off

Total number of grid points                  ...    21933
Total number of batches                      ...      349
Average number of points per batch           ...       62
Average number of grid points per atom       ...     1567
UseSFitting                                  ... on

GRIDX 3
-------
General Integration Accuracy     IntAcc      ... 4.338
Radial Grid Type                 RadialGrid  ... OptM3 with GC (2021)
Angular Grid (max. ang.)         AngularGrid ... 3 (Lebedev-194)
Angular grid pruning method      GridPruning ... 4 (adaptive)
Weight generation scheme         WeightScheme... Becke
Basis function cutoff            BFCut       ... 1.0000e-10
Integration weight cutoff        WCut        ... 1.0000e-14
Angular grids for H and He will be reduced by one unit
Partially contracted basis set               ... on
Rotationally invariant grid construction     ... off

Total number of grid points                  ...    48577
Total number of batches                      ...      765
Average number of points per batch           ...       63
Average number of grid points per atom       ...     3470
UseSFitting                                  ... on

Time for X-Grid setup             =    0.534 sec

--------------
SCF ITERATIONS
--------------
ITER       Energy         Delta-E        Max-DP      RMS-DP      [F,P]     Damp
               ***  Starting incremental Fock matrix formation  ***
  0  -2969.3626664265   0.000000000000 0.03508534  0.00056419  0.1018581 0.7000
  1  -2969.4897452766  -0.127078850132 0.03702472  0.00055848  0.0580243 0.7000
                               ***Turning on DIIS***
  2  -2969.5554250871  -0.065679810419 0.08651423  0.00120926  0.0290041 0.0000
  3  -2969.6639694148  -0.108544327765 0.02513758  0.00037515  0.0241158 0.0000
  4  -2969.6814131004  -0.017443685538 0.00699139  0.00013748  0.0047530 0.0000
  5  -2969.6824835330  -0.001070432580 0.00340603  0.00008033  0.0026531 0.0000
  6  -2969.6829560242  -0.000472491259 0.00363582  0.00005348  0.0016816 0.0000
  7  -2969.6832418544  -0.000285830178 0.00344057  0.00004125  0.0011201 0.0000
  8  -2969.6834134362  -0.000171581773 0.00596743  0.00005377  0.0009293 0.0000
               *** Restarting incremental Fock matrix formation ***
                                   *** Resetting DIIS ***
  9  -2969.6835161474  -0.000102711244 0.00182076  0.00002184  0.0005649 0.0000
 10  -2969.6835467456  -0.000030598196 0.00087445  0.00000930  0.0006316 0.0000
 11  -2969.6835608872  -0.000014141622 0.00242420  0.00002305  0.0004159 0.0000
 12  -2969.6835876973  -0.000026810048 0.00185911  0.00001728  0.0002406 0.0000
 13  -2969.6835992351  -0.000011537841 0.00127319  0.00001047  0.0001984 0.0000
 14  -2969.6836032028  -0.000003967682 0.00071800  0.00000566  0.0000977 0.0000
 15  -2969.6836046055  -0.000001402689 0.00077820  0.00000559  0.0000702 0.0000
 16  -2969.6836053397  -0.000000734199 0.00023445  0.00000165  0.0000365 0.0000
                 **** Energy Check signals convergence ****

               *****************************************************
               *                     SUCCESS                       *
               *           SCF CONVERGED AFTER  17 CYCLES          *
               *****************************************************

Old exchange energy                            =    -34.454638772 Eh
New exchange energy                            =    -34.454652035 Eh
Exchange energy change after final integration =     -0.000013263 Eh
Total energy after final integration           =  -2969.683618708 Eh
Final COS-X integration done in                =     7.665 sec

------------------
NL GRID GENERATION
------------------

General Integration Accuracy     IntAcc      ... 4.004
Radial Grid Type                 RadialGrid  ... OptM3 with GC (2021)
Angular Grid (max. ang.)         AngularGrid ... 2 (Lebedev-110)
Angular grid pruning method      GridPruning ... 4 (adaptive)
Weight generation scheme         WeightScheme... Becke
Basis function cutoff            BFCut       ... 1.0000e-10
Integration weight cutoff        WCut        ... 1.0000e-14
Angular grids for H and He will be reduced by one unit
Partially contracted basis set               ... off
Rotationally invariant grid construction     ... off

Total number of grid points                  ...    27735
Total number of batches                      ...      439
Average number of points per batch           ...       63
Average number of grid points per atom       ...     1981
Final grid set up in    0.1 sec

-------------------------------------------------------------------------------
                    post-SCF DFT-NL dispersion correction                      
-------------------------------------------------------------------------------

SCF Energy:   -2969.683618708 
NL    Energy:  0.376283037 
SC+NL Energy: -2969.307335672 
NL done in:    0.5 sec
-------------------------------------------------------------------------------

----------------
TOTAL SCF ENERGY
----------------

Total Energy       :        -2969.30733567 Eh          -80798.96034 eV

Components:
Nuclear Repulsion  :          702.60523101 Eh           19118.86032 eV
Electronic Energy  :        -3671.91256669 Eh          -99917.82066 eV
One Electron Energy:        -5529.08022258 Eh         -150453.92179 eV
Two Electron Energy:         1857.16765589 Eh           50536.10112 eV
Max COSX asymmetry :            0.00000123 Eh               0.00003 eV

Virial components:
Potential Energy   :        -5934.92391591 Eh         -161497.49013 eV
Kinetic Energy     :         2965.61658024 Eh           80698.52978 eV
Virial Ratio       :            2.00124452


DFT components:
N(Alpha)           :       49.000032704284 electrons
N(Beta)            :       47.999989281250 electrons
N(Total)           :       97.000021985534 electrons
NL Energy, E(C,NL) :        0.376283036783 Eh       
E(XC)              :     -111.814221800617 Eh       
DFET-embed. en.    :        0.000000000000 Eh       

---------------
SCF CONVERGENCE
---------------

  Last Energy change         ...   -1.0593e-07  Tolerance :   1.0000e-06
  Last MAX-Density change    ...    0.0000e+00  Tolerance :   1.0000e-05
  Last RMS-Density change    ...    0.0000e+00  Tolerance :   1.0000e-06
  Last DIIS Error            ...    2.4496e-05  Tolerance :   1.0000e-06

             **** THE GBW FILE WAS UPDATED (arbr_24_r2scan3c_wB97MV_red.gbw) ****
             **** DENSITY arbr_24_r2scan3c_wB97MV_red.scfp WAS UPDATED ****
             **** ENERGY FILE WAS UPDATED (arbr_24_r2scan3c_wB97MV_red.en.tmp) ****
----------------------
UHF SPIN CONTAMINATION
----------------------

Warning: in a DFT calculation there is little theoretical justification to 
         calculate <S**2> as in Hartree-Fock theory. We will do it anyways
         but you should keep in mind that the values have only limited relevance

Expectation value of <S**2>     :     0.764478
Ideal value S*(S+1) for S=0.5   :     0.750000
Deviation                       :     0.014478

             **** THE GBW FILE WAS UPDATED (arbr_24_r2scan3c_wB97MV_red.gbw) ****
             **** DENSITY arbr_24_r2scan3c_wB97MV_red.scfp WAS UPDATED ****
----------------
ORBITAL ENERGIES
----------------
                 SPIN UP ORBITALS
  NO   OCC          E(Eh)            E(eV) 
   0   1.0000    -483.362826    -13152.9712 
   1   1.0000     -62.668084     -1705.2852 
   2   1.0000     -56.354312     -1533.4788 
   3   1.0000     -56.352763     -1533.4366 
   4   1.0000     -56.352560     -1533.4311 
   5   1.0000     -14.414826      -392.2474 
   6   1.0000     -14.359836      -390.7510 
   7   1.0000     -14.341910      -390.2632 
   8   1.0000     -10.247970      -278.8614 
   9   1.0000     -10.247895      -278.8594 
  10   1.0000     -10.231902      -278.4242 
  11   1.0000     -10.210875      -277.8520 
  12   1.0000     -10.197225      -277.4806 
  13   1.0000     -10.167125      -276.6615 
  14   1.0000      -8.751563      -238.1421 
  15   1.0000      -6.536445      -177.8657 
  16   1.0000      -6.527205      -177.6143 
  17   1.0000      -6.527085      -177.6110 
  18   1.0000      -2.617647       -71.2298 
  19   1.0000      -2.614983       -71.1573 
  20   1.0000      -2.614879       -71.1545 
  21   1.0000      -2.607361       -70.9499 
  22   1.0000      -2.607359       -70.9498 
  23   1.0000      -1.038616       -28.2622 
  24   1.0000      -0.913139       -24.8478 
  25   1.0000      -0.822038       -22.3688 
  26   1.0000      -0.781483       -21.2652 
  27   1.0000      -0.741601       -20.1800 
  28   1.0000      -0.704237       -19.1633 
  29   1.0000      -0.614918       -16.7328 
  30   1.0000      -0.586775       -15.9670 
  31   1.0000      -0.568308       -15.4644 
  32   1.0000      -0.496170       -13.5015 
  33   1.0000      -0.452126       -12.3030 
  34   1.0000      -0.437103       -11.8942 
  35   1.0000      -0.433434       -11.7943 
  36   1.0000      -0.406163       -11.0523 
  37   1.0000      -0.396507       -10.7895 
  38   1.0000      -0.336873        -9.1668 
  39   1.0000      -0.331582        -9.0228 
  40   1.0000      -0.310051        -8.4369 
  41   1.0000      -0.294540        -8.0148 
  42   1.0000      -0.265918        -7.2360 
  43   1.0000      -0.247859        -6.7446 
  44   1.0000      -0.245744        -6.6870 
  45   1.0000      -0.208827        -5.6825 
  46   1.0000      -0.205163        -5.5828 
  47   1.0000      -0.157137        -4.2759 
  48   1.0000      -0.014405        -0.3920 
  49   0.0000       0.223646         6.0857 
  50   0.0000       0.229511         6.2453 
  51   0.0000       0.240126         6.5342 
  52   0.0000       0.263355         7.1663 
  53   0.0000       0.267011         7.2657 
  54   0.0000       0.280777         7.6403 
  55   0.0000       0.286845         7.8054 
  56   0.0000       0.299438         8.1481 
  57   0.0000       0.334539         9.1033 
  58   0.0000       0.345056         9.3895 
  59   0.0000       0.350839         9.5468 
  60   0.0000       0.370400        10.0791 
  61   0.0000       0.392890        10.6911 
  62   0.0000       0.400926        10.9097 
  63   0.0000       0.409626        11.1465 
  64   0.0000       0.428639        11.6639 
  65   0.0000       0.432432        11.7671 
  66   0.0000       0.447442        12.1755 
  67   0.0000       0.448763        12.2115 
  68   0.0000       0.459900        12.5145 
  69   0.0000       0.460253        12.5241 
  70   0.0000       0.474259        12.9052 
  71   0.0000       0.486813        13.2469 
  72   0.0000       0.487647        13.2696 
  73   0.0000       0.500810        13.6277 
  74   0.0000       0.502956        13.6861 
  75   0.0000       0.510389        13.8884 
  76   0.0000       0.534277        14.5384 
  77   0.0000       0.546327        14.8663 
  78   0.0000       0.570414        15.5218 
  79   0.0000       0.580013        15.7830 
  80   0.0000       0.581938        15.8353 
  81   0.0000       0.582397        15.8478 
  82   0.0000       0.590972        16.0812 
  83   0.0000       0.597028        16.2459 
  84   0.0000       0.605386        16.4734 
  85   0.0000       0.623590        16.9687 
  86   0.0000       0.627516        17.0756 
  87   0.0000       0.627983        17.0883 
  88   0.0000       0.649259        17.6672 
  89   0.0000       0.664519        18.0825 
  90   0.0000       0.668424        18.1887 
  91   0.0000       0.670051        18.2330 
  92   0.0000       0.680171        18.5084 
  93   0.0000       0.718332        19.5468 
  94   0.0000       0.732019        19.9193 
  95   0.0000       0.735059        20.0020 
  96   0.0000       0.748336        20.3633 
  97   0.0000       0.758176        20.6310 
  98   0.0000       0.772536        21.0218 
  99   0.0000       0.773019        21.0349 
 100   0.0000       0.792698        21.5704 
 101   0.0000       0.796052        21.6617 
 102   0.0000       0.798310        21.7231 
 103   0.0000       0.807054        21.9611 
 104   0.0000       0.841126        22.8882 
 105   0.0000       0.853982        23.2380 
 106   0.0000       0.863457        23.4959 
 107   0.0000       0.881035        23.9742 
 108   0.0000       0.894148        24.3310 
 109   0.0000       0.906494        24.6670 
 110   0.0000       0.910109        24.7653 
 111   0.0000       0.920773        25.0555 
 112   0.0000       0.940835        25.6014 
 113   0.0000       0.956539        26.0288 
 114   0.0000       0.962508        26.1912 
 115   0.0000       0.978750        26.6331 
 116   0.0000       0.995760        27.0960 
 117   0.0000       1.010509        27.4973 
 118   0.0000       1.032738        28.1022 
 119   0.0000       1.034992        28.1636 
 120   0.0000       1.038111        28.2484 
 121   0.0000       1.094491        29.7826 
 122   0.0000       1.112195        30.2644 
 123   0.0000       1.134935        30.8831 
 124   0.0000       1.138922        30.9916 
 125   0.0000       1.153323        31.3835 
 126   0.0000       1.194618        32.5072 
 127   0.0000       1.195014        32.5180 
 128   0.0000       1.213862        33.0309 
 129   0.0000       1.224681        33.3253 
 130   0.0000       1.228324        33.4244 
 131   0.0000       1.269460        34.5438 
 132   0.0000       1.288610        35.0649 
 133   0.0000       1.289830        35.0981 
 134   0.0000       1.322490        35.9868 
 135   0.0000       1.350201        36.7408 
 136   0.0000       1.367784        37.2193 
 137   0.0000       1.376931        37.4682 
 138   0.0000       1.386609        37.7315 
 139   0.0000       1.424157        38.7533 
 140   0.0000       1.436869        39.0992 
 141   0.0000       1.439945        39.1829 
 142   0.0000       1.461672        39.7741 
 143   0.0000       1.472688        40.0739 
 144   0.0000       1.498850        40.7858 
 145   0.0000       1.502361        40.8813 
 146   0.0000       1.514944        41.2237 
 147   0.0000       1.522005        41.4159 
 148   0.0000       1.537969        41.8503 
 149   0.0000       1.551187        42.2100 
 150   0.0000       1.565300        42.5940 
 151   0.0000       1.570510        42.7357 
 152   0.0000       1.590054        43.2676 
 153   0.0000       1.621007        44.1098 
 154   0.0000       1.629890        44.3516 
 155   0.0000       1.652196        44.9585 
 156   0.0000       1.659789        45.1651 
 157   0.0000       1.665253        45.3138 
 158   0.0000       1.667442        45.3734 
 159   0.0000       1.699058        46.2337 
 160   0.0000       1.705766        46.4163 
 161   0.0000       1.709570        46.5198 
 162   0.0000       1.714336        46.6495 
 163   0.0000       1.729279        47.0561 
 164   0.0000       1.734600        47.2009 
 165   0.0000       1.772766        48.2394 
 166   0.0000       1.775040        48.3013 
 167   0.0000       1.792510        48.7767 
 168   0.0000       1.820034        49.5256 
 169   0.0000       1.826930        49.7133 
 170   0.0000       1.829951        49.7955 
 171   0.0000       1.834947        49.9314 
 172   0.0000       1.869769        50.8790 
 173   0.0000       1.870134        50.8889 
 174   0.0000       1.875983        51.0481 
 175   0.0000       1.878773        51.1240 
 176   0.0000       1.898036        51.6482 
 177   0.0000       1.921091        52.2755 
 178   0.0000       1.930881        52.5419 
 179   0.0000       1.949970        53.0614 
 180   0.0000       1.958100        53.2826 
 181   0.0000       1.972852        53.6840 
 182   0.0000       1.973270        53.6954 
 183   0.0000       1.982340        53.9422 
 184   0.0000       2.009503        54.6814 
 185   0.0000       2.026649        55.1479 
 186   0.0000       2.029394        55.2226 
 187   0.0000       2.049227        55.7623 
 188   0.0000       2.099696        57.1356 
 189   0.0000       2.101092        57.1736 
 190   0.0000       2.111049        57.4446 
 191   0.0000       2.155638        58.6579 
 192   0.0000       2.174439        59.1695 
 193   0.0000       2.187794        59.5329 
 194   0.0000       2.197779        59.8046 
 195   0.0000       2.204548        59.9888 
 196   0.0000       2.254544        61.3493 
 197   0.0000       2.269634        61.7599 
 198   0.0000       2.350965        63.9730 
 199   0.0000       2.375245        64.6337 
 200   0.0000       2.397897        65.2501 
 201   0.0000       2.420041        65.8527 
 202   0.0000       2.457007        66.8586 
 203   0.0000       2.475383        67.3586 
 204   0.0000       2.492445        67.8229 
 205   0.0000       2.507000        68.2189 
 206   0.0000       2.574520        70.0562 
 207   0.0000       2.582360        70.2696 
 208   0.0000       2.586024        70.3693 
 209   0.0000       2.606098        70.9155 
 210   0.0000       2.654892        72.2433 
 211   0.0000       2.706414        73.6453 
 212   0.0000       2.711131        73.7736 
 213   0.0000       2.752375        74.8959 
 214   0.0000       2.778251        75.6001 
 215   0.0000       2.783928        75.7545 
 216   0.0000       2.803667        76.2917 
 217   0.0000       2.858798        77.7919 
 218   0.0000       2.880049        78.3701 
 219   0.0000       2.888457        78.5989 
 220   0.0000       2.944004        80.1104 
 221   0.0000       2.952144        80.3319 
 222   0.0000       2.971518        80.8591 
 223   0.0000       2.977291        81.0162 
 224   0.0000       3.034557        82.5745 
 225   0.0000       3.036922        82.6389 
 226   0.0000       3.052047        83.0504 
 227   0.0000       3.066130        83.4336 
 228   0.0000       3.072496        83.6069 
 229   0.0000       3.098379        84.3112 
 230   0.0000       3.108459        84.5855 
 231   0.0000       3.124112        85.0114 
 232   0.0000       3.151356        85.7528 
 233   0.0000       3.170724        86.2798 
 234   0.0000       3.180789        86.5537 
 235   0.0000       3.184331        86.6500 
 236   0.0000       3.196291        86.9755 
 237   0.0000       3.207810        87.2890 
 238   0.0000       3.250412        88.4482 
 239   0.0000       3.260048        88.7104 
 240   0.0000       3.272753        89.0561 
 241   0.0000       3.280512        89.2673 
 242   0.0000       3.284061        89.3638 
 243   0.0000       3.297384        89.7264 
 244   0.0000       3.345374        91.0322 
 245   0.0000       3.354413        91.2782 
 246   0.0000       3.359785        91.4244 
 247   0.0000       3.389328        92.2283 
 248   0.0000       3.391443        92.2859 
 249   0.0000       3.417650        92.9990 
 250   0.0000       3.458890        94.1212 
 251   0.0000       3.464820        94.2826 
 252   0.0000       3.479211        94.6741 
 253   0.0000       3.489098        94.9432 
 254   0.0000       3.491391        95.0056 
 255   0.0000       3.531190        96.0886 
 256   0.0000       3.537273        96.2541 
 257   0.0000       3.538802        96.2957 
 258   0.0000       3.560135        96.8762 
 259   0.0000       3.568246        97.0969 
 260   0.0000       3.579375        97.3997 
 261   0.0000       3.635782        98.9347 
 262   0.0000       3.638100        98.9977 
 263   0.0000       3.666121        99.7602 
 264   0.0000       3.674012        99.9749 
 265   0.0000       3.684156       100.2510 
 266   0.0000       3.699972       100.6814 
 267   0.0000       3.716282       101.1252 
 268   0.0000       3.754191       102.1567 
 269   0.0000       3.755273       102.1862 
 270   0.0000       3.773332       102.6776 
 271   0.0000       3.793777       103.2339 
 272   0.0000       3.797984       103.3484 
 273   0.0000       3.831896       104.2712 
 274   0.0000       3.844637       104.6179 
 275   0.0000       3.860073       105.0379 
 276   0.0000       3.911970       106.4501 
 277   0.0000       3.925731       106.8246 
 278   0.0000       3.946532       107.3906 
 279   0.0000       3.983585       108.3989 
 280   0.0000       3.985695       108.4563 
 281   0.0000       4.004625       108.9714 
 282   0.0000       4.016137       109.2846 
 283   0.0000       4.035567       109.8134 
 284   0.0000       4.071106       110.7804 
 285   0.0000       4.077873       110.9646 
 286   0.0000       4.087221       111.2189 
 287   0.0000       4.090503       111.3082 
 288   0.0000       4.103564       111.6636 
 289   0.0000       4.128020       112.3291 
 290   0.0000       4.143783       112.7581 
 291   0.0000       4.192465       114.0828 
 292   0.0000       4.200397       114.2986 
 293   0.0000       4.207683       114.4969 
 294   0.0000       4.211390       114.5977 
 295   0.0000       4.234076       115.2151 
 296   0.0000       4.248746       115.6143 
 297   0.0000       4.272448       116.2592 
 298   0.0000       4.276119       116.3591 
 299   0.0000       4.305683       117.1636 
 300   0.0000       4.316335       117.4534 
 301   0.0000       4.334216       117.9400 
 302   0.0000       4.371425       118.9525 
 303   0.0000       4.425217       120.4163 
 304   0.0000       4.428081       120.4942 
 305   0.0000       4.442084       120.8753 
 306   0.0000       4.465853       121.5220 
 307   0.0000       4.473867       121.7401 
 308   0.0000       4.522198       123.0553 
 309   0.0000       4.523294       123.0851 
 310   0.0000       4.550059       123.8134 
 311   0.0000       4.583697       124.7287 
 312   0.0000       4.584661       124.7550 
 313   0.0000       4.617812       125.6571 
 314   0.0000       4.621248       125.7505 
 315   0.0000       4.696154       127.7888 
 316   0.0000       4.712434       128.2318 
 317   0.0000       4.754216       129.3688 
 318   0.0000       4.768627       129.7609 
 319   0.0000       4.788534       130.3026 
 320   0.0000       4.839721       131.6955 
 321   0.0000       4.879933       132.7897 
 322   0.0000       4.888696       133.0282 
 323   0.0000       4.946042       134.5886 
 324   0.0000       4.954674       134.8235 
 325   0.0000       4.957394       134.8975 
 326   0.0000       5.001476       136.0971 
 327   0.0000       5.016534       136.5068 
 328   0.0000       5.024445       136.7221 
 329   0.0000       5.046153       137.3128 
 330   0.0000       5.050954       137.4435 
 331   0.0000       5.111676       139.0958 
 332   0.0000       5.138263       139.8192 
 333   0.0000       5.154045       140.2487 
 334   0.0000       5.177899       140.8978 
 335   0.0000       5.228239       142.2676 
 336   0.0000       5.229765       142.3092 
 337   0.0000       5.270660       143.4220 
 338   0.0000       5.283526       143.7721 
 339   0.0000       5.315800       144.6503 
 340   0.0000       5.336544       145.2148 
 341   0.0000       5.343269       145.3978 
 342   0.0000       5.391236       146.7030 
 343   0.0000       5.403017       147.0236 
 344   0.0000       5.412968       147.2943 
 345   0.0000       5.444895       148.1631 
 346   0.0000       5.454191       148.4161 
 347   0.0000       5.455759       148.4588 
 348   0.0000       5.497558       149.5961 
 349   0.0000       5.522622       150.2782 
 350   0.0000       5.568218       151.5189 
 351   0.0000       5.599955       152.3825 
 352   0.0000       5.612869       152.7339 
 353   0.0000       5.635886       153.3603 
 354   0.0000       5.656810       153.9296 
 355   0.0000       5.674776       154.4185 
 356   0.0000       5.716154       155.5445 
 357   0.0000       5.718682       155.6133 
 358   0.0000       5.768514       156.9692 
 359   0.0000       5.855367       159.3326 
 360   0.0000       5.900841       160.5700 
 361   0.0000       5.944450       161.7567 
 362   0.0000       5.952262       161.9693 
 363   0.0000       6.039549       164.3445 
 364   0.0000       6.088952       165.6888 
 365   0.0000       6.122460       166.6006 
 366   0.0000       6.275789       170.7729 
 367   0.0000       6.362993       173.1458 
 368   0.0000       6.433030       175.0516 
 369   0.0000       6.496748       176.7855 
 370   0.0000       6.636493       180.5881 
 371   0.0000       7.071350       192.4212 
 372   0.0000       7.261852       197.6050 
 373   0.0000       8.054450       219.1727 
 374   0.0000      23.218580       631.8097 
 375   0.0000      23.485248       639.0661 
 376   0.0000      23.671329       644.1296 
 377   0.0000      23.735560       645.8774 
 378   0.0000      24.132045       656.6663 
 379   0.0000      24.239759       659.5974 
 380   0.0000      32.681516       889.3093 
 381   0.0000      32.903387       895.3467 
 382   0.0000      33.674090       916.3186 

                 SPIN DOWN ORBITALS
  NO   OCC          E(Eh)            E(eV) 
   0   1.0000    -483.362829    -13152.9713 
   1   1.0000     -62.668059     -1705.2846 
   2   1.0000     -56.354343     -1533.4796 
   3   1.0000     -56.352759     -1533.4365 
   4   1.0000     -56.352480     -1533.4289 
   5   1.0000     -14.412787      -392.1919 
   6   1.0000     -14.358467      -390.7138 
   7   1.0000     -14.340772      -390.2322 
   8   1.0000     -10.248675      -278.8806 
   9   1.0000     -10.248566      -278.8776 
  10   1.0000     -10.229244      -278.3519 
  11   1.0000     -10.205185      -277.6972 
  12   1.0000     -10.197781      -277.4957 
  13   1.0000     -10.162162      -276.5265 
  14   1.0000      -8.751549      -238.1417 
  15   1.0000      -6.536514      -177.8676 
  16   1.0000      -6.527201      -177.6142 
  17   1.0000      -6.526967      -177.6078 
  18   1.0000      -2.617689       -71.2309 
  19   1.0000      -2.615034       -71.1587 
  20   1.0000      -2.614793       -71.1521 
  21   1.0000      -2.607285       -70.9478 
  22   1.0000      -2.607280       -70.9477 
  23   1.0000      -1.035880       -28.1877 
  24   1.0000      -0.908785       -24.7293 
  25   1.0000      -0.817747       -22.2520 
  26   1.0000      -0.779590       -21.2137 
  27   1.0000      -0.737545       -20.0696 
  28   1.0000      -0.698213       -18.9993 
  29   1.0000      -0.608062       -16.5462 
  30   1.0000      -0.584316       -15.9001 
  31   1.0000      -0.563954       -15.3460 
  32   1.0000      -0.491817       -13.3830 
  33   1.0000      -0.448119       -12.1939 
  34   1.0000      -0.429708       -11.6929 
  35   1.0000      -0.428930       -11.6718 
  36   1.0000      -0.401860       -10.9352 
  37   1.0000      -0.393795       -10.7157 
  38   1.0000      -0.333289        -9.0692 
  39   1.0000      -0.318157        -8.6575 
  40   1.0000      -0.307172        -8.3586 
  41   1.0000      -0.280493        -7.6326 
  42   1.0000      -0.263415        -7.1679 
  43   1.0000      -0.247237        -6.7277 
  44   1.0000      -0.235964        -6.4209 
  45   1.0000      -0.203240        -5.5304 
  46   1.0000      -0.191211        -5.2031 
  47   1.0000      -0.132973        -3.6184 
  48   0.0000       0.209668         5.7054 
  49   0.0000       0.225899         6.1470 
  50   0.0000       0.232790         6.3345 
  51   0.0000       0.240782         6.5520 
  52   0.0000       0.264017         7.1843 
  53   0.0000       0.278124         7.5681 
  54   0.0000       0.281159         7.6507 
  55   0.0000       0.286805         7.8044 
  56   0.0000       0.300024         8.1641 
  57   0.0000       0.334276         9.0961 
  58   0.0000       0.350928         9.5492 
  59   0.0000       0.359829         9.7915 
  60   0.0000       0.370399        10.0791 
  61   0.0000       0.392370        10.6769 
  62   0.0000       0.405077        11.0227 
  63   0.0000       0.410102        11.1594 
  64   0.0000       0.428770        11.6674 
  65   0.0000       0.434094        11.8123 
  66   0.0000       0.447935        12.1889 
  67   0.0000       0.451580        12.2881 
  68   0.0000       0.460576        12.5329 
  69   0.0000       0.467845        12.7307 
  70   0.0000       0.475514        12.9394 
  71   0.0000       0.487304        13.2602 
  72   0.0000       0.489355        13.3160 
  73   0.0000       0.503325        13.6962 
  74   0.0000       0.505185        13.7468 
  75   0.0000       0.511491        13.9184 
  76   0.0000       0.535638        14.5754 
  77   0.0000       0.548362        14.9217 
  78   0.0000       0.576797        15.6954 
  79   0.0000       0.581851        15.8330 
  80   0.0000       0.583424        15.8758 
  81   0.0000       0.586655        15.9637 
  82   0.0000       0.592020        16.1097 
  83   0.0000       0.598941        16.2980 
  84   0.0000       0.607792        16.5389 
  85   0.0000       0.625470        17.0199 
  86   0.0000       0.630451        17.1554 
  87   0.0000       0.631568        17.1858 
  88   0.0000       0.650759        17.7081 
  89   0.0000       0.665986        18.1224 
  90   0.0000       0.670690        18.2504 
  91   0.0000       0.672032        18.2869 
  92   0.0000       0.681729        18.5508 
  93   0.0000       0.721238        19.6259 
  94   0.0000       0.733793        19.9675 
  95   0.0000       0.737523        20.0690 
  96   0.0000       0.748827        20.3766 
  97   0.0000       0.759810        20.6755 
  98   0.0000       0.773994        21.0614 
  99   0.0000       0.776539        21.1307 
 100   0.0000       0.792880        21.5754 
 101   0.0000       0.797369        21.6975 
 102   0.0000       0.802355        21.8332 
 103   0.0000       0.810237        22.0477 
 104   0.0000       0.842208        22.9177 
 105   0.0000       0.854042        23.2397 
 106   0.0000       0.872753        23.7488 
 107   0.0000       0.882154        24.0046 
 108   0.0000       0.895535        24.3687 
 109   0.0000       0.908716        24.7274 
 110   0.0000       0.910805        24.7843 
 111   0.0000       0.927953        25.2509 
 112   0.0000       0.941835        25.6286 
 113   0.0000       0.958834        26.0912 
 114   0.0000       0.964798        26.2535 
 115   0.0000       0.982581        26.7374 
 116   0.0000       0.997003        27.1298 
 117   0.0000       1.016577        27.6625 
 118   0.0000       1.035117        28.1670 
 119   0.0000       1.036190        28.1962 
 120   0.0000       1.039768        28.2935 
 121   0.0000       1.098325        29.8869 
 122   0.0000       1.113539        30.3009 
 123   0.0000       1.141434        31.0600 
 124   0.0000       1.148017        31.2391 
 125   0.0000       1.154428        31.4136 
 126   0.0000       1.195301        32.5258 
 127   0.0000       1.199176        32.6312 
 128   0.0000       1.217323        33.1251 
 129   0.0000       1.229084        33.4451 
 130   0.0000       1.231906        33.5219 
 131   0.0000       1.271571        34.6012 
 132   0.0000       1.291909        35.1546 
 133   0.0000       1.295978        35.2654 
 134   0.0000       1.324342        36.0372 
 135   0.0000       1.357668        36.9440 
 136   0.0000       1.369413        37.2636 
 137   0.0000       1.380772        37.5727 
 138   0.0000       1.388472        37.7823 
 139   0.0000       1.426565        38.8188 
 140   0.0000       1.442955        39.2648 
 141   0.0000       1.444259        39.3003 
 142   0.0000       1.466313        39.9004 
 143   0.0000       1.475175        40.1415 
 144   0.0000       1.503059        40.9003 
 145   0.0000       1.503742        40.9189 
 146   0.0000       1.518217        41.3128 
 147   0.0000       1.527182        41.5567 
 148   0.0000       1.539624        41.8953 
 149   0.0000       1.553830        42.2819 
 150   0.0000       1.567107        42.6432 
 151   0.0000       1.578036        42.9406 
 152   0.0000       1.591891        43.3176 
 153   0.0000       1.627914        44.2978 
 154   0.0000       1.630936        44.3800 
 155   0.0000       1.653962        45.0066 
 156   0.0000       1.661054        45.1996 
 157   0.0000       1.669139        45.4196 
 158   0.0000       1.672565        45.5128 
 159   0.0000       1.706809        46.4446 
 160   0.0000       1.712325        46.5947 
 161   0.0000       1.718087        46.7515 
 162   0.0000       1.725943        46.9653 
 163   0.0000       1.729615        47.0652 
 164   0.0000       1.738938        47.3189 
 165   0.0000       1.773653        48.2636 
 166   0.0000       1.777319        48.3633 
 167   0.0000       1.793751        48.8104 
 168   0.0000       1.823417        49.6177 
 169   0.0000       1.831682        49.8426 
 170   0.0000       1.833058        49.8800 
 171   0.0000       1.842951        50.1492 
 172   0.0000       1.874857        51.0174 
 173   0.0000       1.879772        51.1512 
 174   0.0000       1.881080        51.1868 
 175   0.0000       1.884364        51.2761 
 176   0.0000       1.901470        51.7416 
 177   0.0000       1.921913        52.2979 
 178   0.0000       1.935216        52.6599 
 179   0.0000       1.952873        53.1404 
 180   0.0000       1.959396        53.3179 
 181   0.0000       1.975654        53.7603 
 182   0.0000       1.980384        53.8890 
 183   0.0000       1.986398        54.0526 
 184   0.0000       2.012525        54.7636 
 185   0.0000       2.030762        55.2598 
 186   0.0000       2.039040        55.4851 
 187   0.0000       2.052436        55.8496 
 188   0.0000       2.102235        57.2047 
 189   0.0000       2.108985        57.3884 
 190   0.0000       2.113608        57.5142 
 191   0.0000       2.160473        58.7895 
 192   0.0000       2.177774        59.2602 
 193   0.0000       2.192038        59.6484 
 194   0.0000       2.202281        59.9271 
 195   0.0000       2.212651        60.2093 
 196   0.0000       2.256760        61.4096 
 197   0.0000       2.275758        61.9265 
 198   0.0000       2.357191        64.1424 
 199   0.0000       2.380809        64.7851 
 200   0.0000       2.401886        65.3586 
 201   0.0000       2.424056        65.9619 
 202   0.0000       2.464206        67.0544 
 203   0.0000       2.479110        67.4600 
 204   0.0000       2.497027        67.9476 
 205   0.0000       2.511720        68.3474 
 206   0.0000       2.579934        70.2036 
 207   0.0000       2.591335        70.5138 
 208   0.0000       2.592330        70.5409 
 209   0.0000       2.614902        71.1551 
 210   0.0000       2.660210        72.3880 
 211   0.0000       2.713768        73.8454 
 212   0.0000       2.720619        74.0318 
 213   0.0000       2.758158        75.0533 
 214   0.0000       2.780548        75.6626 
 215   0.0000       2.790937        75.9452 
 216   0.0000       2.814697        76.5918 
 217   0.0000       2.864918        77.9584 
 218   0.0000       2.882927        78.4484 
 219   0.0000       2.902312        78.9759 
 220   0.0000       2.948481        80.2322 
 221   0.0000       2.961462        80.5855 
 222   0.0000       2.982789        81.1658 
 223   0.0000       2.983753        81.1921 
 224   0.0000       3.039076        82.6975 
 225   0.0000       3.051667        83.0401 
 226   0.0000       3.055641        83.1482 
 227   0.0000       3.075440        83.6870 
 228   0.0000       3.080710        83.8304 
 229   0.0000       3.106721        84.5382 
 230   0.0000       3.114538        84.7509 
 231   0.0000       3.134352        85.2901 
 232   0.0000       3.158485        85.9468 
 233   0.0000       3.175791        86.4177 
 234   0.0000       3.188232        86.7562 
 235   0.0000       3.191576        86.8472 
 236   0.0000       3.204793        87.2069 
 237   0.0000       3.217742        87.5592 
 238   0.0000       3.259941        88.7075 
 239   0.0000       3.267735        88.9196 
 240   0.0000       3.282610        89.3244 
 241   0.0000       3.285526        89.4037 
 242   0.0000       3.292150        89.5840 
 243   0.0000       3.313527        90.1657 
 244   0.0000       3.352601        91.2289 
 245   0.0000       3.359857        91.4264 
 246   0.0000       3.369434        91.6870 
 247   0.0000       3.396214        92.4157 
 248   0.0000       3.399827        92.5140 
 249   0.0000       3.424649        93.1894 
 250   0.0000       3.471371        94.4608 
 251   0.0000       3.475253        94.5665 
 252   0.0000       3.485692        94.8505 
 253   0.0000       3.496576        95.1467 
 254   0.0000       3.499287        95.2204 
 255   0.0000       3.537395        96.2574 
 256   0.0000       3.542585        96.3986 
 257   0.0000       3.548017        96.5465 
 258   0.0000       3.569993        97.1444 
 259   0.0000       3.575535        97.2953 
 260   0.0000       3.587103        97.6100 
 261   0.0000       3.641476        99.0896 
 262   0.0000       3.652081        99.3782 
 263   0.0000       3.677710       100.0756 
 264   0.0000       3.680482       100.1510 
 265   0.0000       3.691066       100.4390 
 266   0.0000       3.706139       100.8492 
 267   0.0000       3.722638       101.2981 
 268   0.0000       3.762382       102.3796 
 269   0.0000       3.763113       102.3995 
 270   0.0000       3.781070       102.8882 
 271   0.0000       3.798551       103.3638 
 272   0.0000       3.802330       103.4667 
 273   0.0000       3.837776       104.4312 
 274   0.0000       3.853097       104.8481 
 275   0.0000       3.867925       105.2516 
 276   0.0000       3.915406       106.5436 
 277   0.0000       3.931816       106.9902 
 278   0.0000       3.950580       107.5007 
 279   0.0000       3.991110       108.6036 
 280   0.0000       3.994088       108.6847 
 281   0.0000       4.012221       109.1781 
 282   0.0000       4.023953       109.4973 
 283   0.0000       4.039353       109.9164 
 284   0.0000       4.077587       110.9568 
 285   0.0000       4.084245       111.1379 
 286   0.0000       4.091538       111.3364 
 287   0.0000       4.096298       111.4659 
 288   0.0000       4.108658       111.8023 
 289   0.0000       4.135890       112.5433 
 290   0.0000       4.149116       112.9032 
 291   0.0000       4.196962       114.2051 
 292   0.0000       4.207782       114.4996 
 293   0.0000       4.211641       114.6046 
 294   0.0000       4.217979       114.7770 
 295   0.0000       4.238516       115.3359 
 296   0.0000       4.251609       115.6922 
 297   0.0000       4.277257       116.3901 
 298   0.0000       4.280137       116.4685 
 299   0.0000       4.310485       117.2943 
 300   0.0000       4.318972       117.5252 
 301   0.0000       4.338556       118.0581 
 302   0.0000       4.376468       119.0897 
 303   0.0000       4.430706       120.5656 
 304   0.0000       4.431130       120.5772 
 305   0.0000       4.446492       120.9952 
 306   0.0000       4.479101       121.8825 
 307   0.0000       4.481639       121.9516 
 308   0.0000       4.530260       123.2746 
 309   0.0000       4.536104       123.4337 
 310   0.0000       4.555838       123.9707 
 311   0.0000       4.589729       124.8929 
 312   0.0000       4.596879       125.0874 
 313   0.0000       4.624738       125.8455 
 314   0.0000       4.635984       126.1515 
 315   0.0000       4.698952       127.8650 
 316   0.0000       4.718645       128.4008 
 317   0.0000       4.760784       129.5475 
 318   0.0000       4.773638       129.8973 
 319   0.0000       4.796094       130.5083 
 320   0.0000       4.845946       131.8649 
 321   0.0000       4.887245       132.9887 
 322   0.0000       4.908817       133.5757 
 323   0.0000       4.954204       134.8107 
 324   0.0000       4.960708       134.9877 
 325   0.0000       4.969110       135.2164 
 326   0.0000       5.009388       136.3124 
 327   0.0000       5.027975       136.8182 
 328   0.0000       5.036456       137.0489 
 329   0.0000       5.053517       137.5132 
 330   0.0000       5.059090       137.6648 
 331   0.0000       5.120980       139.3490 
 332   0.0000       5.146603       140.0462 
 333   0.0000       5.163337       140.5016 
 334   0.0000       5.187316       141.1540 
 335   0.0000       5.236188       142.4839 
 336   0.0000       5.237886       142.5301 
 337   0.0000       5.277046       143.5957 
 338   0.0000       5.295421       144.0957 
 339   0.0000       5.324382       144.8838 
 340   0.0000       5.342262       145.3703 
 341   0.0000       5.348826       145.5489 
 342   0.0000       5.399733       146.9342 
 343   0.0000       5.414053       147.3239 
 344   0.0000       5.425246       147.6284 
 345   0.0000       5.449687       148.2935 
 346   0.0000       5.459081       148.5492 
 347   0.0000       5.462432       148.6403 
 348   0.0000       5.505180       149.8036 
 349   0.0000       5.533324       150.5694 
 350   0.0000       5.579768       151.8332 
 351   0.0000       5.610508       152.6697 
 352   0.0000       5.618358       152.8833 
 353   0.0000       5.642822       153.5490 
 354   0.0000       5.665022       154.1531 
 355   0.0000       5.681216       154.5938 
 356   0.0000       5.721110       155.6793 
 357   0.0000       5.724613       155.7746 
 358   0.0000       5.781454       157.3213 
 359   0.0000       5.862632       159.5303 
 360   0.0000       5.910478       160.8323 
 361   0.0000       5.949724       161.9002 
 362   0.0000       5.956335       162.0801 
 363   0.0000       6.044668       164.4838 
 364   0.0000       6.101336       166.0258 
 365   0.0000       6.127381       166.7345 
 366   0.0000       6.278528       170.8474 
 367   0.0000       6.369156       173.3136 
 368   0.0000       6.439009       175.2143 
 369   0.0000       6.503856       176.9789 
 370   0.0000       6.643093       180.7678 
 371   0.0000       7.075867       192.5441 
 372   0.0000       7.264764       197.6843 
 373   0.0000       8.054969       219.1869 
 374   0.0000      23.221730       631.8954 
 375   0.0000      23.487137       639.1175 
 376   0.0000      23.673703       644.1942 
 377   0.0000      23.738339       645.9531 
 378   0.0000      24.135198       656.7521 
 379   0.0000      24.241275       659.6386 
 380   0.0000      32.682613       889.3391 
 381   0.0000      32.904371       895.3735 
 382   0.0000      33.675922       916.3684 

                    ********************************
                    * MULLIKEN POPULATION ANALYSIS *
                    ********************************

--------------------------------------------
MULLIKEN ATOMIC CHARGES AND SPIN POPULATIONS
--------------------------------------------
   0 Br:   -0.183880    0.008962
   1 C :    0.018935    0.171410
   2 C :   -0.163336   -0.026620
   3 C :   -0.194559    0.405405
   4 N :   -0.060262    0.061795
   5 C :   -0.059367   -0.034278
   6 N :   -0.213553    0.061158
   7 N :   -0.158486    0.047471
   8 C :    0.103783   -0.038669
   9 C :   -0.385067    0.372734
  10 H :    0.072436    0.000099
  11 H :    0.065119   -0.016081
  12 H :    0.095615    0.001159
  13 H :    0.062623   -0.014545
Sum of atomic charges         :   -1.0000000
Sum of atomic spin populations:    1.0000000

-----------------------------------------------------
MULLIKEN REDUCED ORBITAL CHARGES AND SPIN POPULATIONS
-----------------------------------------------------
CHARGE
  0 Brs       :     7.852535  s :     7.852535
      pz      :     5.969396  p :    17.261644
      px      :     5.308025
      py      :     5.984223
      dz2     :     2.005953  d :    10.062073
      dxz     :     2.026856
      dyz     :     2.003844
      dx2y2   :     2.016780
      dxy     :     2.008640
      f0      :     0.000990  f :     0.007629
      f+1     :     0.001335
      f-1     :     0.000126
      f+2     :     0.001287
      f-2     :     0.000317
      f+3     :     0.002128
      f-3     :     0.001445
  1 C s       :     3.230370  s :     3.230370
      pz      :     1.099336  p :     2.575500
      px      :     0.699685
      py      :     0.776480
      dz2     :     0.007305  d :     0.165672
      dxz     :     0.023445
      dyz     :     0.039692
      dx2y2   :     0.054000
      dxy     :     0.041231
      f0      :     0.001958  f :     0.009523
      f+1     :     0.000990
      f-1     :     0.000733
      f+2     :     0.000601
      f-2     :     0.001191
      f+3     :     0.001635
      f-3     :     0.002415
  2 C s       :     3.182176  s :     3.182176
      pz      :     1.048751  p :     2.873663
      px      :     0.938739
      py      :     0.886173
      dz2     :     0.006003  d :     0.099717
      dxz     :     0.027888
      dyz     :     0.020968
      dx2y2   :     0.011429
      dxy     :     0.033429
      f0      :     0.001588  f :     0.007780
      f+1     :     0.000647
      f-1     :     0.000717
      f+2     :     0.001532
      f-2     :     0.000235
      f+3     :     0.001248
      f-3     :     0.001813
  3 C s       :     3.149048  s :     3.149048
      pz      :     1.256882  p :     2.933810
      px      :     0.822705
      py      :     0.854223
      dz2     :     0.003440  d :     0.101197
      dxz     :     0.026492
      dyz     :     0.013525
      dx2y2   :     0.020527
      dxy     :     0.037213
      f0      :     0.002011  f :     0.010504
      f+1     :     0.000873
      f-1     :     0.001024
      f+2     :     0.000638
      f-2     :     0.001423
      f+3     :     0.001877
      f-3     :     0.002658
  4 N s       :     3.458059  s :     3.458059
      pz      :     1.408302  p :     3.498337
      px      :     1.031284
      py      :     1.058750
      dz2     :     0.006293  d :     0.098005
      dxz     :     0.021679
      dyz     :     0.017742
      dx2y2   :     0.027014
      dxy     :     0.025276
      f0      :     0.000982  f :     0.005862
      f+1     :     0.000681
      f-1     :     0.000681
      f+2     :     0.000671
      f-2     :     0.000482
      f+3     :     0.000925
      f-3     :     0.001440
  5 C s       :     3.134360  s :     3.134360
      pz      :     1.075257  p :     2.772270
      px      :     0.764236
      py      :     0.932777
      dz2     :     0.002130  d :     0.137452
      dxz     :     0.031553
      dyz     :     0.021968
      dx2y2   :     0.032439
      dxy     :     0.049362
      f0      :     0.002247  f :     0.015285
      f+1     :     0.001240
      f-1     :     0.001168
      f+2     :     0.002925
      f-2     :     0.000279
      f+3     :     0.003374
      f-3     :     0.004052
  6 N s       :     3.565990  s :     3.565990
      pz      :     1.165527  p :     3.560602
      px      :     1.357356
      py      :     1.037718
      dz2     :     0.006924  d :     0.081267
      dxz     :     0.013570
      dyz     :     0.019864
      dx2y2   :     0.022542
      dxy     :     0.018367
      f0      :     0.000781  f :     0.005694
      f+1     :     0.000544
      f-1     :     0.000475
      f+2     :     0.000592
      f-2     :     0.000728
      f+3     :     0.001415
      f-3     :     0.001160
  7 N s       :     3.461604  s :     3.461604
      pz      :     1.258752  p :     3.616037
      px      :     0.888382
      py      :     1.468903
      dz2     :     0.007131  d :     0.075390
      dxz     :     0.014370
      dyz     :     0.012287
      dx2y2   :     0.015868
      dxy     :     0.025734
      f0      :     0.000770  f :     0.005455
      f+1     :     0.000628
      f-1     :     0.000450
      f+2     :     0.000120
      f-2     :     0.000927
      f+3     :     0.001341
      f-3     :     0.001219
  8 C s       :     3.077137  s :     3.077137
      pz      :     0.915003  p :     2.627447
      px      :     0.933418
      py      :     0.779026
      dz2     :     0.003535  d :     0.173409
      dxz     :     0.053771
      dyz     :     0.033312
      dx2y2   :     0.047817
      dxy     :     0.034974
      f0      :     0.002787  f :     0.018224
      f+1     :     0.001307
      f-1     :     0.001326
      f+2     :     0.001944
      f-2     :     0.001998
      f+3     :     0.005062
      f-3     :     0.003799
  9 C s       :     3.288617  s :     3.288617
      pz      :     1.246457  p :     3.014589
      px      :     0.889654
      py      :     0.878478
      dz2     :     0.005527  d :     0.074488
      dxz     :     0.016726
      dyz     :     0.013681
      dx2y2   :     0.020520
      dxy     :     0.018034
      f0      :     0.001623  f :     0.007373
      f+1     :     0.000775
      f-1     :     0.000723
      f+2     :     0.000531
      f-2     :     0.000742
      f+3     :     0.001223
      f-3     :     0.001756
 10 H s       :     0.891741  s :     0.891741
      pz      :     0.013979  p :     0.033329
      px      :     0.009009
      py      :     0.010341
      dz2     :     0.000134  d :     0.002494
      dxz     :     0.000379
      dyz     :     0.000506
      dx2y2   :     0.000990
      dxy     :     0.000485
 11 H s       :     0.894881  s :     0.894881
      pz      :     0.020250  p :     0.037433
      px      :     0.005664
      py      :     0.011519
      dz2     :     0.000184  d :     0.002568
      dxz     :     0.000252
      dyz     :     0.000867
      dx2y2   :     0.000690
      dxy     :     0.000575
 12 H s       :     0.873855  s :     0.873855
      pz      :     0.012497  p :     0.028277
      px      :     0.007641
      py      :     0.008139
      dz2     :     0.000179  d :     0.002253
      dxz     :     0.000259
[...]
   5 C :   -0.256665   -0.008285
   6 N :   -0.011653    0.051070
   7 N :   -0.025042    0.040391
   8 C :   -0.284579    0.027206
   9 C :   -0.166691    0.247503
  10 H :   -0.001033   -0.000406
  11 H :   -0.023785    0.031139
  12 H :   -0.016966   -0.002357
  13 H :   -0.009996    0.026148

----------------------------------------------------
LOEWDIN REDUCED ORBITAL CHARGES AND SPIN POPULATIONS
----------------------------------------------------
CHARGE
  0 Brs       :     7.558302  s :     7.558302
      pz      :     5.897730  p :    17.038447
      px      :     5.273175
      py      :     5.867542
      dz2     :     2.014123  d :    10.143166
      dxz     :     2.055286
      dyz     :     2.006113
      dx2y2   :     2.038327
      dxy     :     2.029317
      f0      :     0.001993  f :     0.015841
      f+1     :     0.002418
      f-1     :     0.000270
      f+2     :     0.002839
      f-2     :     0.000546
      f+3     :     0.004144
      f-3     :     0.003632
  1 C s       :     2.773112  s :     2.773112
      pz      :     1.006440  p :     3.020401
      px      :     0.938670
      py      :     1.075291
      dz2     :     0.036895  d :     0.583366
      dxz     :     0.076677
      dyz     :     0.118108
      dx2y2   :     0.205564
      dxy     :     0.146121
      f0      :     0.004956  f :     0.056128
      f+1     :     0.004427
      f-1     :     0.004318
      f+2     :     0.004287
      f-2     :     0.009164
      f+3     :     0.011620
      f-3     :     0.017356
  2 C s       :     2.722230  s :     2.722230
      pz      :     0.917875  p :     2.930921
      px      :     1.033897
      py      :     0.979149
      dz2     :     0.026042  d :     0.434833
      dxz     :     0.094632
      dyz     :     0.060355
      dx2y2   :     0.103317
      dxy     :     0.150488
      f0      :     0.003019  f :     0.045821
      f+1     :     0.004058
      f-1     :     0.003551
      f+2     :     0.011231
      f-2     :     0.002043
      f+3     :     0.009768
      f-3     :     0.012151
  3 C s       :     2.710338  s :     2.710338
      pz      :     1.060012  p :     2.945236
      px      :     0.981513
      py      :     0.903711
      dz2     :     0.029692  d :     0.465622
      dxz     :     0.090479
      dyz     :     0.047040
      dx2y2   :     0.129017
      dxy     :     0.169394
      f0      :     0.007045  f :     0.063953
      f+1     :     0.005298
      f-1     :     0.004912
      f+2     :     0.005023
      f-2     :     0.009790
      f+3     :     0.014416
      f-3     :     0.017469
  4 N s       :     2.836878  s :     2.836878
      pz      :     1.231543  p :     3.493792
      px      :     1.129278
      py      :     1.132971
      dz2     :     0.019300  d :     0.339829
      dxz     :     0.063956
      dyz     :     0.051434
      dx2y2   :     0.111476
      dxy     :     0.093663
      f0      :     0.001995  f :     0.025375
      f+1     :     0.001864
      f-1     :     0.001803
      f+2     :     0.004191
      f-2     :     0.002944
      f+3     :     0.003651
      f-3     :     0.008927
  5 C s       :     2.745332  s :     2.745332
      pz      :     0.960590  p :     2.849467
      px      :     0.878633
      py      :     1.010244
      dz2     :     0.041635  d :     0.570756
      dxz     :     0.096569
      dyz     :     0.063401
      dx2y2   :     0.158850
      dxy     :     0.210302
      f0      :     0.004912  f :     0.091109
      f+1     :     0.006270
      f-1     :     0.006224
      f+2     :     0.020811
      f-2     :     0.002613
      f+3     :     0.023066
      f-3     :     0.027213
  6 N s       :     3.110198  s :     3.110198
      pz      :     1.084083  p :     3.599218
      px      :     1.335688
      py      :     1.179447
      dz2     :     0.022525  d :     0.273697
      dxz     :     0.024959
      dyz     :     0.059981
      dx2y2   :     0.082942
      dxy     :     0.083290
      f0      :     0.001539  f :     0.028540
      f+1     :     0.001487
      f-1     :     0.002348
      f+2     :     0.002616
      f-2     :     0.004084
      f+3     :     0.009657
      f-3     :     0.006809
  7 N s       :     3.106056  s :     3.106056
      pz      :     1.167922  p :     3.637486
      px      :     1.054189
      py      :     1.415375
      dz2     :     0.023118  d :     0.253449
      dxz     :     0.049954
      dyz     :     0.015658
      dx2y2   :     0.077872
      dxy     :     0.086847
      f0      :     0.001570  f :     0.028051
      f+1     :     0.002774
      f-1     :     0.001201
      f+2     :     0.000232
      f-2     :     0.005352
      f+3     :     0.009779
      f-3     :     0.007142
  8 C s       :     2.712139  s :     2.712139
      pz      :     0.856395  p :     2.743581
      px      :     1.009388
      py      :     0.877798
      dz2     :     0.050261  d :     0.725914
      dxz     :     0.146242
      dyz     :     0.107599
      dx2y2   :     0.215697
      dxy     :     0.206116
      f0      :     0.006006  f :     0.102945
      f+1     :     0.006406
      f-1     :     0.006973
      f+2     :     0.012600
      f-2     :     0.015269
      f+3     :     0.031301
      f-3     :     0.024391
  9 C s       :     2.713971  s :     2.713971
      pz      :     1.035094  p :     3.020666
      px      :     0.990396
      py      :     0.995176
      dz2     :     0.026538  d :     0.386045
      dxz     :     0.067190
      dyz     :     0.042242
      dx2y2   :     0.140734
      dxy     :     0.109341
      f0      :     0.005087  f :     0.046009
      f+1     :     0.004454
      f-1     :     0.003733
      f+2     :     0.003949
      f-2     :     0.006531
      f+3     :     0.009852
      f-3     :     0.012403
 10 H s       :     0.818437  s :     0.818437
      pz      :     0.049992  p :     0.152547
      px      :     0.048579
      py      :     0.053976
      dz2     :     0.002660  d :     0.030048
      dxz     :     0.004040
      dyz     :     0.005408
      dx2y2   :     0.009529
      dxy     :     0.008411
 11 H s       :     0.826409  s :     0.826409
      pz      :     0.070658  p :     0.166603
      px      :     0.035361
      py      :     0.060585
      dz2     :     0.002731  d :     0.030773
      dxz     :     0.002072
      dyz     :     0.009511
      dx2y2   :     0.008368
      dxy     :     0.008091
 12 H s       :     0.837564  s :     0.837564
      pz      :     0.051356  p :     0.149520
      px      :     0.043511
      py      :     0.054652
      dz2     :     0.002898  d :     0.029883
      dxz     :     0.003677
      dyz     :     0.006626
      dx2y2   :     0.007694
      dxy     :     0.008987
 13 H s       :     0.814421  s :     0.814421
      pz      :     0.065782  p :     0.164684
      px      :     0.034761
      py      :     0.064141
      dz2     :     0.002646  d :     0.030890
      dxz     :     0.001078
      dyz     :     0.010006
      dx2y2   :     0.008518
      dxy     :     0.008643

SPIN
  0 Brs       :     0.000105  s :     0.000105
      pz      :     0.008798  p :     0.001117
      px      :    -0.007184
      py      :    -0.000496
      dz2     :     0.000156  d :     0.019848
      dxz     :     0.014206
      dyz     :     0.005049
      dx2y2   :     0.000443
      dxy     :    -0.000007
      f0      :     0.000403  f :     0.001357
      f+1     :     0.000009
      f-1     :    -0.000002
      f+2     :     0.000497
      f-2     :     0.000374
      f+3     :     0.000050
      f-3     :     0.000027
  1 C s       :     0.002224  s :     0.002224
      pz      :     0.109784  p :     0.114894
      px      :     0.004367
      py      :     0.000743
      dz2     :    -0.000227  d :     0.043491
      dxz     :     0.009759
      dyz     :     0.033455
      dx2y2   :     0.000353
      dxy     :     0.000151
      f0      :     0.001047  f :     0.003254
      f+1     :    -0.000065
      f-1     :    -0.000084
      f+2     :    -0.000183
      f-2     :     0.002481
      f+3     :    -0.000014
      f-3     :     0.000072
  2 C s       :    -0.001371  s :    -0.001371
      pz      :    -0.009667  p :    -0.015037
      px      :    -0.002871
      py      :    -0.002499
      dz2     :     0.000094  d :     0.065763
      dxz     :     0.048477
      dyz     :     0.015372
      dx2y2   :     0.000767
      dxy     :     0.001052
      f0      :     0.000709  f :     0.005151
      f+1     :     0.000001
      f-1     :     0.000026
      f+2     :     0.003909
      f-2     :     0.000252
      f+3     :     0.000113
      f-3     :     0.000142
  3 C s       :     0.004754  s :     0.004754
      pz      :     0.252821  p :     0.260879
      px      :     0.004402
      py      :     0.003656
      dz2     :    -0.000644  d :     0.005254
      dxz     :    -0.004086
      dyz     :     0.011265
      dx2y2   :    -0.000485
      dxy     :    -0.000795
      f0      :     0.002543  f :     0.002032
      f+1     :    -0.000187
      f-1     :    -0.000192
      f+2     :    -0.000220
      f-2     :     0.000274
      f+3     :    -0.000128
      f-3     :    -0.000058
  4 N s       :     0.000842  s :     0.000842
      pz      :     0.057851  p :     0.058081
      px      :     0.000701
      py      :    -0.000472
      dz2     :    -0.000017  d :     0.013804
      dxz     :     0.004247
      dyz     :     0.009277
      dx2y2   :     0.000057
      dxy     :     0.000241
      f0      :     0.000630  f :     0.001151
      f+1     :    -0.000025
      f-1     :    -0.000024
      f+2     :    -0.000107
      f-2     :     0.000681
      f+3     :    -0.000010
      f-3     :     0.000006
  5 C s       :    -0.000951  s :    -0.000951
      pz      :    -0.021204  p :    -0.024436
      px      :    -0.002036
      py      :    -0.001196
      dz2     :     0.000056  d :     0.014425
      dxz     :     0.012139
      dyz     :     0.002001
      dx2y2   :     0.000320
      dxy     :    -0.000091
      f0      :     0.000105  f :     0.002677
      f+1     :     0.000024
      f-1     :     0.000023
      f+2     :     0.002177
      f-2     :     0.000268
      f+3     :     0.000109
      f-3     :    -0.000030
  6 N s       :     0.000903  s :     0.000903
      pz      :     0.047741  p :     0.048156
      px      :    -0.000465
      py      :     0.000879
      dz2     :     0.000063  d :     0.001922
      dxz     :     0.002804
      dyz     :    -0.000750
      dx2y2   :    -0.000085
      dxy     :    -0.000110
      f0      :     0.000102  f :     0.000090
      f+1     :    -0.000010
      f-1     :    -0.000022
      f+2     :    -0.000040
      f-2     :     0.000077
      f+3     :    -0.000008
      f-3     :    -0.000009
  7 N s       :     0.000696  s :     0.000696
      pz      :     0.039277  p :     0.039439
      px      :     0.000287
      py      :    -0.000126
      dz2     :     0.000034  d :     0.000045
      dxz     :     0.000310
      dyz     :     0.000024
      dx2y2   :    -0.000222
      dxy     :    -0.000102
      f0      :     0.000070  f :     0.000211
      f+1     :    -0.000019
      f-1     :    -0.000009
      f+2     :     0.000075
      f-2     :     0.000140
      f+3     :    -0.000035
      f-3     :    -0.000011
  8 C s       :    -0.001863  s :    -0.001863
      pz      :    -0.017945  p :    -0.023427
      px      :    -0.003196
      py      :    -0.002285
      dz2     :     0.000088  d :     0.048797
      dxz     :     0.041321
      dyz     :     0.006097
      dx2y2   :     0.000668
      dxy     :     0.000621
      f0      :     0.000327  f :     0.003699
      f+1     :     0.000015
      f-1     :     0.000028
      f+2     :     0.002412
      f-2     :     0.000765
      f+3     :     0.000081
      f-3     :     0.000071
  9 C s       :     0.003802  s :     0.003802
      pz      :     0.218947  p :     0.226199
      px      :     0.003881
      py      :     0.003371
      dz2     :    -0.000649  d :     0.014970
      dxz     :     0.001600
      dyz     :     0.014808
      dx2y2   :    -0.000201
      dxy     :    -0.000588
      f0      :     0.001748  f :     0.002533
      f+1     :    -0.000162
      f-1     :    -0.000160
      f+2     :    -0.000017
      f-2     :     0.001239
      f+3     :    -0.000098
      f-3     :    -0.000017
 10 H s       :    -0.000122  s :    -0.000122
      pz      :     0.000385  p :    -0.000165
      px      :    -0.000392
      py      :    -0.000157
      dz2     :    -0.000003  d :    -0.000119
      dxz     :    -0.000319
      dyz     :     0.000309
      dx2y2   :    -0.000091
      dxy     :    -0.000015
 11 H s       :    -0.006474  s :    -0.006474
      pz      :     0.031455  p :     0.033274
      px      :     0.000458
      py      :     0.001361
      dz2     :    -0.000014  d :     0.004339
      dxz     :     0.000627
      dyz     :     0.003384
      dx2y2   :     0.000170
      dxy     :     0.000172
 12 H s       :     0.000374  s :     0.000374
      pz      :    -0.001998  p :    -0.002311
      px      :    -0.000163
      py      :    -0.000150
      dz2     :    -0.000001  d :    -0.000420
      dxz     :    -0.000136
      dyz     :    -0.000222
      dx2y2   :    -0.000042
      dxy     :    -0.000020
 13 H s       :    -0.005728  s :    -0.005728
      pz      :     0.026533  p :     0.028115
      px      :     0.000377
      py      :     0.001204
      dz2     :    -0.000011  d :     0.003761
      dxz     :     0.000453
      dyz     :     0.003013
      dx2y2   :     0.000145
      dxy     :     0.000161


                      *****************************
                      * MAYER POPULATION ANALYSIS *
                      *****************************

  NA   - Mulliken gross atomic population
  ZA   - Total nuclear charge
  QA   - Mulliken gross atomic charge
  VA   - Mayer's total valence
  BVA  - Mayer's bonded valence
  FA   - Mayer's free valence

  ATOM       NA         ZA         QA         VA         BVA        FA
  0 Br    35.1839    35.0000    -0.1839     1.1149     1.1141     0.0008
  1 C      5.9811     6.0000     0.0189     3.7068     3.6740     0.0328
  2 C      6.1633     6.0000    -0.1633     3.9194     3.9132     0.0062
  3 C      6.1946     6.0000    -0.1946     3.7806     3.6392     0.1414
  4 N      7.0603     7.0000    -0.0603     3.3166     3.3116     0.0050
  5 C      6.0594     6.0000    -0.0594     4.1225     4.1214     0.0011
  6 N      7.2136     7.0000    -0.2136     3.0488     3.0452     0.0036
  7 N      7.1585     7.0000    -0.1585     3.1409     3.1387     0.0022
  8 C      5.8962     6.0000     0.1038     4.2596     4.2583     0.0013
  9 C      6.3851     6.0000    -0.3851     3.8439     3.7256     0.1183
 10 H      0.9276     1.0000     0.0724     1.0136     1.0136     0.0000
 11 H      0.9349     1.0000     0.0651     1.0179     1.0171     0.0008
 12 H      0.9044     1.0000     0.0956     1.0126     1.0126     0.0000
 13 H      0.9374     1.0000     0.0626     1.0362     1.0357     0.0005

  Mayer bond orders larger than 0.100000
B(  0-Br,  1-C ) :   0.9671 B(  1-C ,  2-C ) :   1.3477 B(  1-C ,  9-C ) :   1.2879 
B(  2-C ,  3-C ) :   1.4721 B(  2-C , 10-H ) :   0.9771 B(  3-C ,  4-N ) :   0.9920 
B(  3-C , 11-H ) :   0.9948 B(  4-N ,  5-C ) :   1.1966 B(  4-N ,  8-C ) :   1.1125 
B(  5-C ,  6-N ) :   1.8235 B(  5-C , 12-H ) :   0.9749 B(  6-N ,  7-N ) :   1.1344 
B(  7-N ,  8-C ) :   1.8620 B(  8-C ,  9-C ) :   1.1945 B(  9-C , 13-H ) :   1.0092 



------------------
HIRSHFELD ANALYSIS
------------------

Total integrated alpha density =     49.000032703
Total integrated beta density  =     47.999989279

  ATOM     CHARGE      SPIN    
   0 Br  -0.193456    0.033539
   1 C   -0.048565    0.154727
   2 C   -0.107629    0.044369
   3 C   -0.090850    0.266357
   4 N   -0.043207    0.081802
   5 C    0.012993   -0.008979
   6 N   -0.237960    0.053394
   7 N   -0.254978    0.043131
   8 C    0.076561    0.020885
   9 C   -0.155626    0.248788
  10 H    0.010357    0.003062
  11 H   -0.002499    0.032254
  12 H    0.032512   -0.001182
  13 H    0.002323    0.027897

  TOTAL  -1.000022    1.000043

-------
TIMINGS
-------

Total SCF time: 0 days 0 hours 1 min 20 sec 

Total time                  ....      80.153 sec
Sum of individual times     ....      78.711 sec  ( 98.2%)

Fock matrix formation       ....      73.225 sec  ( 91.4%)
  Split-RI-J                ....       3.677 sec  (  5.0% of F)
  Chain of spheres X        ....      52.935 sec  ( 72.3% of F)
  XC integration            ....      16.387 sec  ( 22.4% of F)
    Basis function eval.    ....       1.005 sec  (  6.1% of XC)
    Density eval.           ....       4.616 sec  ( 28.2% of XC)
    XC-Functional eval.     ....       0.407 sec  (  2.5% of XC)
    XC-Potential eval.      ....       6.395 sec  ( 39.0% of XC)
Diagonalization             ....       1.616 sec  (  2.0%)
Density matrix formation    ....       0.069 sec  (  0.1%)
Population analysis         ....       1.345 sec  (  1.7%)
Initial guess               ....       0.245 sec  (  0.3%)
Orbital Transformation      ....       0.000 sec  (  0.0%)
Orbital Orthonormalization  ....       0.000 sec  (  0.0%)
DIIS solution               ....       0.765 sec  (  1.0%)
Grid generation             ....       1.446 sec  (  1.8%)

Maximum memory used throughout the entire SCF-calculation: 91.4 MB

-------------------------   --------------------
FINAL SINGLE POINT ENERGY     -2969.307335671566
-------------------------   --------------------


                            ***************************************
                            *     ORCA property calculations      *
                            ***************************************

                                    ---------------------
                                    Active property flags
                                    ---------------------
   (+) Dipole Moment


------------------------------------------------------------------------------
                       ORCA ELECTRIC PROPERTIES CALCULATION
------------------------------------------------------------------------------

Dipole Moment Calculation                       ... on
Quadrupole Moment Calculation                   ... off
Polarizability Calculation                      ... off
GBWName                                         ... arbr_24_r2scan3c_wB97MV_red.gbw
Electron density                                ... arbr_24_r2scan3c_wB97MV_red.scfp
The origin for moment calculation is the CENTER OF MASS  = ( 0.285157, -0.058238  0.000001)

-------------
DIPOLE MOMENT
-------------
                                X             Y             Z
Electronic contribution:     29.44246      -4.17873       0.00000
Nuclear contribution   :    -27.37487       5.59077      -0.00006
                        -----------------------------------------
Total Dipole Moment    :      2.06759       1.41203      -0.00006
                        -----------------------------------------
Magnitude (a.u.)       :      2.50375
Magnitude (Debye)      :      6.36403



--------------------
Rotational spectrum 
--------------------
 
Rotational constants in cm-1:     0.116740     0.015828     0.013938 
Rotational constants in MHz :  3499.776644   474.508313   417.854565 

 Dipole components along the rotational axes: 
x,y,z [a.u.] :    -2.073713     1.403024    -0.000055 
x,y,z [Debye]:    -5.270959     3.566204    -0.000140 

 

Timings for individual modules:

Sum of individual times         ...       81.455 sec (=   1.358 min)
GTO integral calculation        ...        0.935 sec (=   0.016 min)   1.1 %
SCF iterations                  ...       80.520 sec (=   1.342 min)  98.9 %
                             ****ORCA TERMINATED NORMALLY****
TOTAL RUN TIME: 0 days 0 hours 1 minutes 22 seconds 208 msec
