Job Start Time: Mon Jan 29 12:53:56 MST 2024
SLURM Job ID: 229736
SLURM Job Name: Ac7_rdkit_conf_3_SP_IE
 Entering Gaussian System, Link 0=/opt/apps/Gaussian/G16C/g16/g16
 Initial command:
 /opt/apps/Gaussian/G16C/g16/l1.exe "/tmp/Gau-62391.inp" -scrdir="/tmp/"
 Entering Link 1 = /opt/apps/Gaussian/G16C/g16/l1.exe PID=     62399.
  
 Copyright (c) 1988-2019, Gaussian, Inc.  All Rights Reserved.
  
 This is part of the Gaussian(R) 16 program.  It is based on
 the Gaussian(R) 09 system (copyright 2009, Gaussian, Inc.),
 the Gaussian(R) 03 system (copyright 2003, Gaussian, Inc.),
 the Gaussian(R) 98 system (copyright 1998, Gaussian, Inc.),
 the Gaussian(R) 94 system (copyright 1995, Gaussian, Inc.),
 the Gaussian 92(TM) system (copyright 1992, Gaussian, Inc.),
 the Gaussian 90(TM) system (copyright 1990, Gaussian, Inc.),
 the Gaussian 88(TM) system (copyright 1988, Gaussian, Inc.),
 the Gaussian 86(TM) system (copyright 1986, Carnegie Mellon
 University), and the Gaussian 82(TM) system (copyright 1983,
 Carnegie Mellon University). Gaussian is a federally registered
 trademark of Gaussian, Inc.
  
 This software contains proprietary and confidential information,
 including trade secrets, belonging to Gaussian, Inc.
  
 This software is provided under written license and may be
 used, copied, transmitted, or stored only in accord with that
 written license.
  
 The following legend is applicable only to US Government
 contracts under FAR:
  
                    RESTRICTED RIGHTS LEGEND
  
 Use, reproduction and disclosure by the US Government is
 subject to restrictions as set forth in subparagraphs (a)
 and (c) of the Commercial Computer Software - Restricted
 Rights clause in FAR 52.227-19.
  
 Gaussian, Inc.
 340 Quinnipiac St., Bldg. 40, Wallingford CT 06492
  
  
 ---------------------------------------------------------------
 Warning -- This program may not be used in any manner that
 competes with the business of Gaussian, Inc. or will provide
 assistance to any competitor of Gaussian, Inc.  The licensee
 of this program is prohibited from giving any competitor of
 Gaussian, Inc. access to this program.  By using this program,
 the user acknowledges that Gaussian, Inc. is engaged in the
 business of creating and licensing software in the field of
 computational chemistry and represents and warrants to the
 licensee that it is not a competitor of Gaussian, Inc. and that
 it will not use this program in any manner prohibited above.
 ---------------------------------------------------------------
  

 Cite this work as:
 Gaussian 16, Revision C.01,
 M. J. Frisch, G. W. Trucks, H. B. Schlegel, G. E. Scuseria, 
 M. A. Robb, J. R. Cheeseman, G. Scalmani, V. Barone, 
 G. A. Petersson, H. Nakatsuji, X. Li, M. Caricato, A. V. Marenich, 
 J. Bloino, B. G. Janesko, R. Gomperts, B. Mennucci, H. P. Hratchian, 
 J. V. Ortiz, A. F. Izmaylov, J. L. Sonnenberg, D. Williams-Young, 
 F. Ding, F. Lipparini, F. Egidi, J. Goings, B. Peng, A. Petrone, 
 T. Henderson, D. Ranasinghe, V. G. Zakrzewski, J. Gao, N. Rega, 
 G. Zheng, W. Liang, M. Hada, M. Ehara, K. Toyota, R. Fukuda, 
 J. Hasegawa, M. Ishida, T. Nakajima, Y. Honda, O. Kitao, H. Nakai, 
 T. Vreven, K. Throssell, J. A. Montgomery, Jr., J. E. Peralta, 
 F. Ogliaro, M. J. Bearpark, J. J. Heyd, E. N. Brothers, K. N. Kudin, 
 V. N. Staroverov, T. A. Keith, R. Kobayashi, J. Normand, 
 K. Raghavachari, A. P. Rendell, J. C. Burant, S. S. Iyengar, 
 J. Tomasi, M. Cossi, J. M. Millam, M. Klene, C. Adamo, R. Cammi, 
 J. W. Ochterski, R. L. Martin, K. Morokuma, O. Farkas, 
 J. B. Foresman, and D. J. Fox, Gaussian, Inc., Wallingford CT, 2019.
 
 ******************************************
 Gaussian 16:  AS64L-G16RevC.01  3-Jul-2019
                29-Jan-2024 
 ******************************************
 %nprocshared=8
 Will use up to    8 processors via shared memory.
 %mem=16GB
 ----------------
 # m062x/def2tzvp
 ----------------
 1/38=1,172=1/1;
 2/12=2,17=6,18=5,40=1/2;
 3/5=44,7=101,11=2,25=1,30=1,74=-55/1,2,3;
 4//1;
 5/5=2,38=5/2;
 6/7=2,8=2,9=2,10=2,28=1/1;
 99/5=1,9=1/99;
 ----------------------
 Ac7_rdkit_conf_3_SP_IE
 ----------------------
 Symbolic Z-matrix:
 Charge =  1 Multiplicity = 2
 O                    -2.71523  -0.00006  -0.9502 
 C                    -1.83475  0.        -0.13537 
 O                    -2.09007   0.00007   1.19 
 C                    -0.35921  -0.00001  -0.43399 
 C                     0.31895   1.26089   0.11817 
 C                     1.80813   1.25892  -0.21739 
 C                     2.49185   0.        0.31086 
 C                     1.80812  -1.25893  -0.21733 
 C                     0.31895  -1.26088   0.11823 
 H                    -3.05252   0.00006   1.2918 
 H                    -0.28208  -0.00003  -1.52377 
 H                    -0.1644    2.15178  -0.28855 
 H                     0.18496   1.28503   1.20325 
 H                     2.28181   2.15134   0.19555 
 H                     1.93251   1.30819  -1.30426 
 H                     2.44654   0.00003   1.40508 
 H                     3.54849  -0.00001   0.03714 
 H                     2.2818   -2.15134   0.19565 
 H                     1.9325   -1.30826  -1.30419 
 H                    -0.16442  -2.15179  -0.28845 
 H                     0.18495  -1.28497   1.20331 
 
                          Input orientation:                          
 ---------------------------------------------------------------------
 Center     Atomic      Atomic             Coordinates (Angstroms)
 Number     Number       Type             X           Y           Z
 ---------------------------------------------------------------------
      1          8           0       -2.715225   -0.000060   -0.950203
      2          6           0       -1.834752   -0.000003   -0.135369
      3          8           0       -2.090070    0.000068    1.189998
      4          6           0       -0.359209   -0.000007   -0.433988
      5          6           0        0.318953    1.260888    0.118166
      6          6           0        1.808129    1.258915   -0.217387
      7          6           0        2.491849    0.000002    0.310861
      8          6           0        1.808122   -1.258931   -0.217327
      9          6           0        0.318946   -1.260881    0.118225
     10          1           0       -3.052518    0.000060    1.291799
     11          1           0       -0.282084   -0.000034   -1.523767
     12          1           0       -0.164403    2.151779   -0.288548
     13          1           0        0.184960    1.285033    1.203245
     14          1           0        2.281808    2.151338    0.195546
     15          1           0        1.932505    1.308187   -1.304255
     16          1           0        2.446541    0.000028    1.405084
     17          1           0        3.548489   -0.000007    0.037143
     18          1           0        2.281796   -2.151337    0.195647
     19          1           0        1.932498   -1.308255   -1.304193
     20          1           0       -0.164415   -2.151787   -0.288449
     21          1           0        0.184953   -1.284974    1.203305
 ---------------------------------------------------------------------
                    Distance matrix (angstroms):
                    1          2          3          4          5
     1  O    0.000000
     2  C    1.199661   0.000000
     3  O    2.229637   1.349735   0.000000
     4  C    2.411906   1.505457   2.373439   0.000000
     5  C    3.455089   2.508500   2.922650   1.534482   0.000000
     6  C    4.752133   3.855150   4.331441   2.515781   1.526514
     7  C    5.357602   4.349551   4.665497   2.946749   2.519611
     8  C    4.752108   3.855146   4.331460   2.515781   2.946128
     9  C    3.455055   2.508493   2.922678   1.534483   2.521769
    10  H    2.267232   1.876103   0.967817   3.198789   3.786016
    11  H    2.499830   2.082889   3.260879   1.092505   2.155717
    12  H    3.402189   2.728314   3.244095   2.165476   1.092125
    13  H    3.834042   2.742707   2.612867   2.151274   1.093587
    14  H    5.559820   4.656591   4.972948   3.464039   2.156777
    15  H    4.841307   4.155705   4.910558   2.778613   2.151527
    16  H    5.673729   4.549996   4.541707   3.354761   2.787931
    17  H    6.341054   5.386004   5.755208   3.935996   3.467899
    18  H    5.559783   4.656584   4.972976   3.464039   3.937262
    19  H    4.841282   4.155700   4.910575   2.778613   3.350691
    20  H    3.402129   2.728302   3.244138   2.165475   3.470638
    21  H    3.834010   2.742701   2.612899   2.151274   2.770721
                    6          7          8          9         10
     6  C    0.000000
     7  C    1.526886   0.000000
     8  C    2.517846   1.526885   0.000000
     9  C    2.946129   2.519611   1.526514   0.000000
    10  H    5.242924   5.630475   5.242932   3.786029   0.000000
    11  H    2.767774   3.325743   2.767773   2.155716   3.950027
    12  H    2.166369   3.470607   3.940669   3.470640   3.933014
    13  H    2.157210   2.787363   3.335331   2.770722   3.484288
    14  H    1.091469   2.164639   3.467676   3.937264   5.855322
    15  H    1.095070   2.152397   2.790516   3.350691   5.770715
    16  H    2.150530   1.095161   2.150529   2.787931   5.500226
    17  H    2.162989   1.091517   2.162989   3.467899   6.719186
    18  H    3.467676   2.164638   1.091468   2.156777   5.855336
    19  H    2.790515   2.152396   1.095071   2.151527   5.770723
    20  H    3.940668   3.470606   2.166368   1.092124   3.933035
    21  H    3.335332   2.787362   2.157209   1.093587   3.484302
                   11         12         13         14         15
    11  H    0.000000
    12  H    2.483931   0.000000
    13  H    3.050594   1.760327   0.000000
    14  H    3.762709   2.493651   2.482481   0.000000
    15  H    2.581479   2.477969   3.056470   1.755654   0.000000
    16  H    4.002944   3.783576   2.608970   2.473510   3.052217
    17  H    4.136391   4.303699   3.784765   2.501571   2.474293
    18  H    3.762708   4.973444   4.149773   4.302675   3.786821
    19  H    2.581478   4.171374   4.008276   3.786822   2.616442
    20  H    2.483928   4.303566   3.762837   4.973444   4.171373
    21  H    3.050593   3.762838   2.570007   4.149773   4.008276
                   16         17         18         19         20
    16  H    0.000000
    17  H    1.756574   0.000000
    18  H    2.473510   2.501571   0.000000
    19  H    3.052217   2.474292   1.755653   0.000000
    20  H    3.783577   4.303699   2.493651   2.477968   0.000000
    21  H    2.608970   3.784765   2.482481   3.056469   1.760327
                   21
    21  H    0.000000
 Stoichiometry    C7H12O2(1+,2)
 Framework group  C1[X(C7H12O2)]
 Deg. of freedom    57
 Full point group                 C1      NOp   1
 Largest Abelian subgroup         C1      NOp   1
 Largest concise Abelian subgroup C1      NOp   1
                         Standard orientation:                         
 ---------------------------------------------------------------------
 Center     Atomic      Atomic             Coordinates (Angstroms)
 Number     Number       Type             X           Y           Z
 ---------------------------------------------------------------------
      1          8           0        2.715225    0.000060   -0.950203
      2          6           0        1.834752    0.000003   -0.135369
      3          8           0        2.090070   -0.000068    1.189998
      4          6           0        0.359209    0.000007   -0.433988
      5          6           0       -0.318953   -1.260888    0.118166
      6          6           0       -1.808129   -1.258915   -0.217387
      7          6           0       -2.491849   -0.000002    0.310861
      8          6           0       -1.808122    1.258931   -0.217327
      9          6           0       -0.318946    1.260881    0.118225
     10          1           0        3.052518   -0.000060    1.291799
     11          1           0        0.282084    0.000034   -1.523767
     12          1           0        0.164403   -2.151779   -0.288548
     13          1           0       -0.184960   -1.285033    1.203245
     14          1           0       -2.281808   -2.151338    0.195546
     15          1           0       -1.932505   -1.308187   -1.304255
     16          1           0       -2.446541   -0.000028    1.405084
     17          1           0       -3.548489    0.000007    0.037143
     18          1           0       -2.281796    2.151337    0.195647
     19          1           0       -1.932498    1.308255   -1.304193
     20          1           0        0.164415    2.151787   -0.288449
     21          1           0       -0.184953    1.284974    1.203305
 ---------------------------------------------------------------------
 Rotational constants (GHZ):           3.2312924           1.0412745           0.9495841
 Standard basis: def2TZVP (5D, 7F)
 There are   396 symmetry adapted cartesian basis functions of A   symmetry.
 There are   351 symmetry adapted basis functions of A   symmetry.
   351 basis functions,   555 primitive gaussians,   396 cartesian basis functions
    35 alpha electrons       34 beta electrons
       nuclear repulsion energy       476.8310901325 Hartrees.
 NAtoms=   21 NActive=   21 NUniq=   21 SFac= 1.00D+00 NAtFMM=   60 NAOKFM=F Big=F
 Integral buffers will be    131072 words long.
 Raffenetti 2 integral format.
 Two-electron integral symmetry is turned on.
 One-electron integrals computed using PRISM.
   1 Symmetry operations used in ECPInt.
 ECPInt:  NShTT=   10878 NPrTT=   32112 LenC2=   10591 LenP2D=   25008.
 LDataN:  DoStor=T MaxTD1= 6 Len=  172
 NBasis=   351 RedAO= T EigKep=  8.19D-05  NBF=   351
 NBsUse=   351 1.00D-06 EigRej= -1.00D+00 NBFU=   351
 ExpMin= 9.52D-02 ExpMax= 2.70D+04 ExpMxC= 9.22D+02 IAcc=3 IRadAn=         5 AccDes= 0.00D+00
 Harris functional with IExCor= 1009 and IRadAn=       5 diagonalized for initial guess.
 HarFok:  IExCor= 1009 AccDes= 0.00D+00 IRadAn=         5 IDoV= 1 UseB2=F ITyADJ=14
 ICtDFT=  3500011 ScaDFX=  1.000000  1.000000  1.000000  1.000000
 FoFCou: FMM=F IPFlag=           0 FMFlag=      100000 FMFlg1=           0
         NFxFlg=           0 DoJE=T BraDBF=F KetDBF=T FulRan=T
         wScrn=  0.000000 ICntrl=       500 IOpCl=  0 I1Cent=   200000004 NGrid=           0
         NMat0=    1 NMatS0=      1 NMatT0=    0 NMatD0=    1 NMtDS0=    0 NMtDT0=    0
 Petite list used in FoFCou.
 Initial guess <Sx>= 0.0000 <Sy>= 0.0000 <Sz>= 0.5000 <S**2>= 0.7500 S= 0.5000
 Requested convergence on RMS density matrix=1.00D-08 within 128 cycles.
 Requested convergence on MAX density matrix=1.00D-06.
 Requested convergence on             energy=1.00D-06.
 No special actions if energy rises.
 Integral accuracy reduced to 1.0D-05 until final iterations.
 Initial convergence to 1.0D-05 achieved.  Increase integral accuracy.
 SCF Done:  E(UM062X) =  -424.059514459     A.U. after   21 cycles
            NFock= 21  Conv=0.97D-08     -V/T= 2.0047
 <Sx>= 0.0000 <Sy>= 0.0000 <Sz>= 0.5000 <S**2>= 0.7577 S= 0.5039
 <L.S>=  0.00000000000    
 Annihilation of the first spin contaminant:
 S**2 before annihilation     0.7577,   after     0.7500

 **********************************************************************

            Population analysis using the SCF Density.

 **********************************************************************

 Orbital symmetries:
 Alpha Orbitals:
       Occupied  (A) (A) (A) (A) (A) (A) (A) (A) (A) (A) (A) (A)
                 (A) (A) (A) (A) (A) (A) (A) (A) (A) (A) (A) (A)
                 (A) (A) (A) (A) (A) (A) (A) (A) (A) (A) (A)
       Virtual   (A) (A) (A) (A) (A) (A) (A) (A) (A) (A) (A) (A)
                 (A) (A) (A) (A) (A) (A) (A) (A) (A) (A) (A) (A)
                 (A) (A) (A) (A) (A) (A) (A) (A) (A) (A) (A) (A)
                 (A) (A) (A) (A) (A) (A) (A) (A) (A) (A) (A) (A)
                 (A) (A) (A) (A) (A) (A) (A) (A) (A) (A) (A) (A)
                 (A) (A) (A) (A) (A) (A) (A) (A) (A) (A) (A) (A)
                 (A) (A) (A) (A) (A) (A) (A) (A) (A) (A) (A) (A)
                 (A) (A) (A) (A) (A) (A) (A) (A) (A) (A) (A) (A)
                 (A) (A) (A) (A) (A) (A) (A) (A) (A) (A) (A) (A)
                 (A) (A) (A) (A) (A) (A) (A) (A) (A) (A) (A) (A)
                 (A) (A) (A) (A) (A) (A) (A) (A) (A) (A) (A) (A)
                 (A) (A) (A) (A) (A) (A) (A) (A) (A) (A) (A) (A)
                 (A) (A) (A) (A) (A) (A) (A) (A) (A) (A) (A) (A)
                 (A) (A) (A) (A) (A) (A) (A) (A) (A) (A) (A) (A)
                 (A) (A) (A) (A) (A) (A) (A) (A) (A) (A) (A) (A)
                 (A) (A) (A) (A) (A) (A) (A) (A) (A) (A) (A) (A)
                 (A) (A) (A) (A) (A) (A) (A) (A) (A) (A) (A) (A)
                 (A) (A) (A) (A) (A) (A) (A) (A) (A) (A) (A) (A)
                 (A) (A) (A) (A) (A) (A) (A) (A) (A) (A) (A) (A)
                 (A) (A) (A) (A) (A) (A) (A) (A) (A) (A) (A) (A)
                 (A) (A) (A) (A) (A) (A) (A) (A) (A) (A) (A) (A)
                 (A) (A) (A) (A) (A) (A) (A) (A) (A) (A) (A) (A)
                 (A) (A) (A) (A) (A) (A) (A) (A) (A) (A) (A) (A)
                 (A) (A) (A) (A) (A) (A) (A) (A) (A) (A) (A) (A)
                 (A) (A) (A) (A) (A) (A) (A) (A) (A) (A) (A) (A)
                 (A) (A) (A) (A) (A) (A) (A) (A) (A) (A) (A) (A)
                 (A) (A) (A) (A)
 Beta  Orbitals:
       Occupied  (A) (A) (A) (A) (A) (A) (A) (A) (A) (A) (A) (A)
                 (A) (A) (A) (A) (A) (A) (A) (A) (A) (A) (A) (A)
                 (A) (A) (A) (A) (A) (A) (A) (A) (A) (A)
       Virtual   (A) (A) (A) (A) (A) (A) (A) (A) (A) (A) (A) (A)
                 (A) (A) (A) (A) (A) (A) (A) (A) (A) (A) (A) (A)
                 (A) (A) (A) (A) (A) (A) (A) (A) (A) (A) (A) (A)
                 (A) (A) (A) (A) (A) (A) (A) (A) (A) (A) (A) (A)
                 (A) (A) (A) (A) (A) (A) (A) (A) (A) (A) (A) (A)
                 (A) (A) (A) (A) (A) (A) (A) (A) (A) (A) (A) (A)
                 (A) (A) (A) (A) (A) (A) (A) (A) (A) (A) (A) (A)
                 (A) (A) (A) (A) (A) (A) (A) (A) (A) (A) (A) (A)
                 (A) (A) (A) (A) (A) (A) (A) (A) (A) (A) (A) (A)
                 (A) (A) (A) (A) (A) (A) (A) (A) (A) (A) (A) (A)
                 (A) (A) (A) (A) (A) (A) (A) (A) (A) (A) (A) (A)
                 (A) (A) (A) (A) (A) (A) (A) (A) (A) (A) (A) (A)
                 (A) (A) (A) (A) (A) (A) (A) (A) (A) (A) (A) (A)
                 (A) (A) (A) (A) (A) (A) (A) (A) (A) (A) (A) (A)
                 (A) (A) (A) (A) (A) (A) (A) (A) (A) (A) (A) (A)
                 (A) (A) (A) (A) (A) (A) (A) (A) (A) (A) (A) (A)
                 (A) (A) (A) (A) (A) (A) (A) (A) (A) (A) (A) (A)
                 (A) (A) (A) (A) (A) (A) (A) (A) (A) (A) (A) (A)
                 (A) (A) (A) (A) (A) (A) (A) (A) (A) (A) (A) (A)
                 (A) (A) (A) (A) (A) (A) (A) (A) (A) (A) (A) (A)
                 (A) (A) (A) (A) (A) (A) (A) (A) (A) (A) (A) (A)
                 (A) (A) (A) (A) (A) (A) (A) (A) (A) (A) (A) (A)
                 (A) (A) (A) (A) (A) (A) (A) (A) (A) (A) (A) (A)
                 (A) (A) (A) (A) (A) (A) (A) (A) (A) (A) (A) (A)
                 (A) (A) (A) (A) (A) (A) (A) (A) (A) (A) (A) (A)
                 (A) (A) (A) (A) (A) (A) (A) (A) (A) (A) (A) (A)
                 (A) (A) (A) (A) (A)
 The electronic state is 2-A.
 Alpha  occ. eigenvalues --  -19.93646 -19.90557 -10.92879 -10.77314 -10.72637
 Alpha  occ. eigenvalues --  -10.72636 -10.70048 -10.70048 -10.68601  -1.50524
 Alpha  occ. eigenvalues --   -1.40507  -1.14405  -1.05348  -1.02353  -0.95036
 Alpha  occ. eigenvalues --   -0.89203  -0.87832  -0.84905  -0.81383  -0.80307
 Alpha  occ. eigenvalues --   -0.78220  -0.73390  -0.70436  -0.68790  -0.68747
 Alpha  occ. eigenvalues --   -0.67303  -0.65275  -0.62830  -0.62665  -0.62249
 Alpha  occ. eigenvalues --   -0.59529  -0.57791  -0.54687  -0.54128  -0.53468
 Alpha virt. eigenvalues --   -0.18859  -0.10750  -0.07479  -0.06365  -0.04926
 Alpha virt. eigenvalues --   -0.04188  -0.02433  -0.01718  -0.00490  -0.00457
 Alpha virt. eigenvalues --    0.00612   0.00782   0.01317   0.02159   0.04213
 Alpha virt. eigenvalues --    0.06693   0.07021   0.07981   0.07996   0.08584
 Alpha virt. eigenvalues --    0.09811   0.11208   0.11497   0.12797   0.13371
 Alpha virt. eigenvalues --    0.13663   0.14449   0.15681   0.16980   0.19410
 Alpha virt. eigenvalues --    0.20640   0.21759   0.23436   0.23843   0.24389
 Alpha virt. eigenvalues --    0.27047   0.27585   0.28642   0.29592   0.30363
 Alpha virt. eigenvalues --    0.30456   0.31107   0.31397   0.32028   0.32329
 Alpha virt. eigenvalues --    0.32817   0.34146   0.34184   0.34806   0.35395
 Alpha virt. eigenvalues --    0.37200   0.37647   0.37809   0.38568   0.39656
 Alpha virt. eigenvalues --    0.39751   0.41594   0.45886   0.46361   0.46821
 Alpha virt. eigenvalues --    0.47495   0.51291   0.54312   0.54899   0.56250
 Alpha virt. eigenvalues --    0.60297   0.62754   0.63448   0.64928   0.66221
 Alpha virt. eigenvalues --    0.66770   0.67092   0.71480   0.73462   0.73548
 Alpha virt. eigenvalues --    0.75085   0.75298   0.75775   0.79242   0.81510
 Alpha virt. eigenvalues --    0.83236   0.86366   0.88299   0.88369   0.89626
 Alpha virt. eigenvalues --    0.90840   0.92887   0.95988   0.98788   0.99534
 Alpha virt. eigenvalues --    1.01523   1.01564   1.04359   1.04655   1.06418
 Alpha virt. eigenvalues --    1.08350   1.12701   1.13215   1.13730   1.15687
 Alpha virt. eigenvalues --    1.17115   1.19342   1.22170   1.22219   1.24747
 Alpha virt. eigenvalues --    1.26604   1.29576   1.31992   1.33018   1.37773
 Alpha virt. eigenvalues --    1.40698   1.41191   1.43559   1.45261   1.46084
 Alpha virt. eigenvalues --    1.46687   1.49776   1.49878   1.52319   1.52645
 Alpha virt. eigenvalues --    1.54300   1.55321   1.56868   1.59229   1.60978
 Alpha virt. eigenvalues --    1.61345   1.63282   1.67051   1.67645   1.70090
 Alpha virt. eigenvalues --    1.73378   1.73824   1.75420   1.77409   1.78942
 Alpha virt. eigenvalues --    1.79776   1.80366   1.82168   1.85679   1.86094
 Alpha virt. eigenvalues --    1.88247   1.90943   1.93120   1.94850   1.98440
 Alpha virt. eigenvalues --    1.99746   2.02334   2.02942   2.03322   2.05494
 Alpha virt. eigenvalues --    2.07121   2.09306   2.09636   2.10056   2.15388
 Alpha virt. eigenvalues --    2.15945   2.22648   2.22722   2.26535   2.27898
 Alpha virt. eigenvalues --    2.29443   2.30950   2.32664   2.34658   2.35959
 Alpha virt. eigenvalues --    2.36127   2.36622   2.37616   2.40198   2.42428
 Alpha virt. eigenvalues --    2.44194   2.44209   2.45792   2.46144   2.48941
 Alpha virt. eigenvalues --    2.49675   2.51049   2.51549   2.52458   2.55928
 Alpha virt. eigenvalues --    2.56747   2.57381   2.61405   2.61945   2.63036
 Alpha virt. eigenvalues --    2.65408   2.65876   2.66493   2.66714   2.71346
 Alpha virt. eigenvalues --    2.72530   2.72793   2.76449   2.76682   2.77974
 Alpha virt. eigenvalues --    2.80043   2.82777   2.85072   2.85184   2.87280
 Alpha virt. eigenvalues --    2.89077   2.90488   2.91936   2.95952   2.96133
 Alpha virt. eigenvalues --    2.99693   2.99961   3.00936   3.02486   3.03440
 Alpha virt. eigenvalues --    3.05783   3.07147   3.07747   3.12336   3.12919
 Alpha virt. eigenvalues --    3.13700   3.14790   3.17991   3.18519   3.19240
 Alpha virt. eigenvalues --    3.19853   3.24666   3.24973   3.25718   3.27096
 Alpha virt. eigenvalues --    3.28019   3.30914   3.31201   3.32913   3.33478
 Alpha virt. eigenvalues --    3.35698   3.36556   3.40020   3.40755   3.43652
 Alpha virt. eigenvalues --    3.45809   3.46440   3.47904   3.48142   3.51311
 Alpha virt. eigenvalues --    3.53611   3.57428   3.58667   3.67240   3.70763
 Alpha virt. eigenvalues --    3.72087   3.73088   3.73924   3.81133   3.81266
 Alpha virt. eigenvalues --    3.82032   3.82509   3.86431   3.86817   3.87506
 Alpha virt. eigenvalues --    3.94382   3.95788   3.99837   4.00059   4.03791
 Alpha virt. eigenvalues --    4.06855   4.07317   4.13750   4.16341   4.21641
 Alpha virt. eigenvalues --    4.25846   4.27114   4.31231   4.33845   4.36204
 Alpha virt. eigenvalues --    4.38971   4.43831   4.47028   4.48068   4.52391
 Alpha virt. eigenvalues --    4.57303   4.59427   4.59894   4.64122   4.71815
 Alpha virt. eigenvalues --    4.83044   4.83766   4.89440   4.89654   4.93575
 Alpha virt. eigenvalues --    4.98837   5.17527   5.18170   5.27922   5.36497
 Alpha virt. eigenvalues --    5.50762   5.64389   5.64471   5.92932   5.99984
 Alpha virt. eigenvalues --    6.04643   6.11733   6.19930   6.23087   6.42256
 Alpha virt. eigenvalues --    6.46948   6.53141   6.55787   6.66106   6.82586
 Alpha virt. eigenvalues --    6.83937   7.08329  22.37715  22.40573  22.41760
 Alpha virt. eigenvalues --   22.45272  22.54089  22.61166  23.14353  43.69407
 Alpha virt. eigenvalues --   43.75883
  Beta  occ. eigenvalues --  -19.92488 -19.90418 -10.92874 -10.77237 -10.72596
  Beta  occ. eigenvalues --  -10.72595 -10.70004 -10.70003 -10.68593  -1.48205
  Beta  occ. eigenvalues --   -1.38603  -1.13589  -1.04454  -1.01814  -0.93936
  Beta  occ. eigenvalues --   -0.87839  -0.87396  -0.83017  -0.80462  -0.77283
  Beta  occ. eigenvalues --   -0.77271  -0.72311  -0.69564  -0.68554  -0.67791
  Beta  occ. eigenvalues --   -0.64077  -0.63890  -0.62292  -0.60701  -0.59252
  Beta  occ. eigenvalues --   -0.57593  -0.54432  -0.53843  -0.53144
  Beta virt. eigenvalues --   -0.40546  -0.18338  -0.10656  -0.07337  -0.06290
  Beta virt. eigenvalues --   -0.04860  -0.04006  -0.02346  -0.01647  -0.00432
  Beta virt. eigenvalues --   -0.00373   0.00683   0.00866   0.01393   0.02203
  Beta virt. eigenvalues --    0.04252   0.06996   0.07181   0.08097   0.08166
  Beta virt. eigenvalues --    0.08908   0.09868   0.11341   0.11618   0.12982
  Beta virt. eigenvalues --    0.13528   0.13949   0.14538   0.16437   0.17239
  Beta virt. eigenvalues --    0.19522   0.20810   0.21968   0.23512   0.24126
  Beta virt. eigenvalues --    0.24912   0.27130   0.27718   0.28866   0.29744
  Beta virt. eigenvalues --    0.30394   0.30792   0.31178   0.31456   0.32132
  Beta virt. eigenvalues --    0.32431   0.32872   0.34211   0.34370   0.35009
  Beta virt. eigenvalues --    0.35642   0.37297   0.37791   0.37935   0.38716
  Beta virt. eigenvalues --    0.39797   0.39882   0.41848   0.45982   0.46856
  Beta virt. eigenvalues --    0.46874   0.47647   0.51379   0.54419   0.55024
  Beta virt. eigenvalues --    0.56520   0.60322   0.62855   0.63470   0.65209
  Beta virt. eigenvalues --    0.66434   0.66837   0.67233   0.71572   0.73534
  Beta virt. eigenvalues --    0.73618   0.75338   0.75509   0.75910   0.79335
  Beta virt. eigenvalues --    0.81594   0.83305   0.86505   0.88439   0.88465
  Beta virt. eigenvalues --    0.89771   0.91079   0.93007   0.96181   0.98903
  Beta virt. eigenvalues --    0.99673   1.01604   1.01613   1.04458   1.04666
  Beta virt. eigenvalues --    1.06353   1.08426   1.12754   1.13340   1.13736
  Beta virt. eigenvalues --    1.15746   1.17161   1.19397   1.22371   1.22769
  Beta virt. eigenvalues --    1.24803   1.26621   1.29995   1.32122   1.33112
  Beta virt. eigenvalues --    1.38120   1.40974   1.41458   1.44156   1.45661
  Beta virt. eigenvalues --    1.46235   1.46792   1.49910   1.50013   1.52517
  Beta virt. eigenvalues --    1.52713   1.54399   1.55442   1.56983   1.59252
  Beta virt. eigenvalues --    1.61197   1.61414   1.63263   1.67116   1.67674
  Beta virt. eigenvalues --    1.70145   1.73525   1.73998   1.75481   1.77773
  Beta virt. eigenvalues --    1.79109   1.79862   1.80746   1.82279   1.85798
  Beta virt. eigenvalues --    1.86070   1.88213   1.91061   1.93258   1.94904
  Beta virt. eigenvalues --    1.98644   1.99710   2.02569   2.03061   2.03419
  Beta virt. eigenvalues --    2.05543   2.07243   2.09316   2.09789   2.11187
  Beta virt. eigenvalues --    2.15322   2.16086   2.22487   2.22868   2.26694
  Beta virt. eigenvalues --    2.27911   2.29721   2.30923   2.32907   2.34872
  Beta virt. eigenvalues --    2.35974   2.36617   2.36874   2.37725   2.40264
  Beta virt. eigenvalues --    2.42451   2.44217   2.44223   2.45808   2.46370
  Beta virt. eigenvalues --    2.49145   2.49896   2.51258   2.51706   2.52778
  Beta virt. eigenvalues --    2.55985   2.56841   2.57396   2.61534   2.62428
  Beta virt. eigenvalues --    2.63239   2.66063   2.66186   2.66601   2.66636
  Beta virt. eigenvalues --    2.71675   2.72513   2.73079   2.76532   2.77148
  Beta virt. eigenvalues --    2.78461   2.80254   2.82905   2.85054   2.85415
  Beta virt. eigenvalues --    2.87286   2.89314   2.90366   2.92080   2.96170
  Beta virt. eigenvalues --    2.96478   2.99961   2.99978   3.00945   3.03009
  Beta virt. eigenvalues --    3.03280   3.05864   3.07287   3.08824   3.12542
  Beta virt. eigenvalues --    3.12667   3.14637   3.14649   3.18087   3.18504
  Beta virt. eigenvalues --    3.19441   3.19747   3.24524   3.25337   3.25928
  Beta virt. eigenvalues --    3.27009   3.27934   3.31043   3.31163   3.32981
  Beta virt. eigenvalues --    3.33780   3.35703   3.36602   3.39998   3.40941
  Beta virt. eigenvalues --    3.43618   3.45777   3.46543   3.48068   3.48197
  Beta virt. eigenvalues --    3.51501   3.53685   3.57270   3.58784   3.67055
  Beta virt. eigenvalues --    3.70722   3.72386   3.73289   3.74010   3.81109
  Beta virt. eigenvalues --    3.81262   3.82079   3.82498   3.86418   3.86939
  Beta virt. eigenvalues --    3.87647   3.94502   3.95801   4.00088   4.00253
  Beta virt. eigenvalues --    4.04060   4.07108   4.07327   4.13782   4.16441
  Beta virt. eigenvalues --    4.21631   4.26229   4.27291   4.31107   4.33615
  Beta virt. eigenvalues --    4.35815   4.38853   4.44043   4.47122   4.48137
  Beta virt. eigenvalues --    4.51951   4.57419   4.59147   4.59834   4.63363
  Beta virt. eigenvalues --    4.71567   4.82362   4.83499   4.89202   4.91634
  Beta virt. eigenvalues --    4.95045   4.99577   5.18129   5.18313   5.28821
  Beta virt. eigenvalues --    5.37425   5.51724   5.64402   5.65410   5.93256
  Beta virt. eigenvalues --    6.00684   6.10993   6.12598   6.24780   6.26559
  Beta virt. eigenvalues --    6.45617   6.47768   6.54127   6.56768   6.68302
  Beta virt. eigenvalues --    6.84089   6.86649   7.08540  22.37765  22.40576
  Beta virt. eigenvalues --   22.41805  22.45289  22.54103  22.61234  23.14061
  Beta virt. eigenvalues --   43.69395  43.75819
          Condensed to atoms (all electrons):
               1          2          3          4          5          6
     1  O    7.585807   0.523292  -0.053138  -0.031962  -0.002257  -0.000119
     2  C    0.523292   4.580819   0.390190   0.191223  -0.000614   0.002055
     3  O   -0.053138   0.390190   7.757351  -0.065262  -0.012977  -0.000388
     4  C   -0.031962   0.191223  -0.065262   5.395280   0.176012  -0.011403
     5  C   -0.002257  -0.000614  -0.012977   0.176012   5.309288   0.175423
     6  C   -0.000119   0.002055  -0.000388  -0.011403   0.175423   5.220225
     7  C   -0.000051   0.001215   0.000373  -0.010962  -0.019076   0.215839
     8  C   -0.000119   0.002055  -0.000388  -0.011404  -0.009321  -0.024469
     9  C   -0.002258  -0.000613  -0.012977   0.176014  -0.019082  -0.009321
    10  H   -0.000448  -0.012595   0.296599   0.007486   0.000799   0.000028
    11  H    0.002139  -0.052107   0.002651   0.452242  -0.040461   0.001407
    12  H    0.000722   0.000185  -0.000639  -0.042019   0.424842  -0.029563
    13  H    0.000197  -0.012158   0.004106  -0.029986   0.424738  -0.034819
    14  H   -0.000002  -0.000431  -0.000003   0.007168  -0.040991   0.434202
    15  H    0.000000   0.000254  -0.000010  -0.002977  -0.046619   0.432839
    16  H   -0.000000   0.000308  -0.000048  -0.000764   0.000435  -0.050828
    17  H    0.000000   0.000152   0.000000  -0.000558   0.006785  -0.037210
    18  H   -0.000002  -0.000431  -0.000003   0.007168  -0.001332   0.006837
    19  H    0.000000   0.000254  -0.000010  -0.002977   0.000364  -0.002731
    20  H    0.000722   0.000185  -0.000639  -0.042019   0.003473  -0.000656
    21  H    0.000197  -0.012158   0.004106  -0.029986  -0.007892   0.002010
               7          8          9         10         11         12
     1  O   -0.000051  -0.000119  -0.002258  -0.000448   0.002139   0.000722
     2  C    0.001215   0.002055  -0.000613  -0.012595  -0.052107   0.000185
     3  O    0.000373  -0.000388  -0.012977   0.296599   0.002651  -0.000639
     4  C   -0.010962  -0.011404   0.176014   0.007486   0.452242  -0.042019
     5  C   -0.019076  -0.009321  -0.019082   0.000799  -0.040461   0.424842
     6  C    0.215839  -0.024469  -0.009321   0.000028   0.001407  -0.029563
     7  C    5.218119   0.215839  -0.019076  -0.000003  -0.001600   0.005421
     8  C    0.215839   5.220224   0.175425   0.000028   0.001407  -0.000656
     9  C   -0.019076   0.175425   5.309287   0.000799  -0.040461   0.003473
    10  H   -0.000003   0.000028   0.000799   0.327016  -0.000354  -0.000048
    11  H   -0.001600   0.001407  -0.040461  -0.000354   0.458042  -0.001462
    12  H    0.005421  -0.000656   0.003473  -0.000048  -0.001462   0.457178
    13  H   -0.003794   0.002010  -0.007891  -0.000239   0.004291  -0.009342
    14  H   -0.039054   0.006837  -0.001332  -0.000000   0.000060  -0.006626
    15  H   -0.045774  -0.002731   0.000364   0.000002   0.001025  -0.001489
    16  H    0.435419  -0.050828   0.000435   0.000003   0.000014  -0.000098
    17  H    0.429384  -0.037210   0.006785   0.000000  -0.000149  -0.000094
    18  H   -0.039054   0.434202  -0.040991  -0.000000   0.000060   0.000091
    19  H   -0.045774   0.432840  -0.046619   0.000002   0.001025  -0.000116
    20  H    0.005421  -0.029563   0.424842  -0.000048  -0.001462  -0.000304
    21  H   -0.003794  -0.034819   0.424738  -0.000239   0.004291  -0.000029
              13         14         15         16         17         18
     1  O    0.000197  -0.000002   0.000000  -0.000000   0.000000  -0.000002
     2  C   -0.012158  -0.000431   0.000254   0.000308   0.000152  -0.000431
     3  O    0.004106  -0.000003  -0.000010  -0.000048   0.000000  -0.000003
     4  C   -0.029986   0.007168  -0.002977  -0.000764  -0.000558   0.007168
     5  C    0.424738  -0.040991  -0.046619   0.000435   0.006785  -0.001332
     6  C   -0.034819   0.434202   0.432839  -0.050828  -0.037210   0.006837
     7  C   -0.003794  -0.039054  -0.045774   0.435419   0.429384  -0.039054
     8  C    0.002010   0.006837  -0.002731  -0.050828  -0.037210   0.434202
     9  C   -0.007891  -0.001332   0.000364   0.000435   0.006785  -0.040991
    10  H   -0.000239  -0.000000   0.000002   0.000003   0.000000  -0.000000
    11  H    0.004291   0.000060   0.001025   0.000014  -0.000149   0.000060
    12  H   -0.009342  -0.006626  -0.001489  -0.000098  -0.000094   0.000091
    13  H    0.445980  -0.001524   0.003873   0.001333  -0.000128  -0.000083
    14  H   -0.001524   0.455169  -0.007857  -0.002009  -0.003714  -0.000224
    15  H    0.003873  -0.007857   0.472939   0.004869  -0.001847  -0.000154
    16  H    0.001333  -0.002009   0.004869   0.481763  -0.008210  -0.002009
    17  H   -0.000128  -0.003714  -0.001847  -0.008210   0.448375  -0.003714
    18  H   -0.000083  -0.000224  -0.000154  -0.002009  -0.003714   0.455169
    19  H    0.000083  -0.000154   0.002061   0.004869  -0.001847  -0.007857
    20  H   -0.000029   0.000091  -0.000116  -0.000098  -0.000094  -0.006626
    21  H    0.002863  -0.000083   0.000083   0.001333  -0.000128  -0.001524
              19         20         21
     1  O    0.000000   0.000722   0.000197
     2  C    0.000254   0.000185  -0.012158
     3  O   -0.000010  -0.000639   0.004106
     4  C   -0.002977  -0.042019  -0.029986
     5  C    0.000364   0.003473  -0.007892
     6  C   -0.002731  -0.000656   0.002010
     7  C   -0.045774   0.005421  -0.003794
     8  C    0.432840  -0.029563  -0.034819
     9  C   -0.046619   0.424842   0.424738
    10  H    0.000002  -0.000048  -0.000239
    11  H    0.001025  -0.001462   0.004291
    12  H   -0.000116  -0.000304  -0.000029
    13  H    0.000083  -0.000029   0.002863
    14  H   -0.000154   0.000091  -0.000083
    15  H    0.002061  -0.000116   0.000083
    16  H    0.004869  -0.000098   0.001333
    17  H   -0.001847  -0.000094  -0.000128
    18  H   -0.007857  -0.006626  -0.001524
    19  H    0.472939  -0.001489   0.003873
    20  H   -0.001489   0.457178  -0.009342
    21  H    0.003873  -0.009342   0.445980
          Atomic-Atomic Spin Densities.
               1          2          3          4          5          6
     1  O    0.656822  -0.066216  -0.006075  -0.003897   0.002524  -0.000165
     2  C   -0.066216  -0.031387   0.002970   0.084772  -0.012925   0.000585
     3  O   -0.006075   0.002970   0.062742   0.004446   0.001907  -0.000012
     4  C   -0.003897   0.084772   0.004446  -0.003655   0.013672  -0.002145
     5  C    0.002524  -0.012925   0.001907   0.013672   0.030774   0.014045
     6  C   -0.000165   0.000585  -0.000012  -0.002145   0.014045   0.045908
     7  C    0.000055   0.000540   0.000029  -0.001553   0.001315  -0.004028
     8  C   -0.000165   0.000585  -0.000012  -0.002145   0.001950   0.000473
     9  C    0.002525  -0.012924   0.001907   0.013670  -0.001992   0.001950
    10  H    0.003554   0.000979  -0.001091  -0.000254  -0.000344   0.000015
    11  H    0.000240   0.001414   0.000034  -0.001443   0.000185  -0.000464
    12  H    0.000415  -0.000918   0.000259  -0.001065   0.003707  -0.002359
    13  H   -0.000046   0.000780  -0.000212  -0.000420   0.000139   0.000733
    14  H    0.000006   0.000007   0.000002   0.000031  -0.003107   0.005095
    15  H   -0.000002   0.000090  -0.000000  -0.000627   0.001465  -0.000672
    16  H    0.000001   0.000004  -0.000000  -0.000006  -0.000191   0.000239
    17  H   -0.000001  -0.000019  -0.000000  -0.000118   0.000429  -0.004569
    18  H    0.000006   0.000007   0.000002   0.000031  -0.000044   0.000192
    19  H   -0.000002   0.000090  -0.000000  -0.000627   0.000229  -0.000313
    20  H    0.000415  -0.000919   0.000259  -0.001065   0.000333  -0.000101
    21  H   -0.000046   0.000780  -0.000212  -0.000420  -0.000002   0.000046
               7          8          9         10         11         12
     1  O    0.000055  -0.000165   0.002525   0.003554   0.000240   0.000415
     2  C    0.000540   0.000585  -0.012924   0.000979   0.001414  -0.000918
     3  O    0.000029  -0.000012   0.001907  -0.001091   0.000034   0.000259
     4  C   -0.001553  -0.002145   0.013670  -0.000254  -0.001443  -0.001065
     5  C    0.001315   0.001950  -0.001992  -0.000344   0.000185   0.003707
     6  C   -0.004028   0.000473   0.001950   0.000015  -0.000464  -0.002359
     7  C    0.000670  -0.004028   0.001315  -0.000014   0.000318   0.000175
     8  C   -0.004028   0.045907   0.014045   0.000015  -0.000464  -0.000101
     9  C    0.001315   0.014045   0.030774  -0.000344   0.000185   0.000333
    10  H   -0.000014   0.000015  -0.000344   0.000052  -0.000018  -0.000055
    11  H    0.000318  -0.000464   0.000185  -0.000018  -0.005433   0.000277
    12  H    0.000175  -0.000101   0.000333  -0.000055   0.000277   0.007076
    13  H   -0.000244   0.000046  -0.000002   0.000032  -0.000065  -0.000672
    14  H   -0.000138   0.000192  -0.000044  -0.000001   0.000063   0.000641
    15  H    0.000409  -0.000313   0.000229   0.000000   0.000012  -0.000132
    16  H    0.000131   0.000239  -0.000191  -0.000000   0.000008   0.000007
    17  H    0.012162  -0.004569   0.000429   0.000000  -0.000059  -0.000041
    18  H   -0.000138   0.005095  -0.003107  -0.000001   0.000063   0.000007
    19  H    0.000409  -0.000672   0.001465   0.000000   0.000012  -0.000008
    20  H    0.000175  -0.002359   0.003706  -0.000055   0.000277   0.000029
    21  H   -0.000244   0.000733   0.000139   0.000032  -0.000065  -0.000023
              13         14         15         16         17         18
     1  O   -0.000046   0.000006  -0.000002   0.000001  -0.000001   0.000006
     2  C    0.000780   0.000007   0.000090   0.000004  -0.000019   0.000007
     3  O   -0.000212   0.000002  -0.000000  -0.000000  -0.000000   0.000002
     4  C   -0.000420   0.000031  -0.000627  -0.000006  -0.000118   0.000031
     5  C    0.000139  -0.003107   0.001465  -0.000191   0.000429  -0.000044
     6  C    0.000733   0.005095  -0.000672   0.000239  -0.004569   0.000192
     7  C   -0.000244  -0.000138   0.000409   0.000131   0.012162  -0.000138
     8  C    0.000046   0.000192  -0.000313   0.000239  -0.004569   0.005095
     9  C   -0.000002  -0.000044   0.000229  -0.000191   0.000429  -0.003107
    10  H    0.000032  -0.000001   0.000000  -0.000000   0.000000  -0.000001
    11  H   -0.000065   0.000063   0.000012   0.000008  -0.000059   0.000063
    12  H   -0.000672   0.000641  -0.000132   0.000007  -0.000041   0.000007
    13  H   -0.001963  -0.000104  -0.000002   0.000004   0.000029  -0.000014
    14  H   -0.000104   0.009756  -0.000517   0.000039  -0.000840   0.000035
    15  H   -0.000002  -0.000517  -0.002371  -0.000007   0.000241  -0.000027
    16  H    0.000004   0.000039  -0.000007  -0.000072  -0.000405   0.000039
    17  H    0.000029  -0.000840   0.000241  -0.000405   0.024850  -0.000840
    18  H   -0.000014   0.000035  -0.000027   0.000039  -0.000840   0.009756
    19  H    0.000003  -0.000027   0.000059  -0.000007   0.000241  -0.000517
    20  H   -0.000023   0.000007  -0.000008   0.000007  -0.000041   0.000641
    21  H    0.000017  -0.000014   0.000003   0.000004   0.000029  -0.000104
              19         20         21
     1  O   -0.000002   0.000415  -0.000046
     2  C    0.000090  -0.000919   0.000780
     3  O   -0.000000   0.000259  -0.000212
     4  C   -0.000627  -0.001065  -0.000420
     5  C    0.000229   0.000333  -0.000002
     6  C   -0.000313  -0.000101   0.000046
     7  C    0.000409   0.000175  -0.000244
     8  C   -0.000672  -0.002359   0.000733
     9  C    0.001465   0.003706   0.000139
    10  H    0.000000  -0.000055   0.000032
    11  H    0.000012   0.000277  -0.000065
    12  H   -0.000008   0.000029  -0.000023
    13  H    0.000003  -0.000023   0.000017
    14  H   -0.000027   0.000007  -0.000014
    15  H    0.000059  -0.000008   0.000003
    16  H   -0.000007   0.000007   0.000004
    17  H    0.000241  -0.000041   0.000029
    18  H   -0.000517   0.000641  -0.000104
    19  H   -0.002370  -0.000132  -0.000002
    20  H   -0.000132   0.007076  -0.000672
    21  H   -0.000002  -0.000672  -0.001963
 Mulliken charges and spin densities:
               1          2
     1  O   -0.022720   0.589947
     2  C    0.398921  -0.031706
     3  O   -0.308894   0.066942
     4  C   -0.130315   0.097183
     5  C   -0.321538   0.054069
     6  C   -0.289359   0.054452
     7  C   -0.299013   0.007313
     8  C   -0.289360   0.054451
     9  C   -0.321539   0.054067
    10  H    0.381214   0.002501
    11  H    0.209402  -0.004924
    12  H    0.200573   0.007551
    13  H    0.210520  -0.001984
    14  H    0.200477   0.011083
    15  H    0.191264  -0.002171
    16  H    0.184113  -0.000159
    17  H    0.203420   0.026906
    18  H    0.200477   0.011083
    19  H    0.191264  -0.002171
    20  H    0.200573   0.007551
    21  H    0.210520  -0.001984
 Sum of Mulliken charges =   1.00000   1.00000
 Mulliken charges and spin densities with hydrogens summed into heavy atoms:
               1          2
     1  O   -0.022720   0.589947
     2  C    0.398921  -0.031706
     3  O    0.072321   0.069443
     4  C    0.079086   0.092259
     5  C    0.089555   0.059635
     6  C    0.102382   0.063364
     7  C    0.088520   0.034060
     8  C    0.102382   0.063363
     9  C    0.089554   0.059634
 Electronic spatial extent (au):  <R**2>=           1290.0712
 Charge=              1.0000 electrons
 Dipole moment (field-independent basis, Debye):
    X=              1.8388    Y=             -0.0000    Z=              0.5163  Tot=              1.9099
 Quadrupole moment (field-independent basis, Debye-Ang):
   XX=            -27.7385   YY=            -46.0592   ZZ=            -49.7305
   XY=             -0.0002   XZ=              4.6714   YZ=              0.0001
 Traceless Quadrupole moment (field-independent basis, Debye-Ang):
   XX=             13.4376   YY=             -4.8831   ZZ=             -8.5544
   XY=             -0.0002   XZ=              4.6714   YZ=              0.0001
 Octapole moment (field-independent basis, Debye-Ang**2):
  XXX=             45.7597  YYY=             -0.0000  ZZZ=              2.3682  XYY=             -0.3198
  XXY=             -0.0009  XXZ=             20.6265  XZZ=              9.8740  YZZ=             -0.0001
  YYZ=              0.3861  XYZ=             -0.0002
 Hexadecapole moment (field-independent basis, Debye-Ang**3):
 XXXX=           -827.5743 YYYY=           -315.2522 ZZZZ=           -173.1718 XXXY=             -0.0033
 XXXZ=             75.0580 YYYX=              0.0002 YYYZ=              0.0001 ZZZX=             12.9055
 ZZZY=             -0.0009 XXYY=           -217.5714 XXZZ=           -186.4187 YYZZ=            -87.4873
 XXYZ=             -0.0006 YYXZ=             -2.7964 ZZXY=             -0.0006
 N-N= 4.768310901325D+02 E-N=-1.929213463116D+03  KE= 4.220674732666D+02
                          Isotropic Fermi Contact Couplings
        Atom                 a.u.       MegaHertz       Gauss      10(-4) cm-1
     1  O(17)              0.07204     -43.67057     -15.58275     -14.56694
     2  C(13)              0.01386      15.57805       5.55864       5.19628
     3  O(17)             -0.00218       1.31952       0.47084       0.44015
     4  C(13)             -0.01212     -13.62416      -4.86144      -4.54453
     5  C(13)             -0.00503      -5.65998      -2.01962      -1.88796
     6  C(13)              0.00338       3.79564       1.35438       1.26609
     7  C(13)             -0.00379      -4.25575      -1.51856      -1.41957
     8  C(13)              0.00338       3.79549       1.35432       1.26604
     9  C(13)             -0.00503      -5.66003      -2.01964      -1.88798
    10  H(1)              -0.00081      -3.63442      -1.29685      -1.21231
    11  H(1)              -0.00196      -8.77243      -3.13022      -2.92617
    12  H(1)               0.00438      19.59476       6.99190       6.53611
    13  H(1)              -0.00066      -2.97191      -1.06045      -0.99132
    14  H(1)               0.00669      29.90196      10.66976       9.97422
    15  H(1)              -0.00078      -3.48437      -1.24331      -1.16226
    16  H(1)               0.00004       0.16535       0.05900       0.05516
    17  H(1)               0.01522      68.02410      24.27269      22.69040
    18  H(1)               0.00669      29.90177      10.66970       9.97416
    19  H(1)              -0.00078      -3.48431      -1.24329      -1.16224
    20  H(1)               0.00438      19.59419       6.99169       6.53592
    21  H(1)              -0.00066      -2.97191      -1.06045      -0.99132
 --------------------------------------------------------
       Center         ----  Spin Dipole Couplings  ----
                      3XX-RR        3YY-RR        3ZZ-RR
 --------------------------------------------------------
     1   Atom        0.755718     -1.052794      0.297077
     2   Atom        0.140011     -0.108042     -0.031969
     3   Atom       -0.159658     -0.232321      0.391979
     4   Atom        0.227225     -0.118995     -0.108229
     5   Atom        0.095252     -0.042518     -0.052735
     6   Atom        0.097430     -0.048602     -0.048828
     7   Atom        0.039040     -0.017674     -0.021366
     8   Atom        0.097428     -0.048602     -0.048827
     9   Atom        0.095250     -0.042517     -0.052733
    10   Atom        0.007654     -0.018222      0.010568
    11   Atom        0.005245     -0.016554      0.011309
    12   Atom       -0.002962      0.011345     -0.008384
    13   Atom       -0.000904     -0.005993      0.006897
    14   Atom       -0.002234      0.007388     -0.005155
    15   Atom        0.000525     -0.005672      0.005146
    16   Atom        0.000289     -0.002627      0.002338
    17   Atom        0.008080     -0.004578     -0.003502
    18   Atom       -0.002234      0.007388     -0.005154
    19   Atom        0.000525     -0.005671      0.005146
    20   Atom       -0.002961      0.011345     -0.008384
    21   Atom       -0.000904     -0.005993      0.006897
 --------------------------------------------------------
                        XY            XZ            YZ
 --------------------------------------------------------
     1   Atom       -0.000059      1.776237     -0.000037
     2   Atom        0.000004     -0.023895     -0.000005
     3   Atom        0.000004     -0.060463     -0.000039
     4   Atom        0.000002     -0.054005     -0.000000
     5   Atom        0.044323     -0.029172     -0.008440
     6   Atom        0.003916     -0.007743     -0.000030
     7   Atom       -0.000000      0.000503      0.000000
     8   Atom       -0.003917     -0.007743      0.000030
     9   Atom       -0.044322     -0.029173      0.008441
    10   Atom        0.000000      0.005490     -0.000002
    11   Atom        0.000000      0.008900     -0.000001
    12   Atom        0.000267     -0.001809      0.003829
    13   Atom        0.002896      0.001137     -0.003397
    14   Atom        0.003772     -0.001179     -0.005546
    15   Atom        0.001576      0.003885      0.000986
    16   Atom        0.000000     -0.001999     -0.000000
    17   Atom       -0.000000      0.003383     -0.000000
    18   Atom       -0.003771     -0.001179      0.005547
    19   Atom       -0.001576      0.003885     -0.000986
    20   Atom       -0.000267     -0.001810     -0.003828
    21   Atom       -0.002896      0.001137      0.003397
 --------------------------------------------------------


 ---------------------------------------------------------------------------------
              Anisotropic Spin Dipole Couplings in Principal Axis System
 ---------------------------------------------------------------------------------

       Atom             a.u.   MegaHertz   Gauss  10(-4) cm-1        Axes

              Baa    -1.2646    91.504    32.651    30.523 -0.6603 -0.0001  0.7510
     1 O(17)  Bbb    -1.0528    76.179    27.183    25.411 -0.0000  1.0000  0.0001
              Bcc     2.3174  -167.684   -59.834   -55.933  0.7510 -0.0000  0.6603
 
              Baa    -0.1080   -14.498    -5.173    -4.836 -0.0000  1.0000  0.0001
     2 C(13)  Bbb    -0.0352    -4.727    -1.687    -1.577  0.1351 -0.0001  0.9908
              Bcc     0.1433    19.225     6.860     6.413  0.9908  0.0000 -0.1351
 
              Baa    -0.2323    16.811     5.998     5.607 -0.0000  1.0000  0.0001
     3 O(17)  Bbb    -0.1662    12.027     4.291     4.012  0.9942  0.0000  0.1077
              Bcc     0.3985   -28.837   -10.290    -9.619 -0.1077 -0.0001  0.9942
 
              Baa    -0.1190   -15.968    -5.698    -5.326  0.0000  1.0000  0.0000
     4 C(13)  Bbb    -0.1167   -15.661    -5.588    -5.224  0.1551 -0.0000  0.9879
              Bcc     0.2357    31.629    11.286    10.550  0.9879  0.0000 -0.1551
 
              Baa    -0.0583    -7.820    -2.790    -2.609  0.1849  0.0062  0.9827
     5 C(13)  Bbb    -0.0555    -7.453    -2.659    -2.486 -0.2736  0.9608  0.0454
              Bcc     0.1138    15.273     5.450     5.095  0.9439  0.2773 -0.1794
 
              Baa    -0.0493    -6.614    -2.360    -2.206  0.0582 -0.2900  0.9553
     6 C(13)  Bbb    -0.0487    -6.529    -2.330    -2.178 -0.0102  0.9567  0.2911
              Bcc     0.0979    13.143     4.690     4.384  0.9983  0.0267 -0.0527
 
              Baa    -0.0214    -2.868    -1.023    -0.957 -0.0083 -0.0000  1.0000
     7 C(13)  Bbb    -0.0177    -2.372    -0.846    -0.791  0.0000  1.0000  0.0000
              Bcc     0.0390     5.239     1.870     1.748  1.0000 -0.0000  0.0083
 
              Baa    -0.0493    -6.614    -2.360    -2.206  0.0582  0.2899  0.9553
     8 C(13)  Bbb    -0.0487    -6.529    -2.330    -2.178  0.0102  0.9567 -0.2910
              Bcc     0.0979    13.143     4.690     4.384  0.9983 -0.0267 -0.0527
 
              Baa    -0.0583    -7.820    -2.790    -2.609  0.1849 -0.0062  0.9827
     9 C(13)  Bbb    -0.0555    -7.453    -2.659    -2.486  0.2736  0.9608 -0.0454
              Bcc     0.1138    15.273     5.450     5.094  0.9439 -0.2773 -0.1794
 
              Baa    -0.0182    -9.722    -3.469    -3.243 -0.0000  1.0000  0.0001
    10 H(1)   Bbb     0.0034     1.830     0.653     0.611  0.7926  0.0000 -0.6097
              Bcc     0.0148     7.892     2.816     2.632  0.6097 -0.0000  0.7926
 
              Baa    -0.0166    -8.833    -3.152    -2.946 -0.0000  1.0000  0.0000
    11 H(1)   Bbb    -0.0011    -0.600    -0.214    -0.200  0.8132  0.0000 -0.5820
              Bcc     0.0177     9.433     3.366     3.147  0.5820 -0.0000  0.8132
 
              Baa    -0.0096    -5.124    -1.828    -1.709  0.2653 -0.1766  0.9478
    12 H(1)   Bbb    -0.0025    -1.312    -0.468    -0.438  0.9642  0.0534 -0.2599
              Bcc     0.0121     6.436     2.297     2.147 -0.0048  0.9828  0.1845
 
              Baa    -0.0081    -4.347    -1.551    -1.450 -0.3922  0.8905  0.2307
    13 H(1)   Bbb     0.0004     0.208     0.074     0.069  0.9185  0.3930  0.0446
              Bcc     0.0078     4.140     1.477     1.381  0.0509 -0.2294  0.9720
 
              Baa    -0.0073    -3.878    -1.384    -1.294 -0.0568  0.3661  0.9288
    14 H(1)   Bbb    -0.0034    -1.827    -0.652    -0.609  0.9548 -0.2521  0.1577
              Bcc     0.0107     5.705     2.036     1.903  0.2919  0.8958 -0.3352
 
              Baa    -0.0060    -3.228    -1.152    -1.077 -0.2298  0.9732 -0.0060
    15 H(1)   Bbb    -0.0015    -0.805    -0.287    -0.269  0.8345  0.1939 -0.5158
              Bcc     0.0076     4.033     1.439     1.345  0.5008  0.1235  0.8567
 
              Baa    -0.0026    -1.402    -0.500    -0.468  0.0000  1.0000  0.0000
    16 H(1)   Bbb    -0.0009    -0.498    -0.178    -0.166  0.8533 -0.0000  0.5215
              Bcc     0.0036     1.900     0.678     0.634 -0.5215 -0.0000  0.8533
 
              Baa    -0.0046    -2.443    -0.872    -0.815  0.0000  1.0000 -0.0000
    17 H(1)   Bbb    -0.0044    -2.357    -0.841    -0.786 -0.2613  0.0000  0.9653
              Bcc     0.0090     4.800     1.713     1.601  0.9653 -0.0000  0.2613
 
              Baa    -0.0073    -3.878    -1.384    -1.294 -0.0568 -0.3661  0.9288
    18 H(1)   Bbb    -0.0034    -1.827    -0.652    -0.609  0.9548  0.2521  0.1577
              Bcc     0.0107     5.705     2.036     1.903 -0.2919  0.8958  0.3353
 
              Baa    -0.0060    -3.228    -1.152    -1.077  0.2298  0.9732  0.0060
    19 H(1)   Bbb    -0.0015    -0.805    -0.287    -0.269  0.8345 -0.1938 -0.5158
              Bcc     0.0076     4.033     1.439     1.345  0.5008 -0.1235  0.8567
 
              Baa    -0.0096    -5.124    -1.828    -1.709  0.2653  0.1766  0.9479
    20 H(1)   Bbb    -0.0025    -1.312    -0.468    -0.438  0.9641 -0.0534 -0.2599
              Bcc     0.0121     6.436     2.296     2.147  0.0047  0.9828 -0.1844
 
              Baa    -0.0081    -4.347    -1.551    -1.450  0.3922  0.8905 -0.2307
    21 H(1)   Bbb     0.0004     0.208     0.074     0.069  0.9185 -0.3930  0.0446
              Bcc     0.0078     4.139     1.477     1.381  0.0509  0.2294  0.9720
 

 ---------------------------------------------------------------------------------

 Unable to Open any file for archive entry.
 1\1\GINC-NODE13\SP\UM062X\def2TZVP\C7H12O2(1+,2)\SVSS\29-Jan-2024\0\\#
  m062x/def2tzvp\\Ac7_rdkit_conf_3_SP_IE\\1,2\O,0,-2.715225,-0.00006,-0
 .950203\C,0,-1.834752,-0.000003,-0.135369\O,0,-2.09007,0.000068,1.1899
 98\C,0,-0.359209,-0.000007,-0.433988\C,0,0.318953,1.260888,0.118166\C,
 0,1.808129,1.258915,-0.217387\C,0,2.491849,0.000002,0.310861\C,0,1.808
 122,-1.258931,-0.217327\C,0,0.318946,-1.260881,0.118225\H,0,-3.052518,
 0.00006,1.291799\H,0,-0.282084,-0.000034,-1.523767\H,0,-0.164403,2.151
 779,-0.288548\H,0,0.18496,1.285033,1.203245\H,0,2.281808,2.151338,0.19
 5546\H,0,1.932505,1.308187,-1.304255\H,0,2.446541,0.000028,1.405084\H,
 0,3.548489,-0.000007,0.037143\H,0,2.281796,-2.151337,0.195647\H,0,1.93
 2498,-1.308255,-1.304193\H,0,-0.164415,-2.151787,-0.288449\H,0,0.18495
 3,-1.284974,1.203305\\Version=AS64L-G16RevC.01\State=2-A\HF=-424.05951
 45\S2=0.757726\S2-1=0.\S2A=0.750038\RMSD=9.671e-09\Dipole=-0.7234358,0
 .0000111,0.2031173\Quadrupole=9.9905118,-3.6304933,-6.3600185,-0.00015
 72,-3.4730747,-0.0000857\PG=C01 [X(C7H12O2)]\\@
 The archive entry for this job was punched.


 IF AT FIRST YOU DON'T SUCCEED, TRY, TRY AGAIN.
 THEN GIVE UP;
 THERE'S NO USE BEING A DAMN FOOL ABOUT IT.

                                 -- W. C. FIELDS
 Job cpu time:       0 days  0 hours 26 minutes 50.5 seconds.
 Elapsed time:       0 days  0 hours  3 minutes 26.5 seconds.
 File lengths (MBytes):  RWF=    119 Int=      0 D2E=      0 Chk=     10 Scr=      1
 Normal termination of Gaussian 16 at Mon Jan 29 12:57:22 2024.
