
                                 *****************
                                 * O   R   C   A *
                                 *****************

                                            #,                                       
                                            ###                                      
                                            ####                                     
                                            #####                                    
                                            ######                                   
                                           ########,                                 
                                     ,,################,,,,,                         
                               ,,#################################,,                 
                          ,,##########################################,,             
                       ,#########################################, ''#####,          
                    ,#############################################,,   '####,        
                  ,##################################################,,,,####,       
                ,###########''''           ''''###############################       
              ,#####''   ,,,,##########,,,,          '''####'''          '####       
            ,##' ,,,,###########################,,,                        '##       
           ' ,,###''''                  '''############,,,                           
         ,,##''                                '''############,,,,        ,,,,,,###''
      ,#''                                            '''#######################'''  
     '                                                          ''''####''''         
             ,#######,   #######,   ,#######,      ##                                
            ,#'     '#,  ##    ##  ,#'     '#,    #''#        ######   ,####,        
            ##       ##  ##   ,#'  ##            #'  '#       #        #'  '#        
            ##       ##  #######   ##           ,######,      #####,   #    #        
            '#,     ,#'  ##    ##  '#,     ,#' ,#      #,         ##   #,  ,#        
             '#######'   ##     ##  '#######'  #'      '#     #####' # '####'        



                  #######################################################
                  #                        -***-                        #
                  #          Department of theory and spectroscopy      #
                  #    Directorship and core code : Frank Neese         #
                  #        Max Planck Institute fuer Kohlenforschung    #
                  #                Kaiser Wilhelm Platz 1               #
                  #                 D-45470 Muelheim/Ruhr               #
                  #                      Germany                        #
                  #                                                     #
                  #                  All rights reserved                #
                  #                        -***-                        #
                  #######################################################


                         Program Version 5.0.4 -  RELEASE  -


 With contributions from (in alphabetic order):
   Daniel Aravena         : Magnetic Suceptibility
   Michael Atanasov       : Ab Initio Ligand Field Theory (pilot matlab implementation)
   Alexander A. Auer      : GIAO ZORA, VPT2 properties, NMR spectrum
   Ute Becker             : Parallelization
   Giovanni Bistoni       : ED, misc. LED, open-shell LED, HFLD
   Martin Brehm           : Molecular dynamics
   Dmytro Bykov           : SCF Hessian
   Vijay G. Chilkuri      : MRCI spin determinant printing, contributions to CSF-ICE
   Dipayan Datta          : RHF DLPNO-CCSD density
   Achintya Kumar Dutta   : EOM-CC, STEOM-CC
   Dmitry Ganyushin       : Spin-Orbit,Spin-Spin,Magnetic field MRCI
   Miquel Garcia          : C-PCM and meta-GGA Hessian, CC/C-PCM, Gaussian charge scheme
   Yang Guo               : DLPNO-NEVPT2, F12-NEVPT2, CIM, IAO-localization
   Andreas Hansen         : Spin unrestricted coupled pair/coupled cluster methods
   Benjamin Helmich-Paris : MC-RPA, TRAH-SCF, COSX integrals
   Lee Huntington         : MR-EOM, pCC
   Robert Izsak           : Overlap fitted RIJCOSX, COSX-SCS-MP3, EOM
   Marcus Kettner         : VPT2
   Christian Kollmar      : KDIIS, OOCD, Brueckner-CCSD(T), CCSD density, CASPT2, CASPT2-K
   Simone Kossmann        : Meta GGA functionals, TD-DFT gradient, OOMP2, MP2 Hessian
   Martin Krupicka        : Initial AUTO-CI
   Lucas Lang             : DCDCAS
   Marvin Lechner         : AUTO-CI (C++ implementation), FIC-MRCC
   Dagmar Lenk            : GEPOL surface, SMD
   Dimitrios Liakos       : Extrapolation schemes; Compound Job, initial MDCI parallelization
   Dimitrios Manganas     : Further ROCIS development; embedding schemes
   Dimitrios Pantazis     : SARC Basis sets
   Anastasios Papadopoulos: AUTO-CI, single reference methods and gradients
   Taras Petrenko         : DFT Hessian,TD-DFT gradient, ASA, ECA, R-Raman, ABS, FL, XAS/XES, NRVS
   Peter Pinski           : DLPNO-MP2, DLPNO-MP2 Gradient
   Christoph Reimann      : Effective Core Potentials
   Marius Retegan         : Local ZFS, SOC
   Christoph Riplinger    : Optimizer, TS searches, QM/MM, DLPNO-CCSD(T), (RO)-DLPNO pert. Triples
   Tobias Risthaus        : Range-separated hybrids, TD-DFT gradient, RPA, STAB
   Michael Roemelt        : Original ROCIS implementation
   Masaaki Saitow         : Open-shell DLPNO-CCSD energy and density
   Barbara Sandhoefer     : DKH picture change effects
   Avijit Sen             : IP-ROCIS
   Kantharuban Sivalingam : CASSCF convergence, NEVPT2, FIC-MRCI
   Bernardo de Souza      : ESD, SOC TD-DFT
   Georgi Stoychev        : AutoAux, RI-MP2 NMR, DLPNO-MP2 response
   Willem Van den Heuvel  : Paramagnetic NMR
   Boris Wezisla          : Elementary symmetry handling
   Frank Wennmohs         : Technical directorship


 We gratefully acknowledge several colleagues who have allowed us to
 interface, adapt or use parts of their codes:
   Stefan Grimme, W. Hujo, H. Kruse, P. Pracht,  : VdW corrections, initial TS optimization,
                  C. Bannwarth, S. Ehlert          DFT functionals, gCP, sTDA/sTD-DF
   Ed Valeev, F. Pavosevic, A. Kumar             : LibInt (2-el integral package), F12 methods
   Garnet Chan, S. Sharma, J. Yang, R. Olivares  : DMRG
   Ulf Ekstrom                                   : XCFun DFT Library
   Mihaly Kallay                                 : mrcc  (arbitrary order and MRCC methods)
   Jiri Pittner, Ondrej Demel                    : Mk-CCSD
   Frank Weinhold                                : gennbo (NPA and NBO analysis)
   Christopher J. Cramer and Donald G. Truhlar   : smd solvation model
   Lars Goerigk                                  : TD-DFT with DH, B97 family of functionals
   V. Asgeirsson, H. Jonsson                     : NEB implementation
   FAccTs GmbH                                   : IRC, NEB, NEB-TS, DLPNO-Multilevel, CI-OPT
                                                   MM, QMMM, 2- and 3-layer-ONIOM, Crystal-QMMM,
                                                   LR-CPCM, SF, NACMEs, symmetry and pop. for TD-DFT,
                                                   nearIR, NL-DFT gradient (VV10), updates on ESD,
                                                   ML-optimized integration grids
   S Lehtola, MJT Oliveira, MAL Marques          : LibXC Library
   Liviu Ungur et al                             : ANISO software


 Your calculation uses the libint2 library for the computation of 2-el integrals
 For citations please refer to: http://libint.valeyev.net

 Your ORCA version has been built with support for libXC version: 5.1.0
 For citations please refer to: https://tddft.org/programs/libxc/

 This ORCA versions uses:
   CBLAS   interface :  Fast vector & matrix operations
   LAPACKE interface :  Fast linear algebra routines
   SCALAPACK package :  Parallel linear algebra routines
   Shared memory     :  Shared parallel matrices
   BLAS/LAPACK       :  OpenBLAS 0.3.15  USE64BITINT DYNAMIC_ARCH NO_AFFINITY SkylakeX SINGLE_THREADED
        Core in use  :  SkylakeX
   Copyright (c) 2011-2014, The OpenBLAS Project



Information: The global flag for chemical shieldings has been found
             ==>> will calculate the chemical shieldings for all atoms in the system

================================================================================

----- Orbital basis set information -----
Your calculation utilizes the basis: def2-TZVP
   F. Weigend and R. Ahlrichs, Phys. Chem. Chem. Phys. 7, 3297 (2005).

----- AuxJ basis set information -----
Your calculation utilizes the auxiliary basis: def2/J
   F. Weigend, Phys. Chem. Chem. Phys. 8, 1057 (2006).

================================================================================
                                        WARNINGS
                       Please study these warnings very carefully!
================================================================================


INFO   : the flag for use of the SHARK integral package has been found!

================================================================================
                                       INPUT FILE
================================================================================
NAME = arbr_14_r2scan3c_nmr.inp
|  1> %PAL NPROCS 16 END
|  2> %maxcore 4000
|  3> # arbr_14_r2scan3c.out
|  4> ! NMR B3LYP def2-tzvp 
|  5> * xyz 0 1
|  6>   Br        1.77666        -0.00639         0.00000
|  7>    C       -0.12749        -0.01338        -0.00003
|  8>    C       -0.79353         1.20717        -0.00001
|  9>    C       -2.17626         1.17083         0.00000
| 10>    C       -2.82223        -0.05811         0.00001
| 11>    C       -2.04683        -1.20524         0.00000
| 12>    N       -0.71336        -1.18552        -0.00001
| 13>    H       -0.24318         2.13620        -0.00000
| 14>    H       -2.74214         2.09356         0.00001
| 15>    H       -3.90087        -0.12767         0.00002
| 16>    H       -2.50524        -2.18727         0.00001
| 17> *
| 18> 
| 19>                          ****END OF INPUT****
================================================================================

                       ****************************
                       * Single Point Calculation *
                       ****************************

---------------------------------
CARTESIAN COORDINATES (ANGSTROEM)
---------------------------------
  Br     1.776660   -0.006390    0.000000
  C     -0.127490   -0.013380   -0.000030
  C     -0.793530    1.207170   -0.000010
  C     -2.176260    1.170830    0.000000
  C     -2.822230   -0.058110    0.000010
  C     -2.046830   -1.205240    0.000000
  N     -0.713360   -1.185520   -0.000010
  H     -0.243180    2.136200   -0.000000
  H     -2.742140    2.093560    0.000010
  H     -3.900870   -0.127670    0.000020
  H     -2.505240   -2.187270    0.000010

----------------------------
CARTESIAN COORDINATES (A.U.)
----------------------------
  NO LB      ZA    FRAG     MASS         X           Y           Z
   0 Br   35.0000    0    79.900    3.357401   -0.012075    0.000000
   1 C     6.0000    0    12.011   -0.240921   -0.025285   -0.000057
   2 C     6.0000    0    12.011   -1.499554    2.281221   -0.000019
   3 C     6.0000    0    12.011   -4.112535    2.212548    0.000000
   4 C     6.0000    0    12.011   -5.333242   -0.109812    0.000019
   5 C     6.0000    0    12.011   -3.867948   -2.277574    0.000000
   6 N     7.0000    0    14.007   -1.348055   -2.240308   -0.000019
   7 H     1.0000    0     1.008   -0.459544    4.036833   -0.000000
   8 H     1.0000    0     1.008   -5.181894    3.956255    0.000019
   9 H     1.0000    0     1.008   -7.371576   -0.241261    0.000038
  10 H     1.0000    0     1.008   -4.734217   -4.133341    0.000019

--------------------------------
INTERNAL COORDINATES (ANGSTROEM)
--------------------------------
 Br     0   0   0     0.000000000000     0.00000000     0.00000000
 C      1   0   0     1.904162830091     0.00000000     0.00000000
 C      2   1   0     1.390450137366   118.41045819     0.00000000
 C      3   2   1     1.383207449590   117.11532260   180.00151546
 C      4   3   2     1.388369822706   119.23330873     0.00000000
 C      5   4   3     1.384612724555   118.21551414     0.00000000
 N      2   1   3     1.310402929217   116.76755742   180.00286005
 H      3   2   1     1.079806400935   120.73705009     0.00000000
 H      4   3   2     1.082428208890   120.01395838   180.00034178
 H      5   4   3     1.080880586975   121.41766140   179.99987465
 H      6   5   4     1.083753961515   120.92026986   179.99982624

---------------------------
INTERNAL COORDINATES (A.U.)
---------------------------
 Br     0   0   0     0.000000000000     0.00000000     0.00000000
 C      1   0   0     3.598346263264     0.00000000     0.00000000
 C      2   1   0     2.627569962494   118.41045819     0.00000000
 C      3   2   1     2.613883266124   117.11532260   180.00151546
 C      4   3   2     2.623638737515   119.23330873     0.00000000
 C      5   4   3     2.616538850952   118.21551414     0.00000000
 N      2   1   3     2.476302661308   116.76755742   180.00286005
 H      3   2   1     2.040538375422   120.73705009     0.00000000
 H      4   3   2     2.045492874432   120.01395838   180.00034178
 H      5   4   3     2.042568292855   121.41766140   179.99987465
 H      6   5   4     2.047998183816   120.92026986   179.99982624

---------------------
BASIS SET INFORMATION
---------------------
There are 4 groups of distinct atoms

 Group   1 Type Br  : 17s13p8d1f contracted to 6s5p4d1f pattern {842111/64111/5111/1}
 Group   2 Type C   : 11s6p2d1f contracted to 5s3p2d1f pattern {62111/411/11/1}
 Group   3 Type N   : 11s6p2d1f contracted to 5s3p2d1f pattern {62111/411/11/1}
 Group   4 Type H   : 5s1p contracted to 3s1p pattern {311/1}

Atom   0Br   basis set group =>   1
Atom   1C    basis set group =>   2
Atom   2C    basis set group =>   2
Atom   3C    basis set group =>   2
Atom   4C    basis set group =>   2
Atom   5C    basis set group =>   2
Atom   6N    basis set group =>   3
Atom   7H    basis set group =>   4
Atom   8H    basis set group =>   4
Atom   9H    basis set group =>   4
Atom  10H    basis set group =>   4
---------------------------------
AUXILIARY/J BASIS SET INFORMATION
---------------------------------
There are 4 groups of distinct atoms

 Group   1 Type Br  : 19s5p5d3f1g contracted to 8s4p3d2f1g pattern {121111111/2111/311/21/1}
 Group   2 Type C   : 12s5p4d2f1g contracted to 6s4p3d1f1g pattern {711111/2111/211/2/1}
 Group   3 Type N   : 12s5p4d2f1g contracted to 6s4p3d1f1g pattern {711111/2111/211/2/1}
 Group   4 Type H   : 5s2p1d contracted to 3s1p1d pattern {311/2/1}

Atom   0Br   basis set group =>   1
Atom   1C    basis set group =>   2
Atom   2C    basis set group =>   2
Atom   3C    basis set group =>   2
Atom   4C    basis set group =>   2
Atom   5C    basis set group =>   2
Atom   6N    basis set group =>   3
Atom   7H    basis set group =>   4
Atom   8H    basis set group =>   4
Atom   9H    basis set group =>   4
Atom  10H    basis set group =>   4


           ************************************************************
           *        Program running with 16 parallel MPI-processes    *
           *              working on a common directory               *
           ************************************************************
------------------------------------------------------------------------------
                           ORCA GTO INTEGRAL CALCULATION
                           -- RI-GTO INTEGRALS CHOSEN --
------------------------------------------------------------------------------
------------------------------------------------------------------------------
                   ___                                                        
                  /   \      - P O W E R E D   B Y -                         
                 /     \                                                     
                 |  |  |   _    _      __       _____    __    __             
                 |  |  |  | |  | |    /  \     |  _  \  |  |  /  |          
                  \  \/   | |  | |   /    \    | | | |  |  | /  /          
                 / \  \   | |__| |  /  /\  \   | |_| |  |  |/  /          
                |  |  |   |  __  | /  /__\  \  |    /   |      \           
                |  |  |   | |  | | |   __   |  |    \   |  |\   \          
                \     /   | |  | | |  |  |  |  | |\  \  |  | \   \       
                 \___/    |_|  |_| |__|  |__|  |_| \__\ |__|  \__/        
                                                                              
                      - O R C A' S   B I G   F R I E N D -                    
                                      &                                       
                       - I N T E G R A L  F E E D E R -                       
                                                                              
 v1 FN, 2020, v2 2021                                                         
------------------------------------------------------------------------------


Reading SHARK input file arbr_14_r2scan3c_nmr.SHARKINP.tmp ... ok
----------------------
SHARK INTEGRAL PACKAGE
----------------------

Number of atoms                             ...     11
Number of basis functions                   ...    258
Number of shells                            ...     98
Maximum angular momentum                    ...      3
Integral batch strategy                     ... SHARK/LIBINT Hybrid
RI-J (if used) integral strategy            ... SPLIT-RIJ (Revised 2003 algorithm where possible)
Printlevel                                  ...      1
Contraction scheme used                     ... SEGMENTED contraction
Coulomb Range Separation                    ... NOT USED
Exchange Range Separation                   ... NOT USED
Finite Nucleus Model                        ... NOT USED
Auxiliary Coulomb fitting basis             ... AVAILABLE
   # of basis functions in Aux-J            ...    396
   # of shells in Aux-J                     ...    128
   Maximum angular momentum in Aux-J        ...      4
Auxiliary J/K fitting basis                 ... NOT available
Auxiliary Correlation fitting basis         ... NOT available
Auxiliary 'external' fitting basis          ... NOT available
Integral threshold                          ...     1.000000e-10
Primitive cut-off                           ...     1.000000e-11
Primitive pair pre-selection threshold      ...     1.000000e-11

Calculating pre-screening integrals         ... done (  0.1 sec) Dimension = 98
Organizing shell pair data                  ... done (  0.1 sec)
Shell pair information
Total number of shell pairs                 ...      4851
Shell pairs after pre-screening             ...      4460
Total number of primitive shell pairs       ...     17046
Primitive shell pairs kept                  ...     11504
          la=0 lb=0:   1019 shell pairs
          la=1 lb=0:   1197 shell pairs
          la=1 lb=1:    361 shell pairs
          la=2 lb=0:    705 shell pairs
          la=2 lb=1:    412 shell pairs
          la=2 lb=2:    131 shell pairs
          la=3 lb=0:    315 shell pairs
          la=3 lb=1:    183 shell pairs
          la=3 lb=2:    109 shell pairs
          la=3 lb=3:     28 shell pairs

Calculating one electron integrals          ... done (  0.0 sec)
Calculating RI/J V-Matrix + Cholesky decomp.... done (  0.0 sec)
Calculating Nuclear repulsion               ... done (  0.0 sec) ENN=    438.414931333890 Eh

SHARK setup successfully completed in   0.3 seconds

Maximum memory used throughout the entire GTOINT-calculation: 21.8 MB


           ************************************************************
           *        Program running with 16 parallel MPI-processes    *
           *              working on a common directory               *
           ************************************************************
-------------------------------------------------------------------------------
                                 ORCA SCF
-------------------------------------------------------------------------------

------------
SCF SETTINGS
------------
Hamiltonian:
 Density Functional     Method          .... DFT(GTOs)
 Exchange Functional    Exchange        .... B88
   X-Alpha parameter    XAlpha          ....  0.666667
   Becke's b parameter  XBeta           ....  0.004200
 Correlation Functional Correlation     .... LYP
 LDA part of GGA corr.  LDAOpt          .... VWN-5
 Gradients option       PostSCFGGA      .... off
 Hybrid DFT is turned on
   Fraction HF Exchange ScalHFX         ....  0.200000
   Scaling of DF-GGA-X  ScalDFX         ....  0.720000
   Scaling of DF-GGA-C  ScalDFC         ....  0.810000
   Scaling of DF-LDA-C  ScalLDAC        ....  1.000000
   Perturbative correction              ....  0.000000
   Density functional embedding theory  .... OFF
   NL short-range parameter             ....  4.800000
 RI-approximation to the Coulomb term is turned on
   Number of AuxJ basis functions       .... 396
   RIJ-COSX (HFX calculated with COS-X)).... on


General Settings:
 Integral files         IntName         .... arbr_14_r2scan3c_nmr
 Hartree-Fock type      HFTyp           .... RHF
 Total Charge           Charge          ....    0
 Multiplicity           Mult            ....    1
 Number of Electrons    NEL             ....   76
 Basis Dimension        Dim             ....  258
 Nuclear Repulsion      ENuc            ....    438.4149313339 Eh

Convergence Acceleration:
 DIIS                   CNVDIIS         .... on
   Start iteration      DIISMaxIt       ....    12
   Startup error        DIISStart       ....  0.200000
   # of expansion vecs  DIISMaxEq       ....     5
   Bias factor          DIISBfac        ....   1.050
   Max. coefficient     DIISMaxC        ....  10.000
 Trust-Rad. Augm. Hess. CNVTRAH         .... auto
   Auto Start mean grad. ratio tolernc. ....  1.125000
   Auto Start start iteration           ....    20
   Auto Start num. interpolation iter.  ....    10
   Max. Number of Micro iterations      ....    16
   Max. Number of Macro iterations      .... Maxiter - #DIIS iter
   Number of Davidson start vectors     ....     2
   Converg. threshold I  (grad. norm)   ....   5.000e-05
   Converg. threshold II (energy diff.) ....   1.000e-06
   Grad. Scal. Fac. for Micro threshold ....   0.100
   Minimum threshold for Micro iter.    ....   0.010
   NR start threshold (gradient norm)   ....   0.001
   Initial trust radius                 ....   0.400
   Minimum AH scaling param. (alpha)    ....   1.000
   Maximum AH scaling param. (alpha)    .... 1000.000
   Orbital update algorithm             .... Taylor
   White noise on init. David. guess    .... on
   Maximum white noise                  ....   0.010
   Quad. conv. algorithm                .... NR
 SOSCF                  CNVSOSCF        .... on
   Start iteration      SOSCFMaxIt      ....   150
   Startup grad/error   SOSCFStart      ....  0.003300
 Level Shifting         CNVShift        .... on
   Level shift para.    LevelShift      ....    0.2500
   Turn off err/grad.   ShiftErr        ....    0.0010
 Zerner damping         CNVZerner       .... off
 Static damping         CNVDamp         .... on
   Fraction old density DampFac         ....    0.7000
   Max. Damping (<1)    DampMax         ....    0.9800
   Min. Damping (>=0)   DampMin         ....    0.0000
   Turn off err/grad.   DampErr         ....    0.1000
 Fernandez-Rico         CNVRico         .... off

SCF Procedure:
 Maximum # iterations   MaxIter         ....   125
 SCF integral mode      SCFMode         .... Direct
   Integral package                     .... SHARK and LIBINT hybrid scheme
 Reset frequency        DirectResetFreq ....    20
 Integral Threshold     Thresh          ....  1.000e-10 Eh
 Primitive CutOff       TCut            ....  1.000e-11 Eh

Convergence Tolerance:
 Convergence Check Mode ConvCheckMode   .... Total+1el-Energy
 Convergence forced     ConvForced      .... 0
 Energy Change          TolE            ....  1.000e-06 Eh
 1-El. energy change                    ....  1.000e-03 Eh
 Orbital Gradient       TolG            ....  5.000e-05
 Orbital Rotation angle TolX            ....  5.000e-05
 DIIS Error             TolErr          ....  1.000e-06


Diagonalization of the overlap matrix:
Smallest eigenvalue                        ... 4.148e-05
Time for diagonalization                   ...    0.013 sec
Threshold for overlap eigenvalues          ... 1.000e-08
Number of eigenvalues below threshold      ... 0
Time for construction of square roots      ...    0.008 sec
Total time needed                          ...    0.022 sec

Time for model grid setup =    0.095 sec

------------------------------
INITIAL GUESS: MODEL POTENTIAL
------------------------------
Loading Hartree-Fock densities                     ... done
Calculating cut-offs                               ... done
Initializing the effective Hamiltonian             ... done
Setting up the integral package (SHARK)            ... done
Starting the Coulomb interaction                   ... done (   0.0 sec)
Reading the grid                                   ... done
Mapping shells                                     ... done
Starting the XC term evaluation                    ... done (   0.0 sec)
  promolecular density results
     # of electrons  =     75.997773846
     EX              =   -123.179915850
     EC              =     -3.087710740
     EX+EC           =   -126.267626590
Transforming the Hamiltonian                       ... done (   0.0 sec)
Diagonalizing the Hamiltonian                      ... done (   0.0 sec)
Back transforming the eigenvectors                 ... done (   0.0 sec)
Now organizing SCF variables                       ... done
                      ------------------
                      INITIAL GUESS DONE (   0.2 sec)
                      ------------------
-------------------
DFT GRID GENERATION
-------------------

General Integration Accuracy     IntAcc      ... 4.388
Radial Grid Type                 RadialGrid  ... OptM3 with GC (2021)
Angular Grid (max. ang.)         AngularGrid ... 4 (Lebedev-302)
Angular grid pruning method      GridPruning ... 4 (adaptive)
Weight generation scheme         WeightScheme... Becke
Basis function cutoff            BFCut       ... 1.0000e-10
Integration weight cutoff        WCut        ... 1.0000e-14
Angular grids for H and He will be reduced by one unit
Partially contracted basis set               ... off
Rotationally invariant grid construction     ... off

Total number of grid points                  ...    60368
Total number of batches                      ...      949
Average number of points per batch           ...       63
Average number of grid points per atom       ...     5488
Time for grid setup =    0.485 sec

--------------------
COSX GRID GENERATION
--------------------

GRIDX 1
-------
General Integration Accuracy     IntAcc      ... 3.816
Radial Grid Type                 RadialGrid  ... OptM3 with GC (2021)
Angular Grid (max. ang.)         AngularGrid ... 1 (Lebedev-50)
Angular grid pruning method      GridPruning ... 4 (adaptive)
Weight generation scheme         WeightScheme... Becke
Basis function cutoff            BFCut       ... 1.0000e-10
Integration weight cutoff        WCut        ... 1.0000e-14
Angular grids for H and He will be reduced by one unit
Partially contracted basis set               ... on
Rotationally invariant grid construction     ... off

Total number of grid points                  ...     7498
Total number of batches                      ...      121
Average number of points per batch           ...       61
Average number of grid points per atom       ...      682
UseSFitting                                  ... on

GRIDX 2
-------
General Integration Accuracy     IntAcc      ... 4.020
Radial Grid Type                 RadialGrid  ... OptM3 with GC (2021)
Angular Grid (max. ang.)         AngularGrid ... 2 (Lebedev-110)
Angular grid pruning method      GridPruning ... 4 (adaptive)
Weight generation scheme         WeightScheme... Becke
Basis function cutoff            BFCut       ... 1.0000e-10
Integration weight cutoff        WCut        ... 1.0000e-14
Angular grids for H and He will be reduced by one unit
Partially contracted basis set               ... on
Rotationally invariant grid construction     ... off

Total number of grid points                  ...    16633
Total number of batches                      ...      263
Average number of points per batch           ...       63
Average number of grid points per atom       ...     1512
UseSFitting                                  ... on

GRIDX 3
-------
General Integration Accuracy     IntAcc      ... 4.338
Radial Grid Type                 RadialGrid  ... OptM3 with GC (2021)
Angular Grid (max. ang.)         AngularGrid ... 3 (Lebedev-194)
Angular grid pruning method      GridPruning ... 4 (adaptive)
Weight generation scheme         WeightScheme... Becke
Basis function cutoff            BFCut       ... 1.0000e-10
Integration weight cutoff        WCut        ... 1.0000e-14
Angular grids for H and He will be reduced by one unit
Partially contracted basis set               ... on
Rotationally invariant grid construction     ... off

Total number of grid points                  ...    36919
Total number of batches                      ...      582
Average number of points per batch           ...       63
Average number of grid points per atom       ...     3356
UseSFitting                                  ... on

Time for X-Grid setup             =    0.351 sec

--------------
SCF ITERATIONS
--------------
ITER       Energy         Delta-E        Max-DP      RMS-DP      [F,P]     Damp
               ***  Starting incremental Fock matrix formation  ***
  0  -2821.4994151822   0.000000000000 0.04116972  0.00098498  0.2188090 0.7000
  1  -2821.5793487099  -0.079933527675 0.02819228  0.00078390  0.0996411 0.7000
                               ***Turning on DIIS***
  2  -2821.6103658039  -0.031017094058 0.05681015  0.00136902  0.0335029 0.0000
  3  -2821.6559806789  -0.045614874984 0.02643999  0.00061960  0.0495745 0.0000
  4  -2821.6690342935  -0.013053614534 0.01061827  0.00024738  0.0091728 0.0000
  5  -2821.6696387799  -0.000604486463 0.00616980  0.00012098  0.0050952 0.0000
                      *** Initiating the SOSCF procedure ***
                           *** Shutting down DIIS ***
                      *** Re-Reading the Fockian *** 
                      *** Removing any level shift *** 
ITER      Energy       Delta-E        Grad      Rot      Max-DP    RMS-DP
  6  -2821.66971342  -0.0000746363  0.000518  0.000518  0.003525  0.000074
               *** Restarting incremental Fock matrix formation ***
  7  -2821.66970795   0.0000054653  0.000115  0.000335  0.000366  0.000011
  8  -2821.66970781   0.0000001401  0.000132  0.000247  0.000214  0.000005
                 **** Energy Check signals convergence ****
              ***Rediagonalizing the Fockian in SOSCF/NRSCF***

               *****************************************************
               *                     SUCCESS                       *
               *           SCF CONVERGED AFTER   9 CYCLES          *
               *****************************************************

Old exchange energy                            =    -24.707001478 Eh
New exchange energy                            =    -24.707000529 Eh
Exchange energy change after final integration =      0.000000949 Eh
Total energy after final integration           =  -2821.669707460 Eh
Final COS-X integration done in                =     1.821 sec

----------------
TOTAL SCF ENERGY
----------------

Total Energy       :        -2821.66970746 Eh          -76781.53624 eV

Components:
Nuclear Repulsion  :          438.41493133 Eh           11929.87678 eV
Electronic Energy  :        -3260.08463879 Eh          -88711.41302 eV
One Electron Energy:        -4787.39477590 Eh         -130271.63473 eV
Two Electron Energy:         1527.31013711 Eh           41560.22171 eV
Max COSX asymmetry :            0.00000515 Eh               0.00014 eV

Virial components:
Potential Energy   :        -5638.66089402 Eh         -153435.76345 eV
Kinetic Energy     :         2816.99118656 Eh           76654.22721 eV
Virial Ratio       :            2.00166082


DFT components:
N(Alpha)           :       38.000022629085 electrons
N(Beta)            :       38.000022629085 electrons
N(Total)           :       76.000045258169 electrons
E(X)               :      -98.314291752492 Eh       
E(C)               :       -3.620064931581 Eh       
E(XC)              :     -101.934356684073 Eh       
DFET-embed. en.    :        0.000000000000 Eh       

---------------
SCF CONVERGENCE
---------------

  Last Energy change         ...   -5.9788e-07  Tolerance :   1.0000e-06
  Last MAX-Density change    ...    4.1782e-15  Tolerance :   1.0000e-05
  Last RMS-Density change    ...    3.5114e-17  Tolerance :   1.0000e-06
  Last Orbital Gradient      ...    2.0282e-05  Tolerance :   5.0000e-05
  Last Orbital Rotation      ...    7.3026e-05  Tolerance :   5.0000e-05

             **** THE GBW FILE WAS UPDATED (arbr_14_r2scan3c_nmr.gbw) ****
             **** DENSITY arbr_14_r2scan3c_nmr.scfp WAS UPDATED ****
             **** ENERGY FILE WAS UPDATED (arbr_14_r2scan3c_nmr.en.tmp) ****
             **** THE GBW FILE WAS UPDATED (arbr_14_r2scan3c_nmr.gbw) ****
             **** DENSITY arbr_14_r2scan3c_nmr.scfp WAS UPDATED ****
----------------
ORBITAL ENERGIES
----------------

  NO   OCC          E(Eh)            E(eV) 
   0   2.0000    -482.853900    -13139.1226 
   1   2.0000     -62.501642     -1700.7562 
   2   2.0000     -56.317046     -1532.4647 
   3   2.0000     -56.314679     -1532.4003 
   4   2.0000     -56.314584     -1532.3977 
   5   2.0000     -14.329257      -389.9189 
   6   2.0000     -10.265862      -279.3483 
   7   2.0000     -10.223525      -278.1963 
   8   2.0000     -10.207854      -277.7698 
   9   2.0000     -10.200706      -277.5753 
  10   2.0000     -10.195212      -277.4258 
  11   2.0000      -8.692840      -236.5442 
  12   2.0000      -6.522048      -177.4740 
  13   2.0000      -6.511765      -177.1941 
  14   2.0000      -6.511037      -177.1743 
  15   2.0000      -2.636784       -71.7505 
  16   2.0000      -2.633968       -71.6739 
  17   2.0000      -2.633411       -71.6588 
  18   2.0000      -2.624899       -71.4271 
  19   2.0000      -2.624891       -71.4269 
  20   2.0000      -0.974484       -26.5170 
  21   2.0000      -0.826165       -22.4811 
  22   2.0000      -0.818596       -22.2751 
  23   2.0000      -0.748058       -20.3557 
  24   2.0000      -0.654574       -17.8119 
  25   2.0000      -0.630770       -17.1641 
  26   2.0000      -0.537881       -14.6365 
  27   2.0000      -0.507877       -13.8200 
  28   2.0000      -0.477835       -13.0025 
  29   2.0000      -0.438091       -11.9211 
  30   2.0000      -0.431186       -11.7332 
  31   2.0000      -0.420415       -11.4401 
  32   2.0000      -0.379166       -10.3176 
  33   2.0000      -0.326776        -8.8920 
  34   2.0000      -0.306523        -8.3409 
  35   2.0000      -0.291930        -7.9438 
  36   2.0000      -0.278260        -7.5718 
  37   2.0000      -0.260787        -7.0964 
  38   0.0000      -0.047413        -1.2902 
  39   0.0000      -0.035480        -0.9655 
  40   0.0000       0.001356         0.0369 
  41   0.0000       0.047639         1.2963 
  42   0.0000       0.071453         1.9443 
  43   0.0000       0.087289         2.3752 
  44   0.0000       0.103048         2.8041 
  45   0.0000       0.104809         2.8520 
  46   0.0000       0.114692         3.1209 
  47   0.0000       0.153654         4.1811 
  48   0.0000       0.170035         4.6269 
  49   0.0000       0.188788         5.1372 
  50   0.0000       0.191109         5.2003 
  51   0.0000       0.213561         5.8113 
  52   0.0000       0.219728         5.9791 
  53   0.0000       0.228896         6.2286 
  54   0.0000       0.232203         6.3186 
  55   0.0000       0.238980         6.5030 
  56   0.0000       0.244681         6.6581 
  57   0.0000       0.271308         7.3827 
  58   0.0000       0.275639         7.5005 
  59   0.0000       0.284462         7.7406 
  60   0.0000       0.288316         7.8455 
  61   0.0000       0.313636         8.5345 
  62   0.0000       0.314620         8.5613 
  63   0.0000       0.324841         8.8394 
  64   0.0000       0.346515         9.4292 
  65   0.0000       0.357870         9.7381 
  66   0.0000       0.359173         9.7736 
  67   0.0000       0.383002        10.4220 
  68   0.0000       0.391126        10.6431 
  69   0.0000       0.407580        11.0908 
  70   0.0000       0.418067        11.3762 
  71   0.0000       0.427884        11.6433 
  72   0.0000       0.440172        11.9777 
  73   0.0000       0.446306        12.1446 
  74   0.0000       0.479615        13.0510 
  75   0.0000       0.493201        13.4207 
  76   0.0000       0.506406        13.7800 
  77   0.0000       0.510913        13.9026 
  78   0.0000       0.543062        14.7775 
  79   0.0000       0.562244        15.2994 
  80   0.0000       0.563722        15.3396 
  81   0.0000       0.599828        16.3222 
  82   0.0000       0.631268        17.1777 
  83   0.0000       0.634556        17.2671 
  84   0.0000       0.654504        17.8100 
  85   0.0000       0.660450        17.9717 
  86   0.0000       0.677303        18.4304 
  87   0.0000       0.700846        19.0710 
  88   0.0000       0.736968        20.0539 
  89   0.0000       0.749642        20.3988 
  90   0.0000       0.754949        20.5432 
  91   0.0000       0.804332        21.8870 
  92   0.0000       0.809227        22.0202 
  93   0.0000       0.852002        23.1841 
  94   0.0000       0.876079        23.8393 
  95   0.0000       0.900723        24.5099 
  96   0.0000       0.911524        24.8038 
  97   0.0000       0.975140        26.5349 
  98   0.0000       0.985977        26.8298 
  99   0.0000       1.031709        28.0742 
 100   0.0000       1.042454        28.3666 
 101   0.0000       1.078547        29.3487 
 102   0.0000       1.098049        29.8794 
 103   0.0000       1.109672        30.1957 
 104   0.0000       1.131909        30.8008 
 105   0.0000       1.178144        32.0589 
 106   0.0000       1.197191        32.5772 
 107   0.0000       1.199252        32.6333 
 108   0.0000       1.242369        33.8066 
 109   0.0000       1.256964        34.2037 
 110   0.0000       1.274139        34.6711 
 111   0.0000       1.281038        34.8588 
 112   0.0000       1.299224        35.3537 
 113   0.0000       1.341555        36.5056 
 114   0.0000       1.353453        36.8293 
 115   0.0000       1.355068        36.8733 
 116   0.0000       1.379982        37.5512 
 117   0.0000       1.414873        38.5007 
 118   0.0000       1.416860        38.5547 
 119   0.0000       1.445619        39.3373 
 120   0.0000       1.456291        39.6277 
 121   0.0000       1.462965        39.8093 
 122   0.0000       1.498620        40.7795 
 123   0.0000       1.499896        40.8142 
 124   0.0000       1.526966        41.5509 
 125   0.0000       1.529460        41.6187 
 126   0.0000       1.531503        41.6743 
 127   0.0000       1.553001        42.2593 
 128   0.0000       1.556972        42.3674 
 129   0.0000       1.570593        42.7380 
 130   0.0000       1.610152        43.8145 
 131   0.0000       1.625178        44.2233 
 132   0.0000       1.644966        44.7618 
 133   0.0000       1.646741        44.8101 
 134   0.0000       1.650508        44.9126 
 135   0.0000       1.691894        46.0388 
 136   0.0000       1.701095        46.2891 
 137   0.0000       1.708174        46.4818 
 138   0.0000       1.728200        47.0267 
 139   0.0000       1.763297        47.9817 
 140   0.0000       1.776041        48.3285 
 141   0.0000       1.828306        49.7507 
 142   0.0000       1.850742        50.3613 
 143   0.0000       1.883257        51.2460 
 144   0.0000       1.888456        51.3875 
 145   0.0000       1.945841        52.9490 
 146   0.0000       1.953837        53.1666 
 147   0.0000       1.983708        53.9794 
 148   0.0000       2.019587        54.9558 
 149   0.0000       2.024896        55.1002 
 150   0.0000       2.098987        57.1163 
 151   0.0000       2.157238        58.7014 
 152   0.0000       2.160207        58.7822 
 153   0.0000       2.195045        59.7302 
 154   0.0000       2.224375        60.5283 
 155   0.0000       2.246643        61.1343 
 156   0.0000       2.308890        62.8281 
 157   0.0000       2.347886        63.8892 
 158   0.0000       2.383886        64.8688 
 159   0.0000       2.423304        65.9415 
 160   0.0000       2.450320        66.6766 
 161   0.0000       2.521129        68.6034 
 162   0.0000       2.547697        69.3264 
 163   0.0000       2.584710        70.3335 
 164   0.0000       2.595647        70.6311 
 165   0.0000       2.599065        70.7242 
 166   0.0000       2.633634        71.6648 
 167   0.0000       2.656076        72.2755 
 168   0.0000       2.671680        72.7001 
 169   0.0000       2.676264        72.8248 
 170   0.0000       2.680427        72.9381 
 171   0.0000       2.731341        74.3236 
 172   0.0000       2.776490        75.5521 
 173   0.0000       2.779475        75.6334 
 174   0.0000       2.794137        76.0323 
 175   0.0000       2.810357        76.4737 
 176   0.0000       2.865490        77.9739 
 177   0.0000       2.883785        78.4718 
 178   0.0000       2.897693        78.8502 
 179   0.0000       2.911061        79.2140 
 180   0.0000       2.936237        79.8991 
 181   0.0000       2.951974        80.3273 
 182   0.0000       3.028450        82.4083 
 183   0.0000       3.057885        83.2093 
 184   0.0000       3.071908        83.5909 
 185   0.0000       3.086398        83.9852 
 186   0.0000       3.090828        84.1057 
 187   0.0000       3.105160        84.4957 
 188   0.0000       3.139957        85.4426 
 189   0.0000       3.142802        85.5200 
 190   0.0000       3.164309        86.1052 
 191   0.0000       3.180146        86.5362 
 192   0.0000       3.185807        86.6902 
 193   0.0000       3.228621        87.8552 
 194   0.0000       3.254690        88.5646 
 195   0.0000       3.267771        88.9206 
 196   0.0000       3.336870        90.8008 
 197   0.0000       3.362468        91.4974 
 198   0.0000       3.381755        92.0222 
 199   0.0000       3.382150        92.0330 
 200   0.0000       3.399244        92.4981 
 201   0.0000       3.425818        93.2212 
 202   0.0000       3.464960        94.2863 
 203   0.0000       3.483170        94.7819 
 204   0.0000       3.540352        96.3379 
 205   0.0000       3.544269        96.4445 
 206   0.0000       3.550558        96.6156 
 207   0.0000       3.691138       100.4410 
 208   0.0000       3.739910       101.7681 
 209   0.0000       3.745326       101.9155 
 210   0.0000       3.763296       102.4045 
 211   0.0000       3.831661       104.2648 
 212   0.0000       3.874093       105.4194 
 213   0.0000       3.900890       106.1486 
 214   0.0000       3.952382       107.5498 
 215   0.0000       3.994417       108.6936 
 216   0.0000       4.016555       109.2960 
 217   0.0000       4.035584       109.8138 
 218   0.0000       4.057791       110.4181 
 219   0.0000       4.071954       110.8035 
 220   0.0000       4.106861       111.7534 
 221   0.0000       4.166587       113.3786 
 222   0.0000       4.169555       113.4593 
 223   0.0000       4.206280       114.4587 
 224   0.0000       4.264988       116.0562 
 225   0.0000       4.288678       116.7009 
 226   0.0000       4.332757       117.9003 
 227   0.0000       4.364517       118.7645 
 228   0.0000       4.396873       119.6450 
 229   0.0000       4.399526       119.7172 
 230   0.0000       4.468022       121.5811 
 231   0.0000       4.529100       123.2431 
 232   0.0000       4.554136       123.9243 
 233   0.0000       4.673453       127.1711 
 234   0.0000       4.704012       128.0027 
 235   0.0000       4.767346       129.7261 
 236   0.0000       4.864569       132.3716 
 237   0.0000       4.912382       133.6727 
 238   0.0000       4.920350       133.8895 
 239   0.0000       4.943694       134.5247 
 240   0.0000       5.023970       136.7092 
 241   0.0000       5.041691       137.1914 
 242   0.0000       5.108784       139.0171 
 243   0.0000       5.239968       142.5868 
 244   0.0000       5.300546       144.2352 
 245   0.0000       5.336833       145.2226 
 246   0.0000       5.401149       146.9727 
 247   0.0000       5.550402       151.0341 
 248   0.0000       5.662377       154.0811 
 249   0.0000       5.787022       157.4729 
 250   0.0000       6.000712       163.2877 
 251   0.0000       7.712291       209.8621 
 252   0.0000      22.206513       604.2699 
 253   0.0000      22.543238       613.4327 
 254   0.0000      22.608024       615.1956 
 255   0.0000      22.823940       621.0710 
 256   0.0000      22.955791       624.6588 
 257   0.0000      32.403072       881.7324 

                    ********************************
                    * MULLIKEN POPULATION ANALYSIS *
                    ********************************

-----------------------
MULLIKEN ATOMIC CHARGES
-----------------------
   0 Br:   -0.073668
   1 C :    0.142768
   2 C :   -0.180464
   3 C :   -0.072631
   4 C :   -0.108624
   5 C :   -0.026359
   6 N :   -0.188019
   7 H :    0.131687
   8 H :    0.127914
   9 H :    0.120258
  10 H :    0.127139
Sum of atomic charges:   -0.0000000

--------------------------------
MULLIKEN REDUCED ORBITAL CHARGES
--------------------------------
  0 Brs       :     7.916949  s :     7.916949
      pz      :     5.923630  p :    17.100779
      px      :     5.200576
      py      :     5.976573
      dz2     :     2.006768  d :    10.048635
      dxz     :     2.015299
      dyz     :     2.000463
      dx2y2   :     2.019461
      dxy     :     2.006644
      f0      :     0.000726  f :     0.007306
      f+1     :     0.001506
      f-1     :     0.000084
      f+2     :     0.001098
      f-2     :     0.000041
      f+3     :     0.002729
      f-3     :     0.001122
  1 C s       :     3.149028  s :     3.149028
      pz      :     0.936130  p :     2.511522
      px      :     0.764077
      py      :     0.811315
      dz2     :     0.005999  d :     0.183313
      dxz     :     0.026221
      dyz     :     0.032165
      dx2y2   :     0.072084
      dxy     :     0.046843
      f0      :     0.002178  f :     0.013370
      f+1     :     0.000978
      f-1     :     0.000891
      f+2     :     0.001026
      f-2     :     0.001452
      f+3     :     0.002147
      f-3     :     0.004698
  2 C s       :     3.228227  s :     3.228227
      pz      :     0.980126  p :     2.864202
      px      :     0.943589
      py      :     0.940487
      dz2     :     0.005741  d :     0.080598
      dxz     :     0.015998
      dyz     :     0.008439
      dx2y2   :     0.015991
      dxy     :     0.034428
      f0      :     0.001550  f :     0.007437
      f+1     :     0.000523
      f-1     :     0.000623
      f+2     :     0.000846
      f-2     :     0.000393
      f+3     :     0.001289
      f-3     :     0.002213
  3 C s       :     3.188755  s :     3.188755
      pz      :     0.914555  p :     2.798410
      px      :     0.920454
      py      :     0.963402
      dz2     :     0.004842  d :     0.078047
      dxz     :     0.018803
      dyz     :     0.010262
      dx2y2   :     0.019386
      dxy     :     0.024754
      f0      :     0.001551  f :     0.007418
      f+1     :     0.000457
      f-1     :     0.000557
      f+2     :     0.001039
      f-2     :     0.000361
      f+3     :     0.001248
      f-3     :     0.002205
  4 C s       :     3.189180  s :     3.189180
      pz      :     0.979687  p :     2.838678
      px      :     0.966988
      py      :     0.892003
      dz2     :     0.005478  d :     0.073500
      dxz     :     0.005238
      dyz     :     0.018329
      dx2y2   :     0.029110
      dxy     :     0.015345
      f0      :     0.001534  f :     0.007267
      f+1     :     0.000646
      f-1     :     0.000440
      f+2     :     0.000159
      f-2     :     0.001042
      f+3     :     0.001273
      f-3     :     0.002174
  5 C s       :     3.193076  s :     3.193076
      pz      :     0.912240  p :     2.717457
      px      :     0.836630
      py      :     0.968587
      dz2     :     0.003746  d :     0.105166
      dxz     :     0.026452
      dyz     :     0.009447
      dx2y2   :     0.029242
      dxy     :     0.036279
      f0      :     0.001803  f :     0.010660
      f+1     :     0.000946
      f-1     :     0.000571
      f+2     :     0.001330
      f-2     :     0.000530
      f+3     :     0.002039
      f-3     :     0.003440
  6 N s       :     3.562924  s :     3.562924
      pz      :     1.104445  p :     3.556223
      px      :     1.115996
      py      :     1.335782
      dz2     :     0.005990  d :     0.065029
      dxz     :     0.012340
      dyz     :     0.011251
      dx2y2   :     0.018174
      dxy     :     0.017274
      f0      :     0.000659  f :     0.003843
      f+1     :     0.000288
      f-1     :     0.000227
      f+2     :     0.000565
      f-2     :     0.000342
      f+3     :     0.000677
      f-3     :     0.001085
  7 H s       :     0.845609  s :     0.845609
      pz      :     0.004746  p :     0.022705
      px      :     0.006511
      py      :     0.011447
  8 H s       :     0.849818  s :     0.849818
      pz      :     0.004363  p :     0.022269
      px      :     0.006555
      py      :     0.011351
  9 H s       :     0.857177  s :     0.857177
      pz      :     0.004855  p :     0.022564
      px      :     0.014106
      py      :     0.003603
 10 H s       :     0.851064  s :     0.851064
      pz      :     0.004291  p :     0.021796
      px      :     0.004806
      py      :     0.012698


                     *******************************
                     * LOEWDIN POPULATION ANALYSIS *
                     *******************************

----------------------
LOEWDIN ATOMIC CHARGES
----------------------
   0 Br:    0.334932
   1 C :   -0.465580
   2 C :   -0.149174
   3 C :   -0.112293
   4 C :   -0.146011
   5 C :   -0.192417
   6 N :    0.148300
   7 H :    0.148309
   8 H :    0.148592
   9 H :    0.146304
  10 H :    0.139039

-------------------------------
LOEWDIN REDUCED ORBITAL CHARGES
-------------------------------
  0 Brs       :     7.599916  s :     7.599916
      pz      :     5.859499  p :    16.938642
      px      :     5.195116
      py      :     5.884028
      dz2     :     2.016374  d :    10.112125
      dxz     :     2.030673
      dyz     :     2.000544
      dx2y2   :     2.043869
      dxy     :     2.020665
      f0      :     0.001349  f :     0.014385
      f+1     :     0.002893
      f-1     :     0.000186
      f+2     :     0.002068
      f-2     :     0.000027
      f+3     :     0.005312
      f-3     :     0.002549
  1 C s       :     2.793555  s :     2.793555
      pz      :     0.885345  p :     2.926507
      px      :     0.967736
      py      :     1.073427
      dz2     :     0.045605  d :     0.668969
      dxz     :     0.073199
      dyz     :     0.097711
      dx2y2   :     0.279061
      dxy     :     0.173394
      f0      :     0.004896  f :     0.076548
      f+1     :     0.004527
      f-1     :     0.006643
      f+2     :     0.005774
      f-2     :     0.009989
      f+3     :     0.013098
      f-3     :     0.031622
  2 C s       :     2.770103  s :     2.770103
      pz      :     0.894551  p :     2.959293
      px      :     1.056609
      py      :     1.008134
      dz2     :     0.027768  d :     0.375470
      dxz     :     0.054049
      dyz     :     0.026710
      dx2y2   :     0.112702
      dxy     :     0.154241
      f0      :     0.003349  f :     0.044308
      f+1     :     0.004283
      f-1     :     0.003892
      f+2     :     0.005885
      f-2     :     0.003022
      f+3     :     0.008852
      f-3     :     0.015024
  3 C s       :     2.766648  s :     2.766648
      pz      :     0.842502  p :     2.907410
      px      :     1.049006
      py      :     1.015902
      dz2     :     0.026556  d :     0.393274
      dxz     :     0.062880
      dyz     :     0.031295
      dx2y2   :     0.117860
      dxy     :     0.154684
      f0      :     0.003106  f :     0.044961
      f+1     :     0.004151
      f-1     :     0.003629
      f+2     :     0.006915
      f-2     :     0.002574
      f+3     :     0.008430
      f-3     :     0.016157
  4 C s       :     2.768628  s :     2.768628
      pz      :     0.894718  p :     2.961246
      px      :     0.995616
      py      :     1.070912
      dz2     :     0.027030  d :     0.372143
      dxz     :     0.013338
      dyz     :     0.066464
      dx2y2   :     0.160284
      dxy     :     0.105027
      f0      :     0.003228  f :     0.043994
      f+1     :     0.003462
      f-1     :     0.004549
      f+2     :     0.001258
      f-2     :     0.007236
      f+3     :     0.008741
      f-3     :     0.015519
  5 C s       :     2.776343  s :     2.776343
      pz      :     0.850688  p :     2.861405
      px      :     0.984051
      py      :     1.026666
      dz2     :     0.032504  d :     0.492118
      dxz     :     0.082218
      dyz     :     0.025361
      dx2y2   :     0.154863
      dxy     :     0.197172
      f0      :     0.004169  f :     0.062551
      f+1     :     0.006462
      f-1     :     0.003574
      f+2     :     0.008588
      f-2     :     0.003589
      f+3     :     0.011670
      f-3     :     0.024499
  6 N s       :     3.033234  s :     3.033234
      pz      :     1.013775  p :     3.578875
      px      :     1.219496
      py      :     1.345604
      dz2     :     0.018646  d :     0.220307
      dxz     :     0.037602
      dyz     :     0.022710
      dx2y2   :     0.072050
      dxy     :     0.069299
      f0      :     0.001243  f :     0.019284
      f+1     :     0.001843
      f-1     :     0.001245
      f+2     :     0.003087
      f-2     :     0.001164
      f+3     :     0.004110
      f-3     :     0.006593
  7 H s       :     0.791437  s :     0.791437
      pz      :     0.013658  p :     0.060255
      px      :     0.017245
      py      :     0.029352
  8 H s       :     0.793305  s :     0.793305
      pz      :     0.012141  p :     0.058103
      px      :     0.017430
      py      :     0.028532
  9 H s       :     0.794309  s :     0.794309
      pz      :     0.013682  p :     0.059386
      px      :     0.034767
      py      :     0.010938
 10 H s       :     0.803351  s :     0.803351
      pz      :     0.012171  p :     0.057611
      px      :     0.013194
      py      :     0.032246


                      *****************************
                      * MAYER POPULATION ANALYSIS *
                      *****************************

  NA   - Mulliken gross atomic population
  ZA   - Total nuclear charge
  QA   - Mulliken gross atomic charge
  VA   - Mayer's total valence
  BVA  - Mayer's bonded valence
  FA   - Mayer's free valence

  ATOM       NA         ZA         QA         VA         BVA        FA
  0 Br    35.0737    35.0000    -0.0737     1.1869     1.1869     0.0000
  1 C      5.8572     6.0000     0.1428     4.0977     4.0977     0.0000
  2 C      6.1805     6.0000    -0.1805     3.9349     3.9349     0.0000
  3 C      6.0726     6.0000    -0.0726     3.9227     3.9227    -0.0000
  4 C      6.1086     6.0000    -0.1086     3.8848     3.8848    -0.0000
  5 C      6.0264     6.0000    -0.0264     4.0142     4.0142    -0.0000
  6 N      7.1880     7.0000    -0.1880     3.0993     3.0993    -0.0000
  7 H      0.8683     1.0000     0.1317     0.9756     0.9756     0.0000
  8 H      0.8721     1.0000     0.1279     0.9667     0.9667     0.0000
  9 H      0.8797     1.0000     0.1203     0.9711     0.9711    -0.0000
 10 H      0.8729     1.0000     0.1271     0.9682     0.9682    -0.0000

  Mayer bond orders larger than 0.100000
B(  0-Br,  1-C ) :   1.0422 B(  1-C ,  2-C ) :   1.3862 B(  1-C ,  6-N ) :   1.5204 
B(  2-C ,  3-C ) :   1.4283 B(  2-C ,  7-H ) :   0.9556 B(  3-C ,  4-C ) :   1.4123 
B(  3-C ,  8-H ) :   0.9565 B(  4-C ,  5-C ) :   1.4159 B(  4-C ,  9-H ) :   0.9558 
B(  5-C ,  6-N ) :   1.4527 B(  5-C , 10-H ) :   0.9726 

-------
TIMINGS
-------

Total SCF time: 0 days 0 hours 0 min 12 sec 

Total time                  ....      12.758 sec
Sum of individual times     ....      12.353 sec  ( 96.8%)

Fock matrix formation       ....      10.954 sec  ( 85.9%)
  Split-RI-J                ....       1.257 sec  ( 11.5% of F)
  Chain of spheres X        ....       7.894 sec  ( 72.1% of F)
  XC integration            ....       1.714 sec  ( 15.6% of F)
    Basis function eval.    ....       0.384 sec  ( 22.4% of XC)
    Density eval.           ....       0.357 sec  ( 20.8% of XC)
    XC-Functional eval.     ....       0.059 sec  (  3.5% of XC)
    XC-Potential eval.      ....       0.530 sec  ( 30.9% of XC)
Diagonalization             ....       0.165 sec  (  1.3%)
Density matrix formation    ....       0.011 sec  (  0.1%)
Population analysis         ....       0.020 sec  (  0.2%)
Initial guess               ....       0.120 sec  (  0.9%)
Orbital Transformation      ....       0.000 sec  (  0.0%)
Orbital Orthonormalization  ....       0.000 sec  (  0.0%)
DIIS solution               ....       0.095 sec  (  0.7%)
SOSCF solution              ....       0.057 sec  (  0.4%)
Grid generation             ....       0.931 sec  (  7.3%)

Maximum memory used throughout the entire SCF-calculation: 72.2 MB

-------------------------   --------------------
FINAL SINGLE POINT ENERGY     -2821.669707459886
-------------------------   --------------------


                            ***************************************
                            *     ORCA property calculations      *
                            ***************************************

                                    ---------------------
                                    Active property flags
                                    ---------------------
   (+) Dipole Moment
   (+) Chemical Shifts
   (+) Nuclear properties (Hyperfine,Quadrupole)


------------------------------------------------------------------------------
                       ORCA ELECTRIC PROPERTIES CALCULATION
------------------------------------------------------------------------------

Dipole Moment Calculation                       ... on
Quadrupole Moment Calculation                   ... off
Polarizability Calculation                      ... off
GBWName                                         ... arbr_14_r2scan3c_nmr.gbw
Electron density                                ... arbr_14_r2scan3c_nmr.scfp
The origin for moment calculation is the CENTER OF MASS  = ( 0.320701, -0.023427 -0.000006)

-------------
DIPOLE MOMENT
-------------
                                X             Y             Z
Electronic contribution:     23.23684      -1.10604      -0.00001
Nuclear contribution   :    -24.37310       1.78073       0.00002
                        -----------------------------------------
Total Dipole Moment    :     -1.13626       0.67469       0.00001
                        -----------------------------------------
Magnitude (a.u.)       :      1.32148
Magnitude (Debye)      :      3.35893



--------------------
Rotational spectrum 
--------------------
 
Rotational constants in cm-1:     0.198373     0.034075     0.029080 
Rotational constants in MHz :  5947.064147  1021.547128   871.795837 

 Dipole components along the rotational axes: 
x,y,z [a.u.] :     1.135446     0.676065     0.000009 
x,y,z [Debye]:     2.886075     1.718421     0.000024 

 


           ************************************************************
           *        Program running with 16 parallel MPI-processes    *
           *              working on a common directory               *
           ************************************************************
------------------------------------------------------------------------------
                                ORCA EPR/NMR CALCULATION
------------------------------------------------------------------------------

GBWName                      ... arbr_14_r2scan3c_nmr.gbw
Electron density             ... arbr_14_r2scan3c_nmr.scfp
Spin density                 ... arbr_14_r2scan3c_nmr.scfr
Treatment of gauge           ... GIAO (approximations 1/2el = 0,0)
Details of the CP(SCF) procedure:
       Solver   = POPLE   
       MaxIter  =    64   
       Tolerance=    1.000e-03
       COSX Grid=     1   
       Op-0     =   0- 37 =>  38-257
Multiplicity                 ... 1
g-tensor                     ... 0
NMR chemical shifts          ... 1
NMR spin-spin couplings      ... 0
NMR spectrum                 ... 0
Number of nuclei for epr/nmr ... 11
   Nucleus:   0Br
       Hyperfine : Isotope=   79 I=   1.500 P= 134.140
       Quadrupole: Isotope=   79 I=   1.500 Q=   0.313
       Spin-Orbit: Zeff=  30.100
       Nuclear Spin-Spin: Gn=   0.000
       EPRNMR Input: 
       rho(0)=N f(grad)=N a(iso)=N a(dip)=N a(orb)=N sigma(nmr)=Y spin-spin(nmr)=all-N,DSO-N,PSO-N,FC-N,SD-N
   Nucleus:   1C 
       Hyperfine : Isotope=   13 I=   0.500 P= 134.188
       Quadrupole: Isotope=   13 I=   0.500 Q=   0.000
       Spin-Orbit: Zeff=   3.600
       Nuclear Spin-Spin: Gn=   0.000
       EPRNMR Input: 
       rho(0)=N f(grad)=N a(iso)=N a(dip)=N a(orb)=N sigma(nmr)=Y spin-spin(nmr)=all-N,DSO-N,PSO-N,FC-N,SD-N
   Nucleus:   2C 
       Hyperfine : Isotope=   13 I=   0.500 P= 134.188
       Quadrupole: Isotope=   13 I=   0.500 Q=   0.000
       Spin-Orbit: Zeff=   3.600
       Nuclear Spin-Spin: Gn=   0.000
       EPRNMR Input: 
       rho(0)=N f(grad)=N a(iso)=N a(dip)=N a(orb)=N sigma(nmr)=Y spin-spin(nmr)=all-N,DSO-N,PSO-N,FC-N,SD-N
   Nucleus:   3C 
       Hyperfine : Isotope=   13 I=   0.500 P= 134.188
       Quadrupole: Isotope=   13 I=   0.500 Q=   0.000
       Spin-Orbit: Zeff=   3.600
       Nuclear Spin-Spin: Gn=   0.000
       EPRNMR Input: 
       rho(0)=N f(grad)=N a(iso)=N a(dip)=N a(orb)=N sigma(nmr)=Y spin-spin(nmr)=all-N,DSO-N,PSO-N,FC-N,SD-N
   Nucleus:   4C 
       Hyperfine : Isotope=   13 I=   0.500 P= 134.188
       Quadrupole: Isotope=   13 I=   0.500 Q=   0.000
       Spin-Orbit: Zeff=   3.600
       Nuclear Spin-Spin: Gn=   0.000
       EPRNMR Input: 
       rho(0)=N f(grad)=N a(iso)=N a(dip)=N a(orb)=N sigma(nmr)=Y spin-spin(nmr)=all-N,DSO-N,PSO-N,FC-N,SD-N
   Nucleus:   5C 
       Hyperfine : Isotope=   13 I=   0.500 P= 134.188
       Quadrupole: Isotope=   13 I=   0.500 Q=   0.000
       Spin-Orbit: Zeff=   3.600
       Nuclear Spin-Spin: Gn=   0.000
       EPRNMR Input: 
       rho(0)=N f(grad)=N a(iso)=N a(dip)=N a(orb)=N sigma(nmr)=Y spin-spin(nmr)=all-N,DSO-N,PSO-N,FC-N,SD-N
   Nucleus:   6N 
       Hyperfine : Isotope=   14 I=   1.000 P=  38.571
       Quadrupole: Isotope=   14 I=   1.000 Q=   0.020
       Spin-Orbit: Zeff=   4.550
       Nuclear Spin-Spin: Gn=   0.000
       EPRNMR Input: 
       rho(0)=N f(grad)=N a(iso)=N a(dip)=N a(orb)=N sigma(nmr)=Y spin-spin(nmr)=all-N,DSO-N,PSO-N,FC-N,SD-N
   Nucleus:   7H 
       Hyperfine : Isotope=    1 I=   0.500 P= 533.552
       Quadrupole: Isotope=    2 I=   1.000 Q=   0.003
       Spin-Orbit: Zeff=   1.000
       Nuclear Spin-Spin: Gn=   0.000
       EPRNMR Input: 
       rho(0)=N f(grad)=N a(iso)=N a(dip)=N a(orb)=N sigma(nmr)=Y spin-spin(nmr)=all-N,DSO-N,PSO-N,FC-N,SD-N
   Nucleus:   8H 
       Hyperfine : Isotope=    1 I=   0.500 P= 533.552
       Quadrupole: Isotope=    2 I=   1.000 Q=   0.003
       Spin-Orbit: Zeff=   1.000
       Nuclear Spin-Spin: Gn=   0.000
       EPRNMR Input: 
       rho(0)=N f(grad)=N a(iso)=N a(dip)=N a(orb)=N sigma(nmr)=Y spin-spin(nmr)=all-N,DSO-N,PSO-N,FC-N,SD-N
   Nucleus:   9H 
       Hyperfine : Isotope=    1 I=   0.500 P= 533.552
       Quadrupole: Isotope=    2 I=   1.000 Q=   0.003
       Spin-Orbit: Zeff=   1.000
       Nuclear Spin-Spin: Gn=   0.000
       EPRNMR Input: 
       rho(0)=N f(grad)=N a(iso)=N a(dip)=N a(orb)=N sigma(nmr)=Y spin-spin(nmr)=all-N,DSO-N,PSO-N,FC-N,SD-N
   Nucleus:  10H 
       Hyperfine : Isotope=    1 I=   0.500 P= 533.552
       Quadrupole: Isotope=    2 I=   1.000 Q=   0.003
       Spin-Orbit: Zeff=   1.000
       Nuclear Spin-Spin: Gn=   0.000
       EPRNMR Input: 
       rho(0)=N f(grad)=N a(iso)=N a(dip)=N a(orb)=N sigma(nmr)=Y spin-spin(nmr)=all-N,DSO-N,PSO-N,FC-N,SD-N
Forming RHS of the CP-SCF equations         ... 
Calculating right hand sides for GIAO treatment        ... 
  Entering RightHandSide GIAO. ScalHFX=    0.2000 NeedHFX=1
     -> 1-electron GIAO integrals will be done analytically
     -> RIJCOSX used in SCF. Same chosen for GIAO calculation.
     Making grid for GIAO integrations   ...

GRID GIAO
---------

General Integration Accuracy     IntAcc      ... 4.388
Radial Grid Type                 RadialGrid  ... OptM3 with GC (2021)
Angular Grid (max. ang.)         AngularGrid ... 4 (Lebedev-302)
Angular grid pruning method      GridPruning ... 4 (adaptive)
Weight generation scheme         WeightScheme... Becke
Basis function cutoff            BFCut       ... 1.0000e-10
Integration weight cutoff        WCut        ... 1.0000e-14
Angular grids for H and He will be reduced by one unit
Partially contracted basis set               ... off
Rotationally invariant grid construction     ... off

Total number of grid points                  ...    60368
Total number of batches                      ...      949
Average number of points per batch           ...       63
Average number of grid points per atom       ...     5488

  One-electron GIAO integrals (SHARK)     ... done
  Calculating G(B)[P]                     ... (RI-J: SHARK-ok) (COSX-ok) (add-J+K:ok) => dG/dB done
  DFT XC-terms                            ... done
  Extracting occupied and virtual blocks  ... 
  Operator  0  NO=  38 NV= 220 
  Transforming and RHS contribution       ... done
  Adding eps_i * S(B)_ai terms            ... done
  Projecting overlap derivatives          ... done
  Building G[dS/dB_ij] (COSX)             ... done
  Transforming to MO basis                ... done
  Summing G[dS/dB_ij] into RHS contribs.  ... done

  GIAO profiling information: 
    Total GIAO time               ...       4.5 sec
       GIAO 1-electron integrals  ...       0.0 sec (  0.5%)
       GIAO G(dS/dB) terms        ...       0.4 sec (  8.9%)
       GIAO RI-J                  ...       0.6 sec ( 12.7%)
       GIAO COSX                  ...       1.2 sec ( 27.5%)
       GIAO XC-terms              ...       1.7 sec ( 38.9%)
       Right hand side assembly   ...       0.0 sec (  0.3%)

  GIAO right hand side done


------------------------------------------------------------------------------
                           ORCA CP-SCF CALCULATION
------------------------------------------------------------------------------

Input orbitals are from        ... arbr_14_r2scan3c_nmr.gbw
Input Perturbation             ... arbr_14_r2scan3c_nmr.pin.tmp
Wavefunction output            ... arbr_14_r2scan3c_nmr.pout.tmp
Perturbation mode              ... Imaginary perturbation
Solver                         ... POPLE
Max. number of iterations      ... 64
Convergence tolerance          ... 1.000e-03
Integral handling              ... Direct
DFT GridXC                     ... 1
COSX GridX                     ... 1
COSX IntAccX                   ... 3.067
COSX Algorithm                 ... Auto
Number of perturbations        ... 3
Number of operators            ... 1
Orbital ranges used for CP-SCF:
 Operator 0:  Orbitals   0... 37  to  38...257
Variables per perturbation     ... 8360
DFT calculation                         ... on
XC functional terms                     ... off
Hybrid DFT                              ... on
   Exchange mixing (SCF)                ...  0.200
   Exchange mixing (CP-SCF)             ...  0.200
   GGA exch. scaling(SCF)               ...  0.720
   GGA exch. scaling (CP-SCF)           ...  0.720
   GGA corr. scaling (SCF)              ...  0.810
   GGA corr. scaling (CP-SCF)           ...  0.810

CP-SCF GRID
-----------

General Integration Accuracy     IntAcc      ... 3.467
Radial Grid Type                 RadialGrid  ... OptM3 with GC (2021)
Angular Grid (max. ang.)         AngularGrid ... 1 (Lebedev-50)
Angular grid pruning method      GridPruning ... 4 (adaptive)
Weight generation scheme         WeightScheme... Becke
Basis function cutoff            BFCut       ... 1.0000e-10
Integration weight cutoff        WCut        ... 1.0000e-14
Angular grids for H and He will be reduced by one unit
Partially contracted basis set               ... off
Rotationally invariant grid construction     ... off

Total number of grid points                  ...    11631
Total number of batches                      ...      188
Average number of points per batch           ...       61
Average number of grid points per atom       ...     1057

CP-SCF GRIDX
------------

General Integration Accuracy     IntAcc      ... 3.067
Radial Grid Type                 RadialGrid  ... OptM3 with GC (2021)
Angular Grid (max. ang.)         AngularGrid ... 1 (Lebedev-50)
Angular grid pruning method      GridPruning ... 4 (adaptive)
Weight generation scheme         WeightScheme... Becke
Basis function cutoff            BFCut       ... 1.0000e-10
Integration weight cutoff        WCut        ... 1.0000e-14
Angular grids for H and He will be reduced by one unit
Partially contracted basis set               ... on
Rotationally invariant grid construction     ... off

Total number of grid points                  ...     4147
Total number of batches                      ...       72
Average number of points per batch           ...       57
Average number of grid points per atom       ...      377

Memory available               ... 3979.2 MB
Memory needed per perturbation ...   2.2 MB
Perturbations treated per batch... 3
Number of batches              ... 1
     CP-SCF ITERATION   0:   5.1668e-01 (   0.4 sec   0/  3 done)
     CP-SCF ITERATION   1:   1.6362e-02 (   0.4 sec   0/  3 done)
     CP-SCF ITERATION   2:   1.0242e-03 (   0.4 sec   2/  3 done)
     CP-SCF ITERATION   3:   7.8478e-05 (   0.3 sec   3/  3 done)
                    *** THE CP-SCF HAS CONVERGED ***

Forming final perturbed densities           ... done
Transforming perturbed density to AO basis  ... done

Magnetic field perturbation calculated in  6.229 sec

---------------
CHEMICAL SHIFTS
---------------

Note: using conversion factor for au to ppm alpha^2/2 =   26.625677252 
GIAO: Analytic para- and diamagnetic shielding integrals (SHARK)       ...done
 --------------
 Nucleus   0Br:
 --------------

Diamagnetic contribution to the shielding tensor (ppm) : 
          3129.726          0.157         0.000
            -0.955       3119.688        -0.000
             0.000          0.000      3125.560

Paramagnetic contribution to the shielding tensor (ppm): 
          -229.258       -120.534         0.039
            19.474      -1686.717        -0.001
             0.023         -0.004     -1820.964

Total shielding tensor (ppm): 
          2900.468       -120.377         0.039
            18.519       1432.971        -0.001
             0.024         -0.004      1304.596


 Diagonalized sT*s matrix:
 
 sDSO          3125.560         3119.674         3129.741  iso=    3124.992
 sPSO         -1820.964        -1688.091         -227.885  iso=   -1245.646
        ---------------  ---------------  ---------------
 Total         1304.596         1431.583         2901.856  iso=    1879.345

 --------------
 Nucleus   1C :
 --------------

Diamagnetic contribution to the shielding tensor (ppm) : 
           264.726         -1.371         0.001
            -2.811        256.743        -0.000
            -0.000          0.000       220.740

Paramagnetic contribution to the shielding tensor (ppm): 
          -338.359         23.703        -0.001
           -18.719       -221.746        -0.000
             0.001         -0.001      -141.795

Total shielding tensor (ppm): 
           -73.633         22.332        -0.000
           -21.530         34.997        -0.001
             0.001         -0.000        78.945


 Diagonalized sT*s matrix:
 
 sDSO           256.539          220.740          264.930  iso=     247.403
 sPSO          -239.955         -141.795         -320.151  iso=    -233.967
        ---------------  ---------------  ---------------
 Total           16.584           78.945          -55.220  iso=      13.436

 --------------
 Nucleus   2C :
 --------------

Diamagnetic contribution to the shielding tensor (ppm) : 
           271.212         -2.318        -0.000
            -0.878        260.672         0.000
            -0.001          0.000       239.077

Paramagnetic contribution to the shielding tensor (ppm): 
          -228.811        -27.143         0.001
           -50.991       -299.216        -0.002
            -0.002         -0.004       -90.632

Total shielding tensor (ppm): 
            42.401        -29.461         0.001
           -51.869        -38.544        -0.002
            -0.003         -0.004       148.445


 Diagonalized sT*s matrix:
 
 sDSO           262.549          269.335          239.077  iso=     256.987
 sPSO          -270.354         -257.673          -90.632  iso=    -206.220
        ---------------  ---------------  ---------------
 Total           -7.805           11.662          148.445  iso=      50.767

 --------------
 Nucleus   3C :
 --------------

Diamagnetic contribution to the shielding tensor (ppm) : 
           265.736          3.541        -0.000
             2.663        260.624        -0.000
            -0.001          0.000       231.165

Paramagnetic contribution to the shielding tensor (ppm): 
          -266.759         37.455         0.002
            39.748       -307.355        -0.001
             0.003         -0.002       -57.307

Total shielding tensor (ppm): 
            -1.023         40.996         0.002
            42.412        -46.731        -0.001
             0.002         -0.002       173.858


 Diagonalized sT*s matrix:
 
 sDSO           267.105          259.255          231.165  iso=     252.508
 sPSO          -243.447         -330.666          -57.307  iso=    -210.474
        ---------------  ---------------  ---------------
 Total           23.658          -71.411          173.858  iso=      42.035

 --------------
 Nucleus   4C :
 --------------

Diamagnetic contribution to the shielding tensor (ppm) : 
           263.340          2.010        -0.000
             0.985        265.515        -0.000
             0.001          0.000       229.689

Paramagnetic contribution to the shielding tensor (ppm): 
          -319.091        -10.226         0.003
             9.982       -210.292        -0.000
             0.004         -0.000       -54.354

Total shielding tensor (ppm): 
           -55.751         -8.216         0.003
            10.967         55.224        -0.000
             0.004          0.000       175.335


 Diagonalized sT*s matrix:
 
 sDSO           262.989          265.866          229.689  iso=     252.848
 sPSO          -261.729         -267.653          -54.354  iso=    -194.579
        ---------------  ---------------  ---------------
 Total            1.260           -1.787          175.335  iso=      58.269

 --------------
 Nucleus   5C :
 --------------

Diamagnetic contribution to the shielding tensor (ppm) : 
           264.432         -4.976        -0.000
            -5.770        259.097         0.000
            -0.001         -0.001       233.371

Paramagnetic contribution to the shielding tensor (ppm): 
          -277.815        -53.085         0.002
           -35.261       -299.937         0.001
             0.003          0.003       -94.827

Total shielding tensor (ppm): 
           -13.383        -58.061         0.002
           -41.031        -40.840         0.001
             0.002          0.002       138.544


 Diagonalized sT*s matrix:
 
 sDSO           267.724          255.804          233.371  iso=     252.300
 sPSO          -245.785         -331.967          -94.827  iso=    -224.193
        ---------------  ---------------  ---------------
 Total           21.939          -76.162          138.544  iso=      28.107

 --------------
 Nucleus   6N :
 --------------

Diamagnetic contribution to the shielding tensor (ppm) : 
           339.219         17.289        -0.000
            19.354        322.489        -0.000
            -0.000         -0.000       303.321

Paramagnetic contribution to the shielding tensor (ppm): 
          -644.953       -104.786         0.005
          -102.482       -540.232         0.005
             0.004          0.009       -60.524

Total shielding tensor (ppm): 
          -305.735        -87.497         0.005
           -83.128       -217.742         0.004
             0.004          0.009       242.797


 Diagonalized sT*s matrix:
 
 sDSO           310.729          303.321          350.979  iso=     321.676
 sPSO          -476.482          -60.524         -708.703  iso=    -415.237
        ---------------  ---------------  ---------------
 Total         -165.753          242.797         -357.724  iso=     -93.560

 --------------
 Nucleus   7H :
 --------------

Diamagnetic contribution to the shielding tensor (ppm) : 
            32.540          5.236        -0.000
             5.336         39.888         0.000
            -0.000          0.000        24.746

Paramagnetic contribution to the shielding tensor (ppm): 
            -3.751         -8.967        -0.000
            -9.356        -15.877        -0.000
            -0.000         -0.000        -4.424

Total shielding tensor (ppm): 
            28.789         -3.731        -0.000
            -4.020         24.011        -0.000
            -0.000         -0.000        20.322


 Diagonalized sT*s matrix:
 
 sDSO            24.746           42.644           29.784  iso=      32.391
 sPSO            -4.424          -20.796            1.168  iso=      -8.017
        ---------------  ---------------  ---------------
 Total           20.322           21.847           30.952  iso=      24.374

 --------------
 Nucleus   8H :
 --------------

Diamagnetic contribution to the shielding tensor (ppm) : 
            31.560         -7.803        -0.000
            -7.910         38.345         0.000
            -0.000          0.000        17.608

Paramagnetic contribution to the shielding tensor (ppm): 
            -4.497          9.367        -0.000
             9.560        -14.090        -0.000
             0.000         -0.000         4.031

Total shielding tensor (ppm): 
            27.063          1.565        -0.000
             1.650         24.255        -0.000
            -0.000          0.000        21.639


 Diagonalized sT*s matrix:
 
 sDSO            17.608           43.097           26.808  iso=      29.171
 sPSO             4.031          -19.572            0.985  iso=      -4.852
        ---------------  ---------------  ---------------
 Total           21.639           23.525           27.793  iso=      24.319

 --------------
 Nucleus   9H :
 --------------

Diamagnetic contribution to the shielding tensor (ppm) : 
            44.573          1.550        -0.000
             1.152         26.340        -0.000
            -0.000          0.000        14.520

Paramagnetic contribution to the shielding tensor (ppm): 
           -20.832         -1.483         0.000
            -0.188          1.550         0.000
             0.000         -0.000         8.051

Total shielding tensor (ppm): 
            23.741          0.067        -0.000
             0.965         27.890        -0.000
             0.000         -0.000        22.571


 Diagonalized sT*s matrix:
 
 sDSO            14.520           43.915           26.998  iso=      28.478
 sPSO             8.051          -20.236            0.955  iso=      -3.744
        ---------------  ---------------  ---------------
 Total           22.571           23.679           27.953  iso=      24.734

 --------------
 Nucleus  10H :
 --------------

Diamagnetic contribution to the shielding tensor (ppm) : 
            29.894          7.451        -0.000
             7.153         40.233        -0.000
            -0.000         -0.000        18.447

Paramagnetic contribution to the shielding tensor (ppm): 
            -4.258         -9.000         0.000
            -9.567        -15.624         0.000
             0.000          0.000         1.235

Total shielding tensor (ppm): 
            25.636         -1.548        -0.000
            -2.414         24.609         0.000
            -0.000         -0.000        19.682


 Diagonalized sT*s matrix:
 
 sDSO            18.447           43.483           26.644  iso=      29.525
 sPSO             1.235          -20.407            0.525  iso=      -6.216
        ---------------  ---------------  ---------------
 Total           19.682           23.076           27.169  iso=      23.309



--------------------------------
CHEMICAL SHIELDING SUMMARY (ppm)
--------------------------------


  Nucleus  Element    Isotropic     Anisotropy
  -------  -------  ------------   ------------
      0       Br        1879.345       1533.766 
      1       C           13.436       -102.985 
      2       C           50.767        146.516 
      3       C           42.035        197.735 
      4       C           58.269        175.598 
      5       C           28.107        165.656 
      6       N          -93.560       -396.246 
      7       H           24.374          9.868 
      8       H           24.319          5.211 
      9       H           24.734          4.828 
     10       H           23.309          5.790 



Maximum memory used throughout the entire EPRNMR-calculation: 32.9 MB

Timings for individual modules:

Sum of individual times         ...       20.782 sec (=   0.346 min)
GTO integral calculation        ...        0.628 sec (=   0.010 min)   3.0 %
SCF iterations                  ...       13.084 sec (=   0.218 min)  63.0 %
EPR/NMR calculation             ...        7.070 sec (=   0.118 min)  34.0 %
                             ****ORCA TERMINATED NORMALLY****
TOTAL RUN TIME: 0 days 0 hours 0 minutes 21 seconds 319 msec
