
                                 *****************
                                 * O   R   C   A *
                                 *****************

                                            #,                                       
                                            ###                                      
                                            ####                                     
                                            #####                                    
                                            ######                                   
                                           ########,                                 
                                     ,,################,,,,,                         
                               ,,#################################,,                 
                          ,,##########################################,,             
                       ,#########################################, ''#####,          
                    ,#############################################,,   '####,        
                  ,##################################################,,,,####,       
                ,###########''''           ''''###############################       
              ,#####''   ,,,,##########,,,,          '''####'''          '####       
            ,##' ,,,,###########################,,,                        '##       
           ' ,,###''''                  '''############,,,                           
         ,,##''                                '''############,,,,        ,,,,,,###''
      ,#''                                            '''#######################'''  
     '                                                          ''''####''''         
             ,#######,   #######,   ,#######,      ##                                
            ,#'     '#,  ##    ##  ,#'     '#,    #''#        ######   ,####,        
            ##       ##  ##   ,#'  ##            #'  '#       #        #'  '#        
            ##       ##  #######   ##           ,######,      #####,   #    #        
            '#,     ,#'  ##    ##  '#,     ,#' ,#      #,         ##   #,  ,#        
             '#######'   ##     ##  '#######'  #'      '#     #####' # '####'        



                  #######################################################
                  #                        -***-                        #
                  #          Department of theory and spectroscopy      #
                  #    Directorship and core code : Frank Neese         #
                  #        Max Planck Institute fuer Kohlenforschung    #
                  #                Kaiser Wilhelm Platz 1               #
                  #                 D-45470 Muelheim/Ruhr               #
                  #                      Germany                        #
                  #                                                     #
                  #                  All rights reserved                #
                  #                        -***-                        #
                  #######################################################


                         Program Version 5.0.4 -  RELEASE  -


 With contributions from (in alphabetic order):
   Daniel Aravena         : Magnetic Suceptibility
   Michael Atanasov       : Ab Initio Ligand Field Theory (pilot matlab implementation)
   Alexander A. Auer      : GIAO ZORA, VPT2 properties, NMR spectrum
   Ute Becker             : Parallelization
   Giovanni Bistoni       : ED, misc. LED, open-shell LED, HFLD
   Martin Brehm           : Molecular dynamics
   Dmytro Bykov           : SCF Hessian
   Vijay G. Chilkuri      : MRCI spin determinant printing, contributions to CSF-ICE
   Dipayan Datta          : RHF DLPNO-CCSD density
   Achintya Kumar Dutta   : EOM-CC, STEOM-CC
   Dmitry Ganyushin       : Spin-Orbit,Spin-Spin,Magnetic field MRCI
   Miquel Garcia          : C-PCM and meta-GGA Hessian, CC/C-PCM, Gaussian charge scheme
   Yang Guo               : DLPNO-NEVPT2, F12-NEVPT2, CIM, IAO-localization
   Andreas Hansen         : Spin unrestricted coupled pair/coupled cluster methods
   Benjamin Helmich-Paris : MC-RPA, TRAH-SCF, COSX integrals
   Lee Huntington         : MR-EOM, pCC
   Robert Izsak           : Overlap fitted RIJCOSX, COSX-SCS-MP3, EOM
   Marcus Kettner         : VPT2
   Christian Kollmar      : KDIIS, OOCD, Brueckner-CCSD(T), CCSD density, CASPT2, CASPT2-K
   Simone Kossmann        : Meta GGA functionals, TD-DFT gradient, OOMP2, MP2 Hessian
   Martin Krupicka        : Initial AUTO-CI
   Lucas Lang             : DCDCAS
   Marvin Lechner         : AUTO-CI (C++ implementation), FIC-MRCC
   Dagmar Lenk            : GEPOL surface, SMD
   Dimitrios Liakos       : Extrapolation schemes; Compound Job, initial MDCI parallelization
   Dimitrios Manganas     : Further ROCIS development; embedding schemes
   Dimitrios Pantazis     : SARC Basis sets
   Anastasios Papadopoulos: AUTO-CI, single reference methods and gradients
   Taras Petrenko         : DFT Hessian,TD-DFT gradient, ASA, ECA, R-Raman, ABS, FL, XAS/XES, NRVS
   Peter Pinski           : DLPNO-MP2, DLPNO-MP2 Gradient
   Christoph Reimann      : Effective Core Potentials
   Marius Retegan         : Local ZFS, SOC
   Christoph Riplinger    : Optimizer, TS searches, QM/MM, DLPNO-CCSD(T), (RO)-DLPNO pert. Triples
   Tobias Risthaus        : Range-separated hybrids, TD-DFT gradient, RPA, STAB
   Michael Roemelt        : Original ROCIS implementation
   Masaaki Saitow         : Open-shell DLPNO-CCSD energy and density
   Barbara Sandhoefer     : DKH picture change effects
   Avijit Sen             : IP-ROCIS
   Kantharuban Sivalingam : CASSCF convergence, NEVPT2, FIC-MRCI
   Bernardo de Souza      : ESD, SOC TD-DFT
   Georgi Stoychev        : AutoAux, RI-MP2 NMR, DLPNO-MP2 response
   Willem Van den Heuvel  : Paramagnetic NMR
   Boris Wezisla          : Elementary symmetry handling
   Frank Wennmohs         : Technical directorship


 We gratefully acknowledge several colleagues who have allowed us to
 interface, adapt or use parts of their codes:
   Stefan Grimme, W. Hujo, H. Kruse, P. Pracht,  : VdW corrections, initial TS optimization,
                  C. Bannwarth, S. Ehlert          DFT functionals, gCP, sTDA/sTD-DF
   Ed Valeev, F. Pavosevic, A. Kumar             : LibInt (2-el integral package), F12 methods
   Garnet Chan, S. Sharma, J. Yang, R. Olivares  : DMRG
   Ulf Ekstrom                                   : XCFun DFT Library
   Mihaly Kallay                                 : mrcc  (arbitrary order and MRCC methods)
   Jiri Pittner, Ondrej Demel                    : Mk-CCSD
   Frank Weinhold                                : gennbo (NPA and NBO analysis)
   Christopher J. Cramer and Donald G. Truhlar   : smd solvation model
   Lars Goerigk                                  : TD-DFT with DH, B97 family of functionals
   V. Asgeirsson, H. Jonsson                     : NEB implementation
   FAccTs GmbH                                   : IRC, NEB, NEB-TS, DLPNO-Multilevel, CI-OPT
                                                   MM, QMMM, 2- and 3-layer-ONIOM, Crystal-QMMM,
                                                   LR-CPCM, SF, NACMEs, symmetry and pop. for TD-DFT,
                                                   nearIR, NL-DFT gradient (VV10), updates on ESD,
                                                   ML-optimized integration grids
   S Lehtola, MJT Oliveira, MAL Marques          : LibXC Library
   Liviu Ungur et al                             : ANISO software


 Your calculation uses the libint2 library for the computation of 2-el integrals
 For citations please refer to: http://libint.valeyev.net

 Your ORCA version has been built with support for libXC version: 5.1.0
 For citations please refer to: https://tddft.org/programs/libxc/

 This ORCA versions uses:
   CBLAS   interface :  Fast vector & matrix operations
   LAPACKE interface :  Fast linear algebra routines
   SCALAPACK package :  Parallel linear algebra routines
   Shared memory     :  Shared parallel matrices
   BLAS/LAPACK       :  OpenBLAS 0.3.15  USE64BITINT DYNAMIC_ARCH NO_AFFINITY SkylakeX SINGLE_THREADED
        Core in use  :  SkylakeX
   Copyright (c) 2011-2014, The OpenBLAS Project



Information: The global flag for chemical shieldings has been found
             ==>> will calculate the chemical shieldings for all atoms in the system

================================================================================

----- Orbital basis set information -----
Your calculation utilizes the basis: def2-TZVP
   F. Weigend and R. Ahlrichs, Phys. Chem. Chem. Phys. 7, 3297 (2005).

----- AuxJ basis set information -----
Your calculation utilizes the auxiliary basis: def2/J
   F. Weigend, Phys. Chem. Chem. Phys. 8, 1057 (2006).

================================================================================
                                        WARNINGS
                       Please study these warnings very carefully!
================================================================================


INFO   : the flag for use of the SHARK integral package has been found!

================================================================================
                                       INPUT FILE
================================================================================
NAME = arbr_15_r2scan3c_nmr.inp
|  1> %PAL NPROCS 16 END
|  2> %maxcore 4000
|  3> # arbr_15_r2scan3c.out
|  4> ! NMR B3LYP def2-tzvp 
|  5> * xyz 0 1
|  6>    C       -4.22066        -0.62757        -0.00002
|  7>    O       -3.37158         0.49845         0.00002
|  8>    C       -2.03408         0.28184         0.00001
|  9>    C       -1.44395        -0.97734         0.00001
| 10>    C       -0.05737        -1.09034         0.00001
| 11>    C        0.72798         0.04512         0.00000
| 12>   Br        2.61693        -0.11610        -0.00000
| 13>    C        0.14555         1.30655        -0.00000
| 14>    C       -1.23012         1.42160         0.00000
| 15>    H       -4.06416        -1.23998         0.89186
| 16>    H       -5.23619        -0.24182        -0.00004
| 17>    H       -4.06412        -1.23996        -0.89191
| 18>    H       -2.04198        -1.87654         0.00002
| 19>    H        0.40354        -2.06833         0.00001
| 20>    H        0.76677         2.19139        -0.00001
| 21>    H       -1.70778         2.39201        -0.00000
| 22> *
| 23> 
| 24>                          ****END OF INPUT****
================================================================================

                       ****************************
                       * Single Point Calculation *
                       ****************************

---------------------------------
CARTESIAN COORDINATES (ANGSTROEM)
---------------------------------
  C     -4.220660   -0.627570   -0.000020
  O     -3.371580    0.498450    0.000020
  C     -2.034080    0.281840    0.000010
  C     -1.443950   -0.977340    0.000010
  C     -0.057370   -1.090340    0.000010
  C      0.727980    0.045120    0.000000
  Br     2.616930   -0.116100   -0.000000
  C      0.145550    1.306550   -0.000000
  C     -1.230120    1.421600    0.000000
  H     -4.064160   -1.239980    0.891860
  H     -5.236190   -0.241820   -0.000040
  H     -4.064120   -1.239960   -0.891910
  H     -2.041980   -1.876540    0.000020
  H      0.403540   -2.068330    0.000010
  H      0.766770    2.191390   -0.000010
  H     -1.707780    2.392010   -0.000000

----------------------------
CARTESIAN COORDINATES (A.U.)
----------------------------
  NO LB      ZA    FRAG     MASS         X           Y           Z
   0 C     6.0000    0    12.011   -7.975892   -1.185935   -0.000038
   1 O     8.0000    0    15.999   -6.371363    0.941934    0.000038
   2 C     6.0000    0    12.011   -3.843854    0.532600    0.000019
   3 C     6.0000    0    12.011   -2.728670   -1.846905    0.000019
   4 C     6.0000    0    12.011   -0.108414   -2.060444    0.000019
   5 C     6.0000    0    12.011    1.375683    0.085264    0.000000
   6 Br   35.0000    0    79.900    4.945281   -0.219397   -0.000000
   7 C     6.0000    0    12.011    0.275050    2.469022   -0.000000
   8 C     6.0000    0    12.011   -2.324590    2.686435    0.000000
   9 H     1.0000    0     1.008   -7.680149   -2.343223    1.685371
  10 H     1.0000    0     1.008   -9.894965   -0.456974   -0.000076
  11 H     1.0000    0     1.008   -7.680074   -2.343185   -1.685466
  12 H     1.0000    0     1.008   -3.858783   -3.546147    0.000038
  13 H     1.0000    0     1.008    0.762580   -3.908577    0.000019
  14 H     1.0000    0     1.008    1.448985    4.141127   -0.000019
  15 H     1.0000    0     1.008   -3.227236    4.520244   -0.000000

--------------------------------
INTERNAL COORDINATES (ANGSTROEM)
--------------------------------
 C      0   0   0     0.000000000000     0.00000000     0.00000000
 O      1   0   0     1.410268729143     0.00000000     0.00000000
 C      2   1   0     1.354926618751   117.81900975     0.00000000
 C      3   2   1     1.390606949968   124.30996772     0.00000000
 C      4   3   2     1.391176874592   119.76975860   180.00051195
 C      5   4   3     1.380595536064   120.01093151     0.00000000
 Br     6   5   4     1.895817499365   119.79166696   180.00000191
 C      6   5   4     1.389399276594   120.54620783     0.00000000
 C      8   6   5     1.380472546413   119.56444410     0.00000000
 H      1   2   3     1.093155154816   111.16705257    61.03640857
 H      1   2   3     1.086326030159   106.21894315   180.00196149
 H      1   2   3     1.093157836637   111.16759067   298.96757840
 H      4   3   2     1.079907644662   121.26264690     0.00000000
 H      5   4   3     1.081157929352   119.89275269   180.00000085
 H      8   6   5     1.081136491892   120.14463192   180.00013096
 H      9   8   6     1.081598189579   120.98819552   180.00000000

---------------------------
INTERNAL COORDINATES (A.U.)
---------------------------
 C      0   0   0     0.000000000000     0.00000000     0.00000000
 O      1   0   0     2.665021673314     0.00000000     0.00000000
 C      2   1   0     2.560440240999   117.81900975     0.00000000
 C      3   2   1     2.627866295368   124.30996772     0.00000000
 C      4   3   2     2.628943296824   119.76975860   180.00051195
 C      5   4   3     2.608947464875   120.01093151     0.00000000
 Br     6   5   4     3.582575873696   119.79166696   180.00000191
 C      6   5   4     2.625584123431   120.54620783     0.00000000
 C      8   6   5     2.608715048117   119.56444410     0.00000000
 H      1   2   3     2.065763864486   111.16705257    61.03640857
 H      1   2   3     2.052858689150   106.21894315   180.00196149
 H      1   2   3     2.065768932393   111.16759067   298.96757840
 H      4   3   2     2.040729698340   121.26264690     0.00000000
 H      5   4   3     2.043092393992   119.89275269   180.00000085
 H      8   6   5     2.043051883064   120.14463192   180.00013096
 H      9   8   6     2.043924365249   120.98819552   180.00000000

---------------------
BASIS SET INFORMATION
---------------------
There are 4 groups of distinct atoms

 Group   1 Type C   : 11s6p2d1f contracted to 5s3p2d1f pattern {62111/411/11/1}
 Group   2 Type O   : 11s6p2d1f contracted to 5s3p2d1f pattern {62111/411/11/1}
 Group   3 Type Br  : 17s13p8d1f contracted to 6s5p4d1f pattern {842111/64111/5111/1}
 Group   4 Type H   : 5s1p contracted to 3s1p pattern {311/1}

Atom   0C    basis set group =>   1
Atom   1O    basis set group =>   2
Atom   2C    basis set group =>   1
Atom   3C    basis set group =>   1
Atom   4C    basis set group =>   1
Atom   5C    basis set group =>   1
Atom   6Br   basis set group =>   3
Atom   7C    basis set group =>   1
Atom   8C    basis set group =>   1
Atom   9H    basis set group =>   4
Atom  10H    basis set group =>   4
Atom  11H    basis set group =>   4
Atom  12H    basis set group =>   4
Atom  13H    basis set group =>   4
Atom  14H    basis set group =>   4
Atom  15H    basis set group =>   4
---------------------------------
AUXILIARY/J BASIS SET INFORMATION
---------------------------------
There are 4 groups of distinct atoms

 Group   1 Type C   : 12s5p4d2f1g contracted to 6s4p3d1f1g pattern {711111/2111/211/2/1}
 Group   2 Type O   : 12s5p4d2f1g contracted to 6s4p3d1f1g pattern {711111/2111/211/2/1}
 Group   3 Type Br  : 19s5p5d3f1g contracted to 8s4p3d2f1g pattern {121111111/2111/311/21/1}
 Group   4 Type H   : 5s2p1d contracted to 3s1p1d pattern {311/2/1}

Atom   0C    basis set group =>   1
Atom   1O    basis set group =>   2
Atom   2C    basis set group =>   1
Atom   3C    basis set group =>   1
Atom   4C    basis set group =>   1
Atom   5C    basis set group =>   1
Atom   6Br   basis set group =>   3
Atom   7C    basis set group =>   1
Atom   8C    basis set group =>   1
Atom   9H    basis set group =>   4
Atom  10H    basis set group =>   4
Atom  11H    basis set group =>   4
Atom  12H    basis set group =>   4
Atom  13H    basis set group =>   4
Atom  14H    basis set group =>   4
Atom  15H    basis set group =>   4


           ************************************************************
           *        Program running with 16 parallel MPI-processes    *
           *              working on a common directory               *
           ************************************************************
------------------------------------------------------------------------------
                           ORCA GTO INTEGRAL CALCULATION
                           -- RI-GTO INTEGRALS CHOSEN --
------------------------------------------------------------------------------
------------------------------------------------------------------------------
                   ___                                                        
                  /   \      - P O W E R E D   B Y -                         
                 /     \                                                     
                 |  |  |   _    _      __       _____    __    __             
                 |  |  |  | |  | |    /  \     |  _  \  |  |  /  |          
                  \  \/   | |  | |   /    \    | | | |  |  | /  /          
                 / \  \   | |__| |  /  /\  \   | |_| |  |  |/  /          
                |  |  |   |  __  | /  /__\  \  |    /   |      \           
                |  |  |   | |  | | |   __   |  |    \   |  |\   \          
                \     /   | |  | | |  |  |  |  | |\  \  |  | \   \       
                 \___/    |_|  |_| |__|  |__|  |_| \__\ |__|  \__/        
                                                                              
                      - O R C A' S   B I G   F R I E N D -                    
                                      &                                       
                       - I N T E G R A L  F E E D E R -                       
                                                                              
 v1 FN, 2020, v2 2021                                                         
------------------------------------------------------------------------------


Reading SHARK input file arbr_15_r2scan3c_nmr.SHARKINP.tmp ... ok
----------------------
SHARK INTEGRAL PACKAGE
----------------------

Number of atoms                             ...     16
Number of basis functions                   ...    338
Number of shells                            ...    132
Maximum angular momentum                    ...      3
Integral batch strategy                     ... SHARK/LIBINT Hybrid
RI-J (if used) integral strategy            ... SPLIT-RIJ (Revised 2003 algorithm where possible)
Printlevel                                  ...      1
Contraction scheme used                     ... SEGMENTED contraction
Coulomb Range Separation                    ... NOT USED
Exchange Range Separation                   ... NOT USED
Finite Nucleus Model                        ... NOT USED
Auxiliary Coulomb fitting basis             ... AVAILABLE
   # of basis functions in Aux-J            ...    527
   # of shells in Aux-J                     ...    173
   Maximum angular momentum in Aux-J        ...      4
Auxiliary J/K fitting basis                 ... NOT available
Auxiliary Correlation fitting basis         ... NOT available
Auxiliary 'external' fitting basis          ... NOT available
Integral threshold                          ...     1.000000e-10
Primitive cut-off                           ...     1.000000e-11
Primitive pair pre-selection threshold      ...     1.000000e-11

Calculating pre-screening integrals         ... done (  0.1 sec) Dimension = 132
Organizing shell pair data                  ... done (  0.1 sec)
Shell pair information
Total number of shell pairs                 ...      8778
Shell pairs after pre-screening             ...      7582
Total number of primitive shell pairs       ...     29424
Primitive shell pairs kept                  ...     18077
          la=0 lb=0:   1879 shell pairs
          la=1 lb=0:   2103 shell pairs
          la=1 lb=1:    606 shell pairs
          la=2 lb=0:   1146 shell pairs
          la=2 lb=1:    648 shell pairs
          la=2 lb=2:    186 shell pairs
          la=3 lb=0:    523 shell pairs
          la=3 lb=1:    288 shell pairs
          la=3 lb=2:    160 shell pairs
          la=3 lb=3:     43 shell pairs

Calculating one electron integrals          ... done (  0.0 sec)
Calculating RI/J V-Matrix + Cholesky decomp.... done (  0.0 sec)
Calculating Nuclear repulsion               ... done (  0.0 sec) ENN=    619.360933875383 Eh

SHARK setup successfully completed in   0.5 seconds

Maximum memory used throughout the entire GTOINT-calculation: 24.7 MB


           ************************************************************
           *        Program running with 16 parallel MPI-processes    *
           *              working on a common directory               *
           ************************************************************
-------------------------------------------------------------------------------
                                 ORCA SCF
-------------------------------------------------------------------------------

------------
SCF SETTINGS
------------
Hamiltonian:
 Density Functional     Method          .... DFT(GTOs)
 Exchange Functional    Exchange        .... B88
   X-Alpha parameter    XAlpha          ....  0.666667
   Becke's b parameter  XBeta           ....  0.004200
 Correlation Functional Correlation     .... LYP
 LDA part of GGA corr.  LDAOpt          .... VWN-5
 Gradients option       PostSCFGGA      .... off
 Hybrid DFT is turned on
   Fraction HF Exchange ScalHFX         ....  0.200000
   Scaling of DF-GGA-X  ScalDFX         ....  0.720000
   Scaling of DF-GGA-C  ScalDFC         ....  0.810000
   Scaling of DF-LDA-C  ScalLDAC        ....  1.000000
   Perturbative correction              ....  0.000000
   Density functional embedding theory  .... OFF
   NL short-range parameter             ....  4.800000
 RI-approximation to the Coulomb term is turned on
   Number of AuxJ basis functions       .... 527
   RIJ-COSX (HFX calculated with COS-X)).... on


General Settings:
 Integral files         IntName         .... arbr_15_r2scan3c_nmr
 Hartree-Fock type      HFTyp           .... RHF
 Total Charge           Charge          ....    0
 Multiplicity           Mult            ....    1
 Number of Electrons    NEL             ....   92
 Basis Dimension        Dim             ....  338
 Nuclear Repulsion      ENuc            ....    619.3609338754 Eh

Convergence Acceleration:
 DIIS                   CNVDIIS         .... on
   Start iteration      DIISMaxIt       ....    12
   Startup error        DIISStart       ....  0.200000
   # of expansion vecs  DIISMaxEq       ....     5
   Bias factor          DIISBfac        ....   1.050
   Max. coefficient     DIISMaxC        ....  10.000
 Trust-Rad. Augm. Hess. CNVTRAH         .... auto
   Auto Start mean grad. ratio tolernc. ....  1.125000
   Auto Start start iteration           ....    20
   Auto Start num. interpolation iter.  ....    10
   Max. Number of Micro iterations      ....    16
   Max. Number of Macro iterations      .... Maxiter - #DIIS iter
   Number of Davidson start vectors     ....     2
   Converg. threshold I  (grad. norm)   ....   5.000e-05
   Converg. threshold II (energy diff.) ....   1.000e-06
   Grad. Scal. Fac. for Micro threshold ....   0.100
   Minimum threshold for Micro iter.    ....   0.010
   NR start threshold (gradient norm)   ....   0.001
   Initial trust radius                 ....   0.400
   Minimum AH scaling param. (alpha)    ....   1.000
   Maximum AH scaling param. (alpha)    .... 1000.000
   Orbital update algorithm             .... Taylor
   White noise on init. David. guess    .... on
   Maximum white noise                  ....   0.010
   Quad. conv. algorithm                .... NR
 SOSCF                  CNVSOSCF        .... on
   Start iteration      SOSCFMaxIt      ....   150
   Startup grad/error   SOSCFStart      ....  0.003300
 Level Shifting         CNVShift        .... on
   Level shift para.    LevelShift      ....    0.2500
   Turn off err/grad.   ShiftErr        ....    0.0010
 Zerner damping         CNVZerner       .... off
 Static damping         CNVDamp         .... on
   Fraction old density DampFac         ....    0.7000
   Max. Damping (<1)    DampMax         ....    0.9800
   Min. Damping (>=0)   DampMin         ....    0.0000
   Turn off err/grad.   DampErr         ....    0.1000
 Fernandez-Rico         CNVRico         .... off

SCF Procedure:
 Maximum # iterations   MaxIter         ....   125
 SCF integral mode      SCFMode         .... Direct
   Integral package                     .... SHARK and LIBINT hybrid scheme
 Reset frequency        DirectResetFreq ....    20
 Integral Threshold     Thresh          ....  1.000e-10 Eh
 Primitive CutOff       TCut            ....  1.000e-11 Eh

Convergence Tolerance:
 Convergence Check Mode ConvCheckMode   .... Total+1el-Energy
 Convergence forced     ConvForced      .... 0
 Energy Change          TolE            ....  1.000e-06 Eh
 1-El. energy change                    ....  1.000e-03 Eh
 Orbital Gradient       TolG            ....  5.000e-05
 Orbital Rotation angle TolX            ....  5.000e-05
 DIIS Error             TolErr          ....  1.000e-06


Diagonalization of the overlap matrix:
Smallest eigenvalue                        ... 8.389e-06
Time for diagonalization                   ...    0.024 sec
Threshold for overlap eigenvalues          ... 1.000e-08
Number of eigenvalues below threshold      ... 0
Time for construction of square roots      ...    0.013 sec
Total time needed                          ...    0.038 sec

Time for model grid setup =    0.144 sec

------------------------------
INITIAL GUESS: MODEL POTENTIAL
------------------------------
Loading Hartree-Fock densities                     ... done
Calculating cut-offs                               ... done
Initializing the effective Hamiltonian             ... done
Setting up the integral package (SHARK)            ... done
Starting the Coulomb interaction                   ... done (   0.1 sec)
Reading the grid                                   ... done
Mapping shells                                     ... done
Starting the XC term evaluation                    ... done (   0.1 sec)
  promolecular density results
     # of electrons  =     91.995076460
     EX              =   -136.008548030
     EC              =     -3.627875308
     EX+EC           =   -139.636423338
Transforming the Hamiltonian                       ... done (   0.0 sec)
Diagonalizing the Hamiltonian                      ... done (   0.0 sec)
Back transforming the eigenvectors                 ... done (   0.0 sec)
Now organizing SCF variables                       ... done
                      ------------------
                      INITIAL GUESS DONE (   0.3 sec)
                      ------------------
-------------------
DFT GRID GENERATION
-------------------

General Integration Accuracy     IntAcc      ... 4.388
Radial Grid Type                 RadialGrid  ... OptM3 with GC (2021)
Angular Grid (max. ang.)         AngularGrid ... 4 (Lebedev-302)
Angular grid pruning method      GridPruning ... 4 (adaptive)
Weight generation scheme         WeightScheme... Becke
Basis function cutoff            BFCut       ... 1.0000e-10
Integration weight cutoff        WCut        ... 1.0000e-14
Angular grids for H and He will be reduced by one unit
Partially contracted basis set               ... off
Rotationally invariant grid construction     ... off

Total number of grid points                  ...    81922
Total number of batches                      ...     1288
Average number of points per batch           ...       63
Average number of grid points per atom       ...     5120
Time for grid setup =    0.654 sec

--------------------
COSX GRID GENERATION
--------------------

GRIDX 1
-------
General Integration Accuracy     IntAcc      ... 3.816
Radial Grid Type                 RadialGrid  ... OptM3 with GC (2021)
Angular Grid (max. ang.)         AngularGrid ... 1 (Lebedev-50)
Angular grid pruning method      GridPruning ... 4 (adaptive)
Weight generation scheme         WeightScheme... Becke
Basis function cutoff            BFCut       ... 1.0000e-10
Integration weight cutoff        WCut        ... 1.0000e-14
Angular grids for H and He will be reduced by one unit
Partially contracted basis set               ... on
Rotationally invariant grid construction     ... off

Total number of grid points                  ...    10275
Total number of batches                      ...      169
Average number of points per batch           ...       60
Average number of grid points per atom       ...      642
UseSFitting                                  ... on

GRIDX 2
-------
General Integration Accuracy     IntAcc      ... 4.020
Radial Grid Type                 RadialGrid  ... OptM3 with GC (2021)
Angular Grid (max. ang.)         AngularGrid ... 2 (Lebedev-110)
Angular grid pruning method      GridPruning ... 4 (adaptive)
Weight generation scheme         WeightScheme... Becke
Basis function cutoff            BFCut       ... 1.0000e-10
Integration weight cutoff        WCut        ... 1.0000e-14
Angular grids for H and He will be reduced by one unit
Partially contracted basis set               ... on
Rotationally invariant grid construction     ... off

Total number of grid points                  ...    22363
Total number of batches                      ...      355
Average number of points per batch           ...       62
Average number of grid points per atom       ...     1398
UseSFitting                                  ... on

GRIDX 3
-------
General Integration Accuracy     IntAcc      ... 4.338
Radial Grid Type                 RadialGrid  ... OptM3 with GC (2021)
Angular Grid (max. ang.)         AngularGrid ... 3 (Lebedev-194)
Angular grid pruning method      GridPruning ... 4 (adaptive)
Weight generation scheme         WeightScheme... Becke
Basis function cutoff            BFCut       ... 1.0000e-10
Integration weight cutoff        WCut        ... 1.0000e-14
Angular grids for H and He will be reduced by one unit
Partially contracted basis set               ... on
Rotationally invariant grid construction     ... off

Total number of grid points                  ...    49425
Total number of batches                      ...      782
Average number of points per batch           ...       63
Average number of grid points per atom       ...     3089
UseSFitting                                  ... on

Time for X-Grid setup             =    0.497 sec

--------------
SCF ITERATIONS
--------------
ITER       Energy         Delta-E        Max-DP      RMS-DP      [F,P]     Damp
               ***  Starting incremental Fock matrix formation  ***
  0  -2919.9261380337   0.000000000000 0.10414874  0.00132722  0.1748318 0.7000
  1  -2920.0227874250  -0.096649391270 0.11285077  0.00123125  0.0810863 0.7000
                               ***Turning on DIIS***
  2  -2920.0625172232  -0.039729798194 0.16905567  0.00206867  0.0340731 0.0000
  3  -2920.1201053144  -0.057588091245 0.10157506  0.00098876  0.0426383 0.0000
  4  -2920.1360129818  -0.015907667430 0.03637978  0.00037725  0.0093696 0.0000
  5  -2920.1366424035  -0.000629421687 0.01227540  0.00014202  0.0035194 0.0000
                      *** Initiating the SOSCF procedure ***
                           *** Shutting down DIIS ***
                      *** Re-Reading the Fockian *** 
                      *** Removing any level shift *** 
ITER      Energy       Delta-E        Grad      Rot      Max-DP    RMS-DP
  6  -2920.13669583  -0.0000534282  0.000207  0.000207  0.003150  0.000047
               *** Restarting incremental Fock matrix formation ***
  7  -2920.13669811  -0.0000022747  0.000104  0.000437  0.002241  0.000034
  8  -2920.13669777   0.0000003409  0.000215  0.000349  0.000473  0.000007
  9  -2920.13669865  -0.0000008842  0.000032  0.000062  0.000683  0.000012
 10  -2920.13669866  -0.0000000137  0.000036  0.000035  0.000502  0.000008
                  ***Gradient check signals convergence***
              ***Rediagonalizing the Fockian in SOSCF/NRSCF***

               *****************************************************
               *                     SUCCESS                       *
               *           SCF CONVERGED AFTER  11 CYCLES          *
               *****************************************************

Old exchange energy                            =    -27.326160216 Eh
New exchange energy                            =    -27.326174524 Eh
Exchange energy change after final integration =     -0.000014308 Eh
Total energy after final integration           =  -2920.136713008 Eh
Final COS-X integration done in                =     3.553 sec

----------------
TOTAL SCF ENERGY
----------------

Total Energy       :        -2920.13671301 Eh          -79460.95968 eV

Components:
Nuclear Repulsion  :          619.36093388 Eh           16853.66783 eV
Electronic Energy  :        -3539.49764688 Eh          -96314.62751 eV
One Electron Energy:        -5281.76492133 Eh         -143724.13030 eV
Two Electron Energy:         1742.26727445 Eh           47409.50279 eV
Max COSX asymmetry :            0.00000725 Eh               0.00020 eV

Virial components:
Potential Energy   :        -5835.18260532 Eh         -158783.39108 eV
Kinetic Energy     :         2915.04589231 Eh           79322.43140 eV
Virial Ratio       :            2.00174639


DFT components:
N(Alpha)           :       46.000052932122 electrons
N(Beta)            :       46.000052932122 electrons
N(Total)           :       92.000105864243 electrons
E(X)               :     -108.710582794406 Eh       
E(C)               :       -4.256038411938 Eh       
E(XC)              :     -112.966621206344 Eh       
DFET-embed. en.    :        0.000000000000 Eh       

---------------
SCF CONVERGENCE
---------------

  Last Energy change         ...   -3.6773e-08  Tolerance :   1.0000e-06
  Last MAX-Density change    ...    4.4409e-15  Tolerance :   1.0000e-05
  Last RMS-Density change    ...    3.4100e-17  Tolerance :   1.0000e-06
  Last Orbital Gradient      ...    4.8376e-06  Tolerance :   5.0000e-05
  Last Orbital Rotation      ...    1.3774e-05  Tolerance :   5.0000e-05

             **** THE GBW FILE WAS UPDATED (arbr_15_r2scan3c_nmr.gbw) ****
             **** DENSITY arbr_15_r2scan3c_nmr.scfp WAS UPDATED ****
             **** ENERGY FILE WAS UPDATED (arbr_15_r2scan3c_nmr.en.tmp) ****
             **** THE GBW FILE WAS UPDATED (arbr_15_r2scan3c_nmr.gbw) ****
             **** DENSITY arbr_15_r2scan3c_nmr.scfp WAS UPDATED ****
----------------
ORBITAL ENERGIES
----------------

  NO   OCC          E(Eh)            E(eV) 
   0   2.0000    -482.851389    -13139.0543 
   1   2.0000     -62.498849     -1700.6801 
   2   2.0000     -56.314267     -1532.3891 
   3   2.0000     -56.311887     -1532.3244 
   4   2.0000     -56.311847     -1532.3233 
   5   2.0000     -19.165530      -521.5206 
   6   2.0000     -10.241486      -278.6850 
   7   2.0000     -10.230301      -278.3806 
   8   2.0000     -10.222414      -278.1660 
   9   2.0000     -10.187690      -277.2211 
  10   2.0000     -10.186902      -277.1997 
  11   2.0000     -10.183083      -277.0958 
  12   2.0000     -10.179626      -277.0017 
  13   2.0000      -8.689905      -236.4643 
  14   2.0000      -6.519231      -177.3973 
  15   2.0000      -6.508514      -177.1057 
  16   2.0000      -6.508306      -177.1000 
  17   2.0000      -2.633914       -71.6724 
  18   2.0000      -2.630864       -71.5895 
  19   2.0000      -2.630735       -71.5859 
  20   2.0000      -2.621873       -71.3448 
  21   2.0000      -2.621873       -71.3448 
  22   2.0000      -1.081017       -29.4160 
  23   2.0000      -0.877568       -23.8798 
  24   2.0000      -0.806375       -21.9426 
  25   2.0000      -0.766437       -20.8558 
  26   2.0000      -0.744673       -20.2636 
  27   2.0000      -0.694235       -18.8911 
  28   2.0000      -0.628140       -17.0926 
  29   2.0000      -0.595212       -16.1966 
  30   2.0000      -0.548569       -14.9273 
  31   2.0000      -0.501302       -13.6411 
  32   2.0000      -0.482319       -13.1246 
  33   2.0000      -0.474870       -12.9219 
  34   2.0000      -0.459455       -12.5024 
  35   2.0000      -0.439809       -11.9678 
  36   2.0000      -0.428286       -11.6542 
  37   2.0000      -0.399153       -10.8615 
  38   2.0000      -0.379288       -10.3210 
  39   2.0000      -0.369630       -10.0581 
  40   2.0000      -0.351726        -9.5709 
  41   2.0000      -0.341448        -9.2913 
  42   2.0000      -0.295423        -8.0389 
  43   2.0000      -0.287241        -7.8162 
  44   2.0000      -0.270142        -7.3509 
  45   2.0000      -0.225328        -6.1315 
  46   0.0000      -0.024677        -0.6715 
  47   0.0000      -0.008255        -0.2246 
  48   0.0000       0.003125         0.0850 
  49   0.0000       0.038339         1.0433 
  50   0.0000       0.061440         1.6719 
  51   0.0000       0.075187         2.0459 
  52   0.0000       0.085606         2.3295 
  53   0.0000       0.098758         2.6873 
  54   0.0000       0.101106         2.7512 
  55   0.0000       0.108294         2.9468 
  56   0.0000       0.125676         3.4198 
  57   0.0000       0.135461         3.6861 
  58   0.0000       0.140454         3.8219 
  59   0.0000       0.157747         4.2925 
  60   0.0000       0.188535         5.1303 
  61   0.0000       0.193796         5.2735 
  62   0.0000       0.204068         5.5530 
  63   0.0000       0.210410         5.7256 
  64   0.0000       0.211064         5.7433 
  65   0.0000       0.222788         6.0624 
  66   0.0000       0.226577         6.1655 
  67   0.0000       0.235819         6.4170 
  68   0.0000       0.238729         6.4962 
  69   0.0000       0.261542         7.1169 
  70   0.0000       0.265789         7.2325 
  71   0.0000       0.271701         7.3934 
  72   0.0000       0.281407         7.6575 
  73   0.0000       0.288418         7.8482 
  74   0.0000       0.293973         7.9994 
  75   0.0000       0.313123         8.5205 
  76   0.0000       0.325183         8.8487 
  77   0.0000       0.337727         9.1900 
  78   0.0000       0.347536         9.4569 
  79   0.0000       0.353890         9.6298 
  80   0.0000       0.371310        10.1039 
  81   0.0000       0.374030        10.1779 
  82   0.0000       0.389728        10.6050 
  83   0.0000       0.389758        10.6059 
  84   0.0000       0.393502        10.7077 
  85   0.0000       0.403855        10.9895 
  86   0.0000       0.416506        11.3337 
  87   0.0000       0.418553        11.3894 
  88   0.0000       0.436558        11.8794 
  89   0.0000       0.441787        12.0216 
  90   0.0000       0.445340        12.1183 
  91   0.0000       0.458392        12.4735 
  92   0.0000       0.459004        12.4901 
  93   0.0000       0.480616        13.0782 
  94   0.0000       0.482996        13.1430 
  95   0.0000       0.520047        14.1512 
  96   0.0000       0.537379        14.6228 
  97   0.0000       0.545591        14.8463 
  98   0.0000       0.545899        14.8547 
  99   0.0000       0.575729        15.6664 
 100   0.0000       0.589568        16.0430 
 101   0.0000       0.595915        16.2157 
 102   0.0000       0.619350        16.8534 
 103   0.0000       0.631530        17.1848 
 104   0.0000       0.637493        17.3471 
 105   0.0000       0.645057        17.5529 
 106   0.0000       0.677092        18.4246 
 107   0.0000       0.688797        18.7431 
 108   0.0000       0.708610        19.2823 
 109   0.0000       0.713144        19.4056 
 110   0.0000       0.720050        19.5936 
 111   0.0000       0.729412        19.8483 
 112   0.0000       0.745118        20.2757 
 113   0.0000       0.772609        21.0238 
 114   0.0000       0.807130        21.9631 
 115   0.0000       0.817654        22.2495 
 116   0.0000       0.837323        22.7847 
 117   0.0000       0.854130        23.2421 
 118   0.0000       0.864538        23.5253 
 119   0.0000       0.865557        23.5530 
 120   0.0000       0.883213        24.0335 
 121   0.0000       0.891357        24.2551 
 122   0.0000       0.937726        25.5168 
 123   0.0000       0.952152        25.9094 
 124   0.0000       0.966233        26.2925 
 125   0.0000       0.973140        26.4805 
 126   0.0000       1.005902        27.3720 
 127   0.0000       1.038213        28.2512 
 128   0.0000       1.040527        28.3142 
 129   0.0000       1.056070        28.7371 
 130   0.0000       1.064507        28.9667 
 131   0.0000       1.098845        29.9011 
 132   0.0000       1.105158        30.0729 
 133   0.0000       1.161877        31.6163 
 134   0.0000       1.172486        31.9050 
 135   0.0000       1.189136        32.3580 
 136   0.0000       1.195084        32.5199 
 137   0.0000       1.212436        32.9921 
 138   0.0000       1.215076        33.0639 
 139   0.0000       1.242625        33.8135 
 140   0.0000       1.249198        33.9924 
 141   0.0000       1.261799        34.3353 
 142   0.0000       1.323671        36.0189 
 143   0.0000       1.338347        36.4183 
 144   0.0000       1.356688        36.9173 
 145   0.0000       1.358814        36.9752 
 146   0.0000       1.390902        37.8484 
 147   0.0000       1.395475        37.9728 
 148   0.0000       1.408470        38.3264 
 149   0.0000       1.439354        39.1668 
 150   0.0000       1.442095        39.2414 
 151   0.0000       1.452988        39.5378 
 152   0.0000       1.456275        39.6272 
 153   0.0000       1.462522        39.7972 
 154   0.0000       1.497046        40.7367 
 155   0.0000       1.504221        40.9319 
 156   0.0000       1.525420        41.5088 
 157   0.0000       1.527631        41.5690 
 158   0.0000       1.533281        41.7227 
 159   0.0000       1.540794        41.9271 
 160   0.0000       1.542116        41.9631 
 161   0.0000       1.547195        42.1013 
 162   0.0000       1.574296        42.8388 
 163   0.0000       1.608495        43.7694 
 164   0.0000       1.611044        43.8387 
 165   0.0000       1.615788        43.9678 
 166   0.0000       1.624804        44.2132 
 167   0.0000       1.643266        44.7155 
 168   0.0000       1.663096        45.2552 
 169   0.0000       1.665963        45.3332 
 170   0.0000       1.695024        46.1239 
 171   0.0000       1.703154        46.3452 
 172   0.0000       1.705447        46.4076 
 173   0.0000       1.725664        46.9577 
 174   0.0000       1.750471        47.6327 
 175   0.0000       1.796109        48.8746 
 176   0.0000       1.802081        49.0371 
 177   0.0000       1.832952        49.8772 
 178   0.0000       1.838174        50.0193 
 179   0.0000       1.840857        50.0923 
 180   0.0000       1.870044        50.8865 
 181   0.0000       1.879016        51.1306 
 182   0.0000       1.892394        51.4947 
 183   0.0000       1.911665        52.0190 
 184   0.0000       1.939149        52.7669 
 185   0.0000       1.951575        53.1051 
 186   0.0000       1.978998        53.8513 
 187   0.0000       2.035107        55.3781 
 188   0.0000       2.035993        55.4022 
 189   0.0000       2.050743        55.8035 
 190   0.0000       2.065341        56.2008 
 191   0.0000       2.102963        57.2245 
 192   0.0000       2.146883        58.4196 
 193   0.0000       2.163648        58.8759 
 194   0.0000       2.187721        59.5309 
 195   0.0000       2.209274        60.1174 
 196   0.0000       2.239665        60.9444 
 197   0.0000       2.262553        61.5672 
 198   0.0000       2.279295        62.0228 
 199   0.0000       2.312634        62.9300 
 200   0.0000       2.324806        63.2612 
 201   0.0000       2.335465        63.5512 
 202   0.0000       2.353431        64.0401 
 203   0.0000       2.393429        65.1285 
 204   0.0000       2.439643        66.3861 
 205   0.0000       2.448575        66.6291 
 206   0.0000       2.487401        67.6856 
 207   0.0000       2.516700        68.4829 
 208   0.0000       2.527480        68.7762 
 209   0.0000       2.533014        68.9268 
 210   0.0000       2.562460        69.7281 
 211   0.0000       2.569295        69.9141 
 212   0.0000       2.604044        70.8596 
 213   0.0000       2.629546        71.5536 
 214   0.0000       2.637448        71.7686 
 215   0.0000       2.666140        72.5494 
 216   0.0000       2.677228        72.8511 
 217   0.0000       2.694482        73.3206 
 218   0.0000       2.696357        73.3716 
 219   0.0000       2.714102        73.8545 
 220   0.0000       2.725193        74.1563 
 221   0.0000       2.749587        74.8201 
 222   0.0000       2.763485        75.1983 
 223   0.0000       2.786907        75.8356 
 224   0.0000       2.798968        76.1638 
 225   0.0000       2.800569        76.2074 
 226   0.0000       2.832921        77.0877 
 227   0.0000       2.852939        77.6324 
 228   0.0000       2.858409        77.7813 
 229   0.0000       2.875978        78.2593 
 230   0.0000       2.878665        78.3325 
 231   0.0000       2.893121        78.7258 
 232   0.0000       2.909332        79.1670 
 233   0.0000       2.923220        79.5449 
 234   0.0000       2.963944        80.6530 
 235   0.0000       2.996633        81.5425 
 236   0.0000       3.006245        81.8041 
 237   0.0000       3.034024        82.5600 
 238   0.0000       3.073831        83.6432 
 239   0.0000       3.094403        84.2030 
 240   0.0000       3.120488        84.9128 
 241   0.0000       3.137130        85.3656 
 242   0.0000       3.144710        85.5719 
 243   0.0000       3.145751        85.6002 
 244   0.0000       3.173254        86.3486 
 245   0.0000       3.195757        86.9610 
 246   0.0000       3.206574        87.2553 
 247   0.0000       3.208217        87.3000 
 248   0.0000       3.234232        88.0079 
 249   0.0000       3.251195        88.4695 
 250   0.0000       3.270104        88.9840 
 251   0.0000       3.287805        89.4657 
 252   0.0000       3.317515        90.2742 
 253   0.0000       3.321845        90.3920 
 254   0.0000       3.334114        90.7259 
 255   0.0000       3.342398        90.9513 
 256   0.0000       3.357460        91.3611 
 257   0.0000       3.363728        91.5317 
 258   0.0000       3.394362        92.3653 
 259   0.0000       3.398577        92.4800 
 260   0.0000       3.440958        93.6332 
 261   0.0000       3.455888        94.0395 
 262   0.0000       3.457366        94.0797 
 263   0.0000       3.469902        94.4208 
 264   0.0000       3.505435        95.3877 
 265   0.0000       3.516101        95.6780 
 266   0.0000       3.523174        95.8704 
 267   0.0000       3.524319        95.9016 
 268   0.0000       3.532935        96.1361 
 269   0.0000       3.568933        97.1156 
 270   0.0000       3.580446        97.4289 
 271   0.0000       3.608811        98.2007 
 272   0.0000       3.669251        99.8454 
 273   0.0000       3.745336       101.9158 
 274   0.0000       3.756446       102.2181 
 275   0.0000       3.766017       102.4785 
 276   0.0000       3.785620       103.0120 
 277   0.0000       3.827229       104.1442 
 278   0.0000       3.940855       107.2361 
 279   0.0000       3.999779       108.8395 
 280   0.0000       4.002577       108.9157 
 281   0.0000       4.022795       109.4658 
 282   0.0000       4.023094       109.4740 
 283   0.0000       4.036913       109.8500 
 284   0.0000       4.096067       111.4596 
 285   0.0000       4.119069       112.0856 
 286   0.0000       4.139048       112.6292 
 287   0.0000       4.177151       113.6661 
 288   0.0000       4.182296       113.8061 
 289   0.0000       4.196158       114.1833 
 290   0.0000       4.198554       114.2485 
 291   0.0000       4.213528       114.6559 
 292   0.0000       4.224054       114.9423 
 293   0.0000       4.235505       115.2539 
 294   0.0000       4.263596       116.0184 
 295   0.0000       4.297961       116.9535 
 296   0.0000       4.321213       117.5862 
 297   0.0000       4.364303       118.7587 
 298   0.0000       4.393000       119.5396 
 299   0.0000       4.460982       121.3895 
 300   0.0000       4.496790       122.3639 
 301   0.0000       4.522834       123.0726 
 302   0.0000       4.574381       124.4752 
 303   0.0000       4.601625       125.2166 
 304   0.0000       4.632494       126.0566 
 305   0.0000       4.680947       127.3750 
 306   0.0000       4.745943       129.1437 
 307   0.0000       4.852316       132.0382 
 308   0.0000       4.901134       133.3666 
 309   0.0000       4.914932       133.7421 
 310   0.0000       4.924133       133.9925 
 311   0.0000       5.021590       136.6444 
 312   0.0000       5.176497       140.8596 
 313   0.0000       5.239139       142.5642 
 314   0.0000       5.329168       145.0140 
 315   0.0000       5.346541       145.4868 
 316   0.0000       5.435440       147.9058 
 317   0.0000       5.478014       149.0643 
 318   0.0000       5.601853       152.4342 
 319   0.0000       5.755267       156.6088 
 320   0.0000       5.902222       160.6076 
 321   0.0000       5.990870       163.0198 
 322   0.0000       6.343066       172.6036 
 323   0.0000       6.523672       177.5181 
 324   0.0000       6.631302       180.4469 
 325   0.0000       6.770690       184.2398 
 326   0.0000       6.846507       186.3029 
 327   0.0000       7.155220       194.7034 
 328   0.0000       7.394890       201.2252 
 329   0.0000       7.761061       211.1892 
 330   0.0000      22.005214       598.7923 
 331   0.0000      22.371638       608.7632 
 332   0.0000      22.640612       616.0824 
 333   0.0000      22.663023       616.6922 
 334   0.0000      22.695496       617.5758 
 335   0.0000      22.821156       620.9952 
 336   0.0000      23.247001       632.5831 
 337   0.0000      44.178921      1202.1695 

                    ********************************
                    * MULLIKEN POPULATION ANALYSIS *
                    ********************************

-----------------------
MULLIKEN ATOMIC CHARGES
-----------------------
   0 C :   -0.187883
   1 O :   -0.271292
   2 C :    0.327265
   3 C :   -0.233443
   4 C :   -0.167651
   5 C :    0.087869
   6 Br:   -0.095820
   7 C :   -0.129499
   8 C :   -0.178312
   9 H :    0.117872
  10 H :    0.133952
  11 H :    0.117872
  12 H :    0.119052
  13 H :    0.124978
  14 H :    0.123375
  15 H :    0.111667
Sum of atomic charges:    0.0000000

--------------------------------
MULLIKEN REDUCED ORBITAL CHARGES
--------------------------------
  0 C s       :     3.264668  s :     3.264668
      pz      :     1.049947  p :     2.827212
      px      :     0.953790
      py      :     0.823475
      dz2     :     0.005044  d :     0.087875
      dxz     :     0.010773
      dyz     :     0.033496
      dx2y2   :     0.024915
      dxy     :     0.013647
      f0      :     0.001057  f :     0.008128
      f+1     :     0.000350
      f-1     :     0.001584
      f+2     :    -0.000062
      f-2     :     0.001728
      f+3     :     0.001365
      f-3     :     0.002106
  1 O s       :     3.757538  s :     3.757538
      pz      :     1.752327  p :     4.469428
      px      :     1.221316
      py      :     1.495785
      dz2     :     0.004693  d :     0.042184
      dxz     :     0.007283
      dyz     :     0.004274
      dx2y2   :     0.013367
      dxy     :     0.012567
      f0      :     0.000283  f :     0.002142
      f+1     :     0.000379
      f-1     :     0.000206
      f+2     :     0.000197
      f-2     :     0.000141
      f+3     :     0.000492
      f-3     :     0.000445
  2 C s       :     3.021321  s :     3.021321
      pz      :     0.924329  p :     2.470608
      px      :     0.685073
      py      :     0.861207
      dz2     :     0.005638  d :     0.164953
      dxz     :     0.047213
      dyz     :     0.025224
      dx2y2   :     0.037191
      dxy     :     0.049687
      f0      :     0.002425  f :     0.015853
      f+1     :     0.001278
      f-1     :     0.000623
      f+2     :     0.002468
      f-2     :     0.001343
      f+3     :     0.002638
      f-3     :     0.005078
  3 C s       :     3.252044  s :     3.252044
      pz      :     1.044735  p :     2.904087
      px      :     0.925318
      py      :     0.934034
      dz2     :     0.005773  d :     0.069983
      dxz     :     0.016636
      dyz     :     0.009798
      dx2y2   :     0.016431
      dxy     :     0.021346
      f0      :     0.001549  f :     0.007330
      f+1     :     0.000568
      f-1     :     0.000613
      f+2     :     0.001019
      f-2     :     0.000292
      f+3     :     0.001331
      f-3     :     0.001959
  4 C s       :     3.212318  s :     3.212318
      pz      :     0.966181  p :     2.860932
      px      :     0.962565
      py      :     0.932186
      dz2     :     0.004890  d :     0.086720
      dxz     :     0.023613
      dyz     :     0.009060
      dx2y2   :     0.018048
      dxy     :     0.031108
      f0      :     0.001590  f :     0.007681
      f+1     :     0.000542
      f-1     :     0.000620
      f+2     :     0.000881
      f-2     :     0.000654
      f+3     :     0.001352
      f-3     :     0.002043
  5 C s       :     3.216626  s :     3.216626
      pz      :     1.010568  p :     2.536493
      px      :     0.728278
      py      :     0.797648
      dz2     :     0.007798  d :     0.149423
      dxz     :     0.023437
      dyz     :     0.024925
      dx2y2   :     0.055188
      dxy     :     0.038075
      f0      :     0.001846  f :     0.009588
      f+1     :     0.000891
      f-1     :     0.000478
      f+2     :     0.000719
      f-2     :     0.001129
      f+3     :     0.001465
      f-3     :     0.003060
  6 Brs       :     7.905990  s :     7.905990
      pz      :     5.942852  p :    17.125795
      px      :     5.207392
      py      :     5.975550
      dz2     :     2.006389  d :    10.056412
      dxz     :     2.021493
      dyz     :     2.000593
      dx2y2   :     2.018799
      dxy     :     2.009138
      f0      :     0.000859  f :     0.007624
      f+1     :     0.001483
      f-1     :     0.000109
      f+2     :     0.001217
      f-2     :     0.000071
      f+3     :     0.002489
      f-3     :     0.001395
  7 C s       :     3.200456  s :     3.200456
      pz      :     0.965140  p :     2.835635
      px      :     0.945748
      py      :     0.924746
      dz2     :     0.005005  d :     0.085846
      dxz     :     0.019305
      dyz     :     0.012265
      dx2y2   :     0.015915
      dxy     :     0.033356
      f0      :     0.001576  f :     0.007563
      f+1     :     0.000546
      f-1     :     0.000613
      f+2     :     0.001158
      f-2     :     0.000309
      f+3     :     0.001285
      f-3     :     0.002076
  8 C s       :     3.262549  s :     3.262549
      pz      :     1.004664  p :     2.838503
      px      :     0.895602
      py      :     0.938237
      dz2     :     0.004681  d :     0.069762
      dxz     :     0.019027
      dyz     :     0.008065
      dx2y2   :     0.014536
      dxy     :     0.023452
      f0      :     0.001574  f :     0.007499
      f+1     :     0.000560
      f-1     :     0.000628
      f+2     :     0.000766
      f-2     :     0.000594
      f+3     :     0.001360
      f-3     :     0.002016
  9 H s       :     0.861963  s :     0.861963
      pz      :     0.010009  p :     0.020166
      px      :     0.003720
      py      :     0.006437
 10 H s       :     0.845168  s :     0.845168
      pz      :     0.004465  p :     0.020880
      px      :     0.012255
      py      :     0.004160
 11 H s       :     0.861962  s :     0.861962
      pz      :     0.010009  p :     0.020166
      px      :     0.003720
      py      :     0.006437
 12 H s       :     0.857754  s :     0.857754
      pz      :     0.005478  p :     0.023194
      px      :     0.006990
      py      :     0.010726
 13 H s       :     0.852463  s :     0.852463
      pz      :     0.004758  p :     0.022558
      px      :     0.005626
      py      :     0.012175
 14 H s       :     0.854075  s :     0.854075
      pz      :     0.004708  p :     0.022550
      px      :     0.007182
      py      :     0.010660
 15 H s       :     0.865822  s :     0.865822
      pz      :     0.004980  p :     0.022512
      px      :     0.005561
      py      :     0.011971


                     *******************************
                     * LOEWDIN POPULATION ANALYSIS *
                     *******************************

----------------------
LOEWDIN ATOMIC CHARGES
----------------------
   0 C :   -0.325623
   1 O :    0.246302
   2 C :   -0.251636
   3 C :   -0.136056
   4 C :   -0.142845
   5 C :   -0.393190
   6 Br:    0.328253
   7 C :   -0.140372
   8 C :   -0.107001
   9 H :    0.106676
  10 H :    0.114516
  11 H :    0.106677
  12 H :    0.148128
  13 H :    0.147557
  14 H :    0.148159
  15 H :    0.150454

-------------------------------
LOEWDIN REDUCED ORBITAL CHARGES
-------------------------------
  0 C s       :     2.856771  s :     2.856771
      pz      :     1.100914  p :     3.018999
      px      :     0.985226
      py      :     0.932859
      dz2     :     0.047531  d :     0.392634
      dxz     :     0.024030
      dyz     :     0.132210
      dx2y2   :     0.108973
      dxy     :     0.079889
      f0      :     0.006261  f :     0.057219
      f+1     :     0.004924
      f-1     :     0.006771
      f+2     :     0.002137
      f-2     :     0.011097
      f+3     :     0.012122
      f-3     :     0.013907
  1 O s       :     3.237787  s :     3.237787
      pz      :     1.619552  p :     4.395022
      px      :     1.284180
      py      :     1.491290
      dz2     :     0.010418  d :     0.114007
      dxz     :     0.019891
      dyz     :     0.009818
      dx2y2   :     0.036865
      dxy     :     0.037015
      f0      :     0.000741  f :     0.006882
      f+1     :     0.000853
      f-1     :     0.000313
      f+2     :     0.000660
      f-2     :     0.000657
      f+3     :     0.001557
      f-3     :     0.002100
  2 C s       :     2.708277  s :     2.708277
      pz      :     0.855258  p :     2.766282
      px      :     0.832941
      py      :     1.078083
      dz2     :     0.046553  d :     0.679140
      dxz     :     0.133298
      dyz     :     0.082158
      dx2y2   :     0.208880
      dxy     :     0.208251
      f0      :     0.006534  f :     0.097936
      f+1     :     0.009062
      f-1     :     0.004937
      f+2     :     0.016641
      f-2     :     0.008722
      f+3     :     0.017699
      f-3     :     0.034341
  3 C s       :     2.755747  s :     2.755747
      pz      :     0.937834  p :     2.967178
      px      :     1.031236
      py      :     0.998108
      dz2     :     0.026709  d :     0.369748
      dxz     :     0.056908
      dyz     :     0.031845
      dx2y2   :     0.104937
      dxy     :     0.149349
      f0      :     0.003145  f :     0.043383
      f+1     :     0.004143
      f-1     :     0.003903
      f+2     :     0.007082
      f-2     :     0.002214
      f+3     :     0.008967
      f-3     :     0.013928
  4 C s       :     2.763013  s :     2.763013
      pz      :     0.884144  p :     2.939545
      px      :     1.053934
      py      :     1.001467
      dz2     :     0.026841  d :     0.395513
      dxz     :     0.076820
      dyz     :     0.026184
      dx2y2   :     0.125396
      dxy     :     0.140273
      f0      :     0.003265  f :     0.044773
      f+1     :     0.004389
      f-1     :     0.003660
      f+2     :     0.005731
      f-2     :     0.004644
      f+3     :     0.008935
      f-3     :     0.014149
  5 C s       :     2.780405  s :     2.780405
      pz      :     0.939880  p :     3.000263
      px      :     0.957021
      py      :     1.103362
      dz2     :     0.039281  d :     0.556478
      dxz     :     0.071100
      dyz     :     0.080299
      dx2y2   :     0.208824
      dxy     :     0.156975
      f0      :     0.003842  f :     0.056044
      f+1     :     0.004302
      f-1     :     0.004716
      f+2     :     0.004486
      f-2     :     0.007538
      f+3     :     0.010547
      f-3     :     0.020613
  6 Brs       :     7.585752  s :     7.585752
      pz      :     5.876872  p :    16.947557
      px      :     5.198835
      py      :     5.871850
      dz2     :     2.015023  d :    10.123180
      dxz     :     2.039822
      dyz     :     2.000799
      dx2y2   :     2.042211
      dxy     :     2.025325
      f0      :     0.001615  f :     0.015258
      f+1     :     0.002772
      f-1     :     0.000228
      f+2     :     0.002426
      f-2     :     0.000093
      f+3     :     0.004860
      f-3     :     0.003265
  7 C s       :     2.763074  s :     2.763074
      pz      :     0.881194  p :     2.939127
      px      :     1.050906
      py      :     1.007027
      dz2     :     0.026880  d :     0.393351
      dxz     :     0.062955
      dyz     :     0.037828
      dx2y2   :     0.108194
      dxy     :     0.157494
      f0      :     0.003249  f :     0.044820
      f+1     :     0.004213
      f-1     :     0.003835
      f+2     :     0.007959
      f-2     :     0.002366
      f+3     :     0.009003
      f-3     :     0.014194
  8 C s       :     2.758144  s :     2.758144
      pz      :     0.907811  p :     2.936861
      px      :     1.041410
      py      :     0.987640
      dz2     :     0.026646  d :     0.368483
      dxz     :     0.065271
      dyz     :     0.022933
      dx2y2   :     0.113352
      dxy     :     0.140282
      f0      :     0.003248  f :     0.043512
      f+1     :     0.004422
      f-1     :     0.003614
      f+2     :     0.005163
      f-2     :     0.004025
      f+3     :     0.009186
      f-3     :     0.013852
  9 H s       :     0.832280  s :     0.832280
      pz      :     0.030377  p :     0.061044
      px      :     0.011750
      py      :     0.018916
 10 H s       :     0.825315  s :     0.825315
      pz      :     0.013493  p :     0.060169
      px      :     0.033424
      py      :     0.013252
 11 H s       :     0.832280  s :     0.832280
      pz      :     0.030378  p :     0.061044
      px      :     0.011751
      py      :     0.018916
 12 H s       :     0.790617  s :     0.790617
      pz      :     0.015520  p :     0.061254
      px      :     0.018424
      py      :     0.027310
 13 H s       :     0.793318  s :     0.793318
      pz      :     0.013557  p :     0.059125
      px      :     0.015056
      py      :     0.030512
 14 H s       :     0.792797  s :     0.792797
      pz      :     0.013381  p :     0.059044
      px      :     0.018641
      py      :     0.027023
 15 H s       :     0.790122  s :     0.790122
      pz      :     0.014114  p :     0.059424
      px      :     0.015201
      py      :     0.030109


                      *****************************
                      * MAYER POPULATION ANALYSIS *
                      *****************************

  NA   - Mulliken gross atomic population
  ZA   - Total nuclear charge
  QA   - Mulliken gross atomic charge
  VA   - Mayer's total valence
  BVA  - Mayer's bonded valence
  FA   - Mayer's free valence

  ATOM       NA         ZA         QA         VA         BVA        FA
  0 C      6.1879     6.0000    -0.1879     3.8628     3.8628     0.0000
  1 O      8.2713     8.0000    -0.2713     2.1229     2.1229     0.0000
  2 C      5.6727     6.0000     0.3273     3.8206     3.8206    -0.0000
  3 C      6.2334     6.0000    -0.2334     3.8347     3.8347    -0.0000
  4 C      6.1677     6.0000    -0.1677     3.9027     3.9027     0.0000
  5 C      5.9121     6.0000     0.0879     3.8705     3.8705     0.0000
  6 Br    35.0958    35.0000    -0.0958     1.1758     1.1758    -0.0000
  7 C      6.1295     6.0000    -0.1295     3.8651     3.8651     0.0000
  8 C      6.1783     6.0000    -0.1783     3.9223     3.9223     0.0000
  9 H      0.8821     1.0000     0.1179     0.9585     0.9585     0.0000
 10 H      0.8660     1.0000     0.1340     0.9678     0.9678    -0.0000
 11 H      0.8821     1.0000     0.1179     0.9585     0.9585     0.0000
 12 H      0.8809     1.0000     0.1191     0.9885     0.9885    -0.0000
 13 H      0.8750     1.0000     0.1250     0.9738     0.9738    -0.0000
 14 H      0.8766     1.0000     0.1234     0.9703     0.9703     0.0000
 15 H      0.8883     1.0000     0.1117     0.9884     0.9884     0.0000

  Mayer bond orders larger than 0.100000
B(  0-C ,  1-O ) :   0.9366 B(  0-C ,  9-H ) :   0.9655 B(  0-C , 10-H ) :   0.9736 
B(  0-C , 11-H ) :   0.9655 B(  1-O ,  2-C ) :   1.1242 B(  2-C ,  3-C ) :   1.3062 
B(  2-C ,  8-C ) :   1.3503 B(  3-C ,  4-C ) :   1.3592 B(  3-C , 12-H ) :   0.9586 
B(  4-C ,  5-C ) :   1.3912 B(  4-C , 13-H ) :   0.9592 B(  5-C ,  6-Br) :   1.0078 
B(  5-C ,  7-C ) :   1.3297 B(  7-C ,  8-C ) :   1.4254 B(  7-C , 14-H ) :   0.9771 
B(  8-C , 15-H ) :   0.9781 

-------
TIMINGS
-------

Total SCF time: 0 days 0 hours 0 min 24 sec 

Total time                  ....      24.298 sec
Sum of individual times     ....      23.715 sec  ( 97.6%)

Fock matrix formation       ....      21.640 sec  ( 89.1%)
  Split-RI-J                ....       2.222 sec  ( 10.3% of F)
  Chain of spheres X        ....      16.465 sec  ( 76.1% of F)
  XC integration            ....       2.742 sec  ( 12.7% of F)
    Basis function eval.    ....       0.649 sec  ( 23.7% of XC)
    Density eval.           ....       0.621 sec  ( 22.6% of XC)
    XC-Functional eval.     ....       0.086 sec  (  3.1% of XC)
    XC-Potential eval.      ....       0.777 sec  ( 28.3% of XC)
Diagonalization             ....       0.214 sec  (  0.9%)
Density matrix formation    ....       0.022 sec  (  0.1%)
Population analysis         ....       0.032 sec  (  0.1%)
Initial guess               ....       0.203 sec  (  0.8%)
Orbital Transformation      ....       0.000 sec  (  0.0%)
Orbital Orthonormalization  ....       0.000 sec  (  0.0%)
DIIS solution               ....       0.129 sec  (  0.5%)
SOSCF solution              ....       0.180 sec  (  0.7%)
Grid generation             ....       1.296 sec  (  5.3%)

Maximum memory used throughout the entire SCF-calculation: 81.1 MB

-------------------------   --------------------
FINAL SINGLE POINT ENERGY     -2920.136713007970
-------------------------   --------------------


                            ***************************************
                            *     ORCA property calculations      *
                            ***************************************

                                    ---------------------
                                    Active property flags
                                    ---------------------
   (+) Dipole Moment
   (+) Chemical Shifts
   (+) Nuclear properties (Hyperfine,Quadrupole)


------------------------------------------------------------------------------
                       ORCA ELECTRIC PROPERTIES CALCULATION
------------------------------------------------------------------------------

Dipole Moment Calculation                       ... on
Quadrupole Moment Calculation                   ... off
Polarizability Calculation                      ... off
GBWName                                         ... arbr_15_r2scan3c_nmr.gbw
Electron density                                ... arbr_15_r2scan3c_nmr.scfp
The origin for moment calculation is the CENTER OF MASS  = ( 0.420703,  0.009302  0.000004)

-------------
DIPOLE MOMENT
-------------
                                X             Y             Z
Electronic contribution:     37.67299       0.47925       0.00004
Nuclear contribution   :    -38.70452      -0.85577      -0.00006
                        -----------------------------------------
Total Dipole Moment    :     -1.03153      -0.37653      -0.00002
                        -----------------------------------------
Magnitude (a.u.)       :      1.09810
Magnitude (Debye)      :      2.79115



--------------------
Rotational spectrum 
--------------------
 
Rotational constants in cm-1:     0.161639     0.015270     0.013989 
Rotational constants in MHz :  4845.823076   457.778834   419.379005 

 Dipole components along the rotational axes: 
x,y,z [a.u.] :     1.025753    -0.391994    -0.000016 
x,y,z [Debye]:     2.607258    -0.996369    -0.000042 

 


           ************************************************************
           *        Program running with 16 parallel MPI-processes    *
           *              working on a common directory               *
           ************************************************************
------------------------------------------------------------------------------
                                ORCA EPR/NMR CALCULATION
------------------------------------------------------------------------------

GBWName                      ... arbr_15_r2scan3c_nmr.gbw
Electron density             ... arbr_15_r2scan3c_nmr.scfp
Spin density                 ... arbr_15_r2scan3c_nmr.scfr
Treatment of gauge           ... GIAO (approximations 1/2el = 0,0)
Details of the CP(SCF) procedure:
       Solver   = POPLE   
       MaxIter  =    64   
       Tolerance=    1.000e-03
       COSX Grid=     1   
       Op-0     =   0- 45 =>  46-337
Multiplicity                 ... 1
g-tensor                     ... 0
NMR chemical shifts          ... 1
NMR spin-spin couplings      ... 0
NMR spectrum                 ... 0
Number of nuclei for epr/nmr ... 16
   Nucleus:   0C 
       Hyperfine : Isotope=   13 I=   0.500 P= 134.188
       Quadrupole: Isotope=   13 I=   0.500 Q=   0.000
       Spin-Orbit: Zeff=   3.600
       Nuclear Spin-Spin: Gn=   0.000
       EPRNMR Input: 
       rho(0)=N f(grad)=N a(iso)=N a(dip)=N a(orb)=N sigma(nmr)=Y spin-spin(nmr)=all-N,DSO-N,PSO-N,FC-N,SD-N
   Nucleus:   1O 
       Hyperfine : Isotope=   17 I=   2.500 P= -72.357
       Quadrupole: Isotope=   17 I=   2.500 Q=  -0.026
       Spin-Orbit: Zeff=   5.600
       Nuclear Spin-Spin: Gn=   0.000
       EPRNMR Input: 
       rho(0)=N f(grad)=N a(iso)=N a(dip)=N a(orb)=N sigma(nmr)=Y spin-spin(nmr)=all-N,DSO-N,PSO-N,FC-N,SD-N
   Nucleus:   2C 
       Hyperfine : Isotope=   13 I=   0.500 P= 134.188
       Quadrupole: Isotope=   13 I=   0.500 Q=   0.000
       Spin-Orbit: Zeff=   3.600
       Nuclear Spin-Spin: Gn=   0.000
       EPRNMR Input: 
       rho(0)=N f(grad)=N a(iso)=N a(dip)=N a(orb)=N sigma(nmr)=Y spin-spin(nmr)=all-N,DSO-N,PSO-N,FC-N,SD-N
   Nucleus:   3C 
       Hyperfine : Isotope=   13 I=   0.500 P= 134.188
       Quadrupole: Isotope=   13 I=   0.500 Q=   0.000
       Spin-Orbit: Zeff=   3.600
       Nuclear Spin-Spin: Gn=   0.000
       EPRNMR Input: 
       rho(0)=N f(grad)=N a(iso)=N a(dip)=N a(orb)=N sigma(nmr)=Y spin-spin(nmr)=all-N,DSO-N,PSO-N,FC-N,SD-N
   Nucleus:   4C 
       Hyperfine : Isotope=   13 I=   0.500 P= 134.188
       Quadrupole: Isotope=   13 I=   0.500 Q=   0.000
       Spin-Orbit: Zeff=   3.600
       Nuclear Spin-Spin: Gn=   0.000
       EPRNMR Input: 
       rho(0)=N f(grad)=N a(iso)=N a(dip)=N a(orb)=N sigma(nmr)=Y spin-spin(nmr)=all-N,DSO-N,PSO-N,FC-N,SD-N
   Nucleus:   5C 
       Hyperfine : Isotope=   13 I=   0.500 P= 134.188
       Quadrupole: Isotope=   13 I=   0.500 Q=   0.000
       Spin-Orbit: Zeff=   3.600
       Nuclear Spin-Spin: Gn=   0.000
       EPRNMR Input: 
       rho(0)=N f(grad)=N a(iso)=N a(dip)=N a(orb)=N sigma(nmr)=Y spin-spin(nmr)=all-N,DSO-N,PSO-N,FC-N,SD-N
   Nucleus:   6Br
       Hyperfine : Isotope=   79 I=   1.500 P= 134.140
       Quadrupole: Isotope=   79 I=   1.500 Q=   0.313
       Spin-Orbit: Zeff=  30.100
       Nuclear Spin-Spin: Gn=   0.000
       EPRNMR Input: 
       rho(0)=N f(grad)=N a(iso)=N a(dip)=N a(orb)=N sigma(nmr)=Y spin-spin(nmr)=all-N,DSO-N,PSO-N,FC-N,SD-N
   Nucleus:   7C 
       Hyperfine : Isotope=   13 I=   0.500 P= 134.188
       Quadrupole: Isotope=   13 I=   0.500 Q=   0.000
       Spin-Orbit: Zeff=   3.600
       Nuclear Spin-Spin: Gn=   0.000
       EPRNMR Input: 
       rho(0)=N f(grad)=N a(iso)=N a(dip)=N a(orb)=N sigma(nmr)=Y spin-spin(nmr)=all-N,DSO-N,PSO-N,FC-N,SD-N
   Nucleus:   8C 
       Hyperfine : Isotope=   13 I=   0.500 P= 134.188
       Quadrupole: Isotope=   13 I=   0.500 Q=   0.000
       Spin-Orbit: Zeff=   3.600
       Nuclear Spin-Spin: Gn=   0.000
       EPRNMR Input: 
       rho(0)=N f(grad)=N a(iso)=N a(dip)=N a(orb)=N sigma(nmr)=Y spin-spin(nmr)=all-N,DSO-N,PSO-N,FC-N,SD-N
   Nucleus:   9H 
       Hyperfine : Isotope=    1 I=   0.500 P= 533.552
       Quadrupole: Isotope=    2 I=   1.000 Q=   0.003
       Spin-Orbit: Zeff=   1.000
       Nuclear Spin-Spin: Gn=   0.000
       EPRNMR Input: 
       rho(0)=N f(grad)=N a(iso)=N a(dip)=N a(orb)=N sigma(nmr)=Y spin-spin(nmr)=all-N,DSO-N,PSO-N,FC-N,SD-N
   Nucleus:  10H 
       Hyperfine : Isotope=    1 I=   0.500 P= 533.552
       Quadrupole: Isotope=    2 I=   1.000 Q=   0.003
       Spin-Orbit: Zeff=   1.000
       Nuclear Spin-Spin: Gn=   0.000
       EPRNMR Input: 
       rho(0)=N f(grad)=N a(iso)=N a(dip)=N a(orb)=N sigma(nmr)=Y spin-spin(nmr)=all-N,DSO-N,PSO-N,FC-N,SD-N
   Nucleus:  11H 
       Hyperfine : Isotope=    1 I=   0.500 P= 533.552
       Quadrupole: Isotope=    2 I=   1.000 Q=   0.003
       Spin-Orbit: Zeff=   1.000
       Nuclear Spin-Spin: Gn=   0.000
       EPRNMR Input: 
       rho(0)=N f(grad)=N a(iso)=N a(dip)=N a(orb)=N sigma(nmr)=Y spin-spin(nmr)=all-N,DSO-N,PSO-N,FC-N,SD-N
   Nucleus:  12H 
       Hyperfine : Isotope=    1 I=   0.500 P= 533.552
       Quadrupole: Isotope=    2 I=   1.000 Q=   0.003
       Spin-Orbit: Zeff=   1.000
       Nuclear Spin-Spin: Gn=   0.000
       EPRNMR Input: 
       rho(0)=N f(grad)=N a(iso)=N a(dip)=N a(orb)=N sigma(nmr)=Y spin-spin(nmr)=all-N,DSO-N,PSO-N,FC-N,SD-N
   Nucleus:  13H 
       Hyperfine : Isotope=    1 I=   0.500 P= 533.552
       Quadrupole: Isotope=    2 I=   1.000 Q=   0.003
       Spin-Orbit: Zeff=   1.000
       Nuclear Spin-Spin: Gn=   0.000
       EPRNMR Input: 
       rho(0)=N f(grad)=N a(iso)=N a(dip)=N a(orb)=N sigma(nmr)=Y spin-spin(nmr)=all-N,DSO-N,PSO-N,FC-N,SD-N
   Nucleus:  14H 
       Hyperfine : Isotope=    1 I=   0.500 P= 533.552
       Quadrupole: Isotope=    2 I=   1.000 Q=   0.003
       Spin-Orbit: Zeff=   1.000
       Nuclear Spin-Spin: Gn=   0.000
       EPRNMR Input: 
       rho(0)=N f(grad)=N a(iso)=N a(dip)=N a(orb)=N sigma(nmr)=Y spin-spin(nmr)=all-N,DSO-N,PSO-N,FC-N,SD-N
   Nucleus:  15H 
       Hyperfine : Isotope=    1 I=   0.500 P= 533.552
       Quadrupole: Isotope=    2 I=   1.000 Q=   0.003
       Spin-Orbit: Zeff=   1.000
       Nuclear Spin-Spin: Gn=   0.000
       EPRNMR Input: 
       rho(0)=N f(grad)=N a(iso)=N a(dip)=N a(orb)=N sigma(nmr)=Y spin-spin(nmr)=all-N,DSO-N,PSO-N,FC-N,SD-N
Forming RHS of the CP-SCF equations         ... 
Calculating right hand sides for GIAO treatment        ... 
  Entering RightHandSide GIAO. ScalHFX=    0.2000 NeedHFX=1
     -> 1-electron GIAO integrals will be done analytically
     -> RIJCOSX used in SCF. Same chosen for GIAO calculation.
     Making grid for GIAO integrations   ...

GRID GIAO
---------

General Integration Accuracy     IntAcc      ... 4.388
Radial Grid Type                 RadialGrid  ... OptM3 with GC (2021)
Angular Grid (max. ang.)         AngularGrid ... 4 (Lebedev-302)
Angular grid pruning method      GridPruning ... 4 (adaptive)
Weight generation scheme         WeightScheme... Becke
Basis function cutoff            BFCut       ... 1.0000e-10
Integration weight cutoff        WCut        ... 1.0000e-14
Angular grids for H and He will be reduced by one unit
Partially contracted basis set               ... off
Rotationally invariant grid construction     ... off

Total number of grid points                  ...    81922
Total number of batches                      ...     1288
Average number of points per batch           ...       63
Average number of grid points per atom       ...     5120

  One-electron GIAO integrals (SHARK)     ... done
  Calculating G(B)[P]                     ... (RI-J: SHARK-ok) (COSX-ok) (add-J+K:ok) => dG/dB done
  DFT XC-terms                            ... done
  Extracting occupied and virtual blocks  ... 
  Operator  0  NO=  46 NV= 292 
  Transforming and RHS contribution       ... done
  Adding eps_i * S(B)_ai terms            ... done
  Projecting overlap derivatives          ... done
  Building G[dS/dB_ij] (COSX)             ... done
  Transforming to MO basis                ... done
  Summing G[dS/dB_ij] into RHS contribs.  ... done

  GIAO profiling information: 
    Total GIAO time               ...       7.2 sec
       GIAO 1-electron integrals  ...       0.1 sec (  0.8%)
       GIAO G(dS/dB) terms        ...       0.6 sec (  8.6%)
       GIAO RI-J                  ...       1.1 sec ( 15.6%)
       GIAO COSX                  ...       1.9 sec ( 26.7%)
       GIAO XC-terms              ...       2.8 sec ( 38.5%)
       Right hand side assembly   ...       0.0 sec (  0.5%)

  GIAO right hand side done


------------------------------------------------------------------------------
                           ORCA CP-SCF CALCULATION
------------------------------------------------------------------------------

Input orbitals are from        ... arbr_15_r2scan3c_nmr.gbw
Input Perturbation             ... arbr_15_r2scan3c_nmr.pin.tmp
Wavefunction output            ... arbr_15_r2scan3c_nmr.pout.tmp
Perturbation mode              ... Imaginary perturbation
Solver                         ... POPLE
Max. number of iterations      ... 64
Convergence tolerance          ... 1.000e-03
Integral handling              ... Direct
DFT GridXC                     ... 1
COSX GridX                     ... 1
COSX IntAccX                   ... 3.067
COSX Algorithm                 ... Auto
Number of perturbations        ... 3
Number of operators            ... 1
Orbital ranges used for CP-SCF:
 Operator 0:  Orbitals   0... 45  to  46...337
Variables per perturbation     ... 13432
DFT calculation                         ... on
XC functional terms                     ... off
Hybrid DFT                              ... on
   Exchange mixing (SCF)                ...  0.200
   Exchange mixing (CP-SCF)             ...  0.200
   GGA exch. scaling(SCF)               ...  0.720
   GGA exch. scaling (CP-SCF)           ...  0.720
   GGA corr. scaling (SCF)              ...  0.810
   GGA corr. scaling (CP-SCF)           ...  0.810

CP-SCF GRID
-----------

General Integration Accuracy     IntAcc      ... 3.467
Radial Grid Type                 RadialGrid  ... OptM3 with GC (2021)
Angular Grid (max. ang.)         AngularGrid ... 1 (Lebedev-50)
Angular grid pruning method      GridPruning ... 4 (adaptive)
Weight generation scheme         WeightScheme... Becke
Basis function cutoff            BFCut       ... 1.0000e-10
Integration weight cutoff        WCut        ... 1.0000e-14
Angular grids for H and He will be reduced by one unit
Partially contracted basis set               ... off
Rotationally invariant grid construction     ... off

Total number of grid points                  ...    14666
Total number of batches                      ...      238
Average number of points per batch           ...       61
Average number of grid points per atom       ...      917

CP-SCF GRIDX
------------

General Integration Accuracy     IntAcc      ... 3.067
Radial Grid Type                 RadialGrid  ... OptM3 with GC (2021)
Angular Grid (max. ang.)         AngularGrid ... 1 (Lebedev-50)
Angular grid pruning method      GridPruning ... 4 (adaptive)
Weight generation scheme         WeightScheme... Becke
Basis function cutoff            BFCut       ... 1.0000e-10
Integration weight cutoff        WCut        ... 1.0000e-14
Angular grids for H and He will be reduced by one unit
Partially contracted basis set               ... on
Rotationally invariant grid construction     ... off

Total number of grid points                  ...     5587
Total number of batches                      ...       96
Average number of points per batch           ...       58
Average number of grid points per atom       ...      349

Memory available               ... 3970.6 MB
Memory needed per perturbation ...   3.5 MB
Perturbations treated per batch... 3
Number of batches              ... 1
     CP-SCF ITERATION   0:   4.9168e-01 (   0.7 sec   0/  3 done)
     CP-SCF ITERATION   1:   1.2688e-02 (   0.6 sec   0/  3 done)
     CP-SCF ITERATION   2:   8.2393e-04 (   0.6 sec   3/  3 done)
                    *** THE CP-SCF HAS CONVERGED ***

Forming final perturbed densities           ... done
Transforming perturbed density to AO basis  ... done

Magnetic field perturbation calculated in  9.472 sec

---------------
CHEMICAL SHIFTS
---------------

Note: using conversion factor for au to ppm alpha^2/2 =   26.625677252 
GIAO: Analytic para- and diamagnetic shielding integrals (SHARK)       ...done
 --------------
 Nucleus   0C :
 --------------

Diamagnetic contribution to the shielding tensor (ppm) : 
           244.601          8.298         0.000
            17.982        244.157         0.000
             0.001          0.001       244.626

Paramagnetic contribution to the shielding tensor (ppm): 
          -112.385         32.112         0.001
            17.234       -100.742         0.001
            -0.000          0.001      -137.089

Total shielding tensor (ppm): 
           132.216         40.410         0.001
            35.217        143.415         0.002
             0.001          0.002       107.537


 Diagonalized sT*s matrix:
 
 sDSO           231.455          244.626          257.302  iso=     244.461
 sPSO          -131.859         -137.089          -81.268  iso=    -116.739
        ---------------  ---------------  ---------------
 Total           99.596          107.537          176.034  iso=     127.722

 --------------
 Nucleus   1O :
 --------------

Diamagnetic contribution to the shielding tensor (ppm) : 
           412.847         10.847         0.000
             3.057        400.949         0.002
             0.004         -0.006       352.953

Paramagnetic contribution to the shielding tensor (ppm): 
          -172.233        -47.421        -0.001
           -81.637       -246.289        -0.002
            -0.004          0.012       -68.982

Total shielding tensor (ppm): 
           240.614        -36.574        -0.001
           -78.580        154.661        -0.000
            -0.001          0.006       283.971


 Diagonalized sT*s matrix:
 
 sDSO           407.956          405.840          352.953  iso=     388.916
 sPSO          -281.764         -136.757          -68.982  iso=    -162.501
        ---------------  ---------------  ---------------
 Total          126.192          269.083          283.971  iso=     226.415

 --------------
 Nucleus   2C :
 --------------

Diamagnetic contribution to the shielding tensor (ppm) : 
           262.991         -3.998        -0.000
            -5.336        259.184        -0.000
             0.002         -0.000       211.241

Paramagnetic contribution to the shielding tensor (ppm): 
          -325.475          3.854         0.001
             9.509       -257.812         0.000
            -0.000          0.001       -97.904

Total shielding tensor (ppm): 
           -62.485         -0.144         0.001
             4.173          1.373         0.000
             0.002          0.001       113.337


 Diagonalized sT*s matrix:
 
 sDSO           259.219          262.955          211.241  iso=     244.472
 sPSO          -257.863         -325.424          -97.904  iso=    -227.064
        ---------------  ---------------  ---------------
 Total            1.357          -62.469          113.337  iso=      17.408

 --------------
 Nucleus   3C :
 --------------

Diamagnetic contribution to the shielding tensor (ppm) : 
           270.090         -1.175         0.000
            -4.232        264.623        -0.000
            -0.001         -0.003       235.888

Paramagnetic contribution to the shielding tensor (ppm): 
          -233.418        -41.191         0.001
           -17.892       -262.745         0.000
             0.004          0.003       -61.164

Total shielding tensor (ppm): 
            36.671        -42.366         0.001
           -22.124          1.877         0.000
             0.003          0.000       174.723


 Diagonalized sT*s matrix:
 
 sDSO           264.622          270.090          235.888  iso=     256.867
 sPSO          -277.786         -218.377          -61.164  iso=    -185.776
        ---------------  ---------------  ---------------
 Total          -13.164           51.713          174.723  iso=      71.091

 --------------
 Nucleus   4C :
 --------------

Diamagnetic contribution to the shielding tensor (ppm) : 
           271.250          2.963         0.000
             2.289        261.756        -0.000
            -0.000          0.000       234.946

Paramagnetic contribution to the shielding tensor (ppm): 
          -246.050         35.110         0.000
            40.223       -298.261         0.001
             0.000          0.001       -85.489

Total shielding tensor (ppm): 
            25.200         38.074         0.000
            42.513        -36.505         0.001
            -0.000          0.002       149.457


 Diagonalized sT*s matrix:
 
 sDSO           270.336          262.669          234.946  iso=     255.984
 sPSO          -228.750         -315.560          -85.489  iso=    -209.933
        ---------------  ---------------  ---------------
 Total           41.585          -52.891          149.457  iso=      46.051

 --------------
 Nucleus   5C :
 --------------

Diamagnetic contribution to the shielding tensor (ppm) : 
           265.165         -0.914        -0.000
            -1.103        254.958        -0.000
             0.001         -0.001       223.160

Paramagnetic contribution to the shielding tensor (ppm): 
          -307.988         12.880         0.000
            11.216       -187.919         0.000
            -0.000          0.001      -103.933

Total shielding tensor (ppm): 
           -42.823         11.966         0.000
            10.113         67.040         0.000
             0.001          0.000       119.227


 Diagonalized sT*s matrix:
 
 sDSO           265.250          254.873          223.160  iso=     247.761
 sPSO          -309.008         -186.899         -103.933  iso=    -199.947
        ---------------  ---------------  ---------------
 Total          -43.758           67.975          119.227  iso=      47.815

 --------------
 Nucleus   6Br:
 --------------

Diamagnetic contribution to the shielding tensor (ppm) : 
          3128.353         -0.747        -0.000
            -0.703       3121.020        -0.000
             0.000          0.000      3130.731

Paramagnetic contribution to the shielding tensor (ppm): 
          -162.928       -107.715         0.001
          -115.401      -1436.243        -0.001
            -0.006         -0.002     -1560.551

Total shielding tensor (ppm): 
          2965.425       -108.462         0.001
          -116.104       1684.777        -0.001
            -0.006         -0.002      1570.181


 Diagonalized sT*s matrix:
 
 sDSO          3130.731         3120.950         3128.423  iso=    3126.701
 sPSO         -1560.551        -1445.942         -153.229  iso=   -1053.241
        ---------------  ---------------  ---------------
 Total         1570.181         1675.008         2975.194  iso=    2073.461

 --------------
 Nucleus   7C :
 --------------

Diamagnetic contribution to the shielding tensor (ppm) : 
           269.061         -4.851        -0.000
            -3.371        261.625        -0.000
             0.001          0.000       229.899

Paramagnetic contribution to the shielding tensor (ppm): 
          -254.847        -38.895         0.001
           -44.092       -288.121         0.001
            -0.001          0.000       -80.982

Total shielding tensor (ppm): 
            14.214        -43.746         0.001
           -47.463        -26.496         0.001
             0.000          0.000       148.916


 Diagonalized sT*s matrix:
 
 sDSO           269.888          260.798          229.899  iso=     253.528
 sPSO          -228.230         -314.738          -80.982  iso=    -207.983
        ---------------  ---------------  ---------------
 Total           41.659          -53.940          148.916  iso=      45.545

 --------------
 Nucleus   8C :
 --------------

Diamagnetic contribution to the shielding tensor (ppm) : 
           267.703          3.377        -0.000
             1.001        260.872        -0.000
             0.001         -0.002       227.863

Paramagnetic contribution to the shielding tensor (ppm): 
          -229.885         27.798         0.000
            27.901       -274.552         0.001
            -0.000          0.003       -70.180

Total shielding tensor (ppm): 
            37.819         31.176         0.000
            28.902        -13.680         0.000
             0.000          0.002       157.683


 Diagonalized sT*s matrix:
 
 sDSO           260.529          268.046          227.863  iso=     252.146
 sPSO          -287.850         -216.586          -70.180  iso=    -191.539
        ---------------  ---------------  ---------------
 Total          -27.321           51.460          157.683  iso=      60.607

 --------------
 Nucleus   9H :
 --------------

Diamagnetic contribution to the shielding tensor (ppm) : 
            27.444          2.113        -1.052
             4.264         29.148        -7.464
            -0.396         -7.620        30.369

Paramagnetic contribution to the shielding tensor (ppm): 
             0.589          1.280        -1.195
            -2.939          0.493         4.134
            -1.916          4.941        -2.965

Total shielding tensor (ppm): 
            28.033          3.393        -2.247
             1.325         29.641        -3.330
            -2.312         -2.679        27.404


 Diagonalized sT*s matrix:
 
 sDSO            25.241           24.610           37.110  iso=      28.987
 sPSO            -0.130            1.742           -3.494  iso=      -0.628
        ---------------  ---------------  ---------------
 Total           25.110           26.351           33.616  iso=      28.359

 --------------
 Nucleus  10H :
 --------------

Diamagnetic contribution to the shielding tensor (ppm) : 
            39.744         -1.927         0.000
            -0.809         23.105         0.000
             0.001         -0.000        20.908

Paramagnetic contribution to the shielding tensor (ppm): 
            -6.741          2.245        -0.000
             3.157          3.921         0.000
            -0.000          0.000         2.874

Total shielding tensor (ppm): 
            33.003          0.318         0.000
             2.348         27.026         0.000
             0.000          0.000        23.782


 Diagonalized sT*s matrix:
 
 sDSO            20.908           24.231           38.618  iso=      27.919
 sPSO             2.874            2.513           -5.333  iso=       0.018
        ---------------  ---------------  ---------------
 Total           23.782           26.745           33.285  iso=      27.937

 --------------
 Nucleus  11H :
 --------------

Diamagnetic contribution to the shielding tensor (ppm) : 
            27.444          2.113         1.052
             4.264         29.147         7.464
             0.396          7.620        30.369

Paramagnetic contribution to the shielding tensor (ppm): 
             0.588          1.280         1.195
            -2.939          0.493        -4.134
             1.916         -4.941        -2.965

Total shielding tensor (ppm): 
            28.032          3.393         2.247
             1.325         29.641         3.330
             2.312          2.679        27.404


 Diagonalized sT*s matrix:
 
 sDSO            25.240           24.610           37.110  iso=      28.987
 sPSO            -0.130            1.741           -3.494  iso=      -0.628
        ---------------  ---------------  ---------------
 Total           25.111           26.351           33.615  iso=      28.359

 --------------
 Nucleus  12H :
 --------------

Diamagnetic contribution to the shielding tensor (ppm) : 
            34.825          6.264         0.000
            10.662         42.807        -0.000
            -0.001         -0.000        21.789

Paramagnetic contribution to the shielding tensor (ppm): 
            -5.815         -9.219        -0.000
           -12.866        -17.683         0.000
             0.001          0.000        -0.545

Total shielding tensor (ppm): 
            29.009         -2.955         0.000
            -2.204         25.124        -0.000
             0.000         -0.000        21.244


 Diagonalized sT*s matrix:
 
 sDSO            21.789           48.003           29.629  iso=      33.140
 sPSO            -0.545          -24.165            0.666  iso=      -8.014
        ---------------  ---------------  ---------------
 Total           21.244           23.838           30.295  iso=      25.126

 --------------
 Nucleus  13H :
 --------------

Diamagnetic contribution to the shielding tensor (ppm) : 
            32.063         -4.467         0.000
            -3.871         42.286        -0.000
             0.000          0.000        22.652

Paramagnetic contribution to the shielding tensor (ppm): 
            -3.126          8.225        -0.000
             6.904        -17.952         0.000
            -0.000         -0.000        -2.792

Total shielding tensor (ppm): 
            28.937          3.758        -0.000
             3.033         24.333        -0.000
            -0.000          0.000        19.859


 Diagonalized sT*s matrix:
 
 sDSO            22.652           43.467           30.882  iso=      32.333
 sPSO            -2.792          -20.933           -0.145  iso=      -7.957
        ---------------  ---------------  ---------------
 Total           19.859           22.534           30.737  iso=      24.377

 --------------
 Nucleus  14H :
 --------------

Diamagnetic contribution to the shielding tensor (ppm) : 
            33.567          5.435        -0.000
             5.199         39.599        -0.000
            -0.000          0.000        21.462

Paramagnetic contribution to the shielding tensor (ppm): 
            -6.118         -9.666         0.000
            -8.540        -13.830         0.000
             0.000         -0.000        -1.406

Total shielding tensor (ppm): 
            27.449         -4.230         0.000
            -3.341         25.769         0.000
            -0.000         -0.000        20.056


 Diagonalized sT*s matrix:
 
 sDSO            21.462           42.397           30.770  iso=      31.543
 sPSO            -1.406          -19.665           -0.284  iso=      -7.118
        ---------------  ---------------  ---------------
 Total           20.056           22.732           30.486  iso=      24.425

 --------------
 Nucleus  15H :
 --------------

Diamagnetic contribution to the shielding tensor (ppm) : 
            31.116         -5.517        -0.000
            -7.116         41.763         0.000
             0.000         -0.000        21.263

Paramagnetic contribution to the shielding tensor (ppm): 
            -2.948          7.406         0.000
             8.531        -16.790        -0.000
            -0.000          0.000         0.198

Total shielding tensor (ppm): 
            28.169          1.889        -0.000
             1.415         24.974        -0.000
            -0.000         -0.000        21.460


 Diagonalized sT*s matrix:
 
 sDSO            21.263           44.686           28.194  iso=      31.381
 sPSO             0.198          -20.413            0.676  iso=      -6.513
        ---------------  ---------------  ---------------
 Total           21.460           24.273           28.869  iso=      24.868



--------------------------------
CHEMICAL SHIELDING SUMMARY (ppm)
--------------------------------


  Nucleus  Element    Isotropic     Anisotropy
  -------  -------  ------------   ------------
      0       C          127.722         72.467 
      1       O          226.415         86.333 
      2       C           17.408        143.893 
      3       C           71.091        155.449 
      4       C           46.051        155.110 
      5       C           47.815        107.119 
      6       Br        2073.461       1352.599 
      7       C           45.545        155.057 
      8       C           60.607        145.614 
      9       H           28.359          7.885 
     10       H           27.937          8.022 
     11       H           28.359          7.885 
     12       H           25.126          7.754 
     13       H           24.377          9.541 
     14       H           24.425          9.092 
     15       H           24.868          6.003 



Maximum memory used throughout the entire EPRNMR-calculation: 48.4 MB

Timings for individual modules:

Sum of individual times         ...       36.124 sec (=   0.602 min)
GTO integral calculation        ...        0.836 sec (=   0.014 min)   2.3 %
SCF iterations                  ...       24.647 sec (=   0.411 min)  68.2 %
EPR/NMR calculation             ...       10.641 sec (=   0.177 min)  29.5 %
                             ****ORCA TERMINATED NORMALLY****
TOTAL RUN TIME: 0 days 0 hours 0 minutes 36 seconds 697 msec
