
                                 *****************
                                 * O   R   C   A *
                                 *****************

                                            #,                                       
                                            ###                                      
                                            ####                                     
                                            #####                                    
                                            ######                                   
                                           ########,                                 
                                     ,,################,,,,,                         
                               ,,#################################,,                 
                          ,,##########################################,,             
                       ,#########################################, ''#####,          
                    ,#############################################,,   '####,        
                  ,##################################################,,,,####,       
                ,###########''''           ''''###############################       
              ,#####''   ,,,,##########,,,,          '''####'''          '####       
            ,##' ,,,,###########################,,,                        '##       
           ' ,,###''''                  '''############,,,                           
         ,,##''                                '''############,,,,        ,,,,,,###''
      ,#''                                            '''#######################'''  
     '                                                          ''''####''''         
             ,#######,   #######,   ,#######,      ##                                
            ,#'     '#,  ##    ##  ,#'     '#,    #''#        ######   ,####,        
            ##       ##  ##   ,#'  ##            #'  '#       #        #'  '#        
            ##       ##  #######   ##           ,######,      #####,   #    #        
            '#,     ,#'  ##    ##  '#,     ,#' ,#      #,         ##   #,  ,#        
             '#######'   ##     ##  '#######'  #'      '#     #####' # '####'        



                  #######################################################
                  #                        -***-                        #
                  #          Department of theory and spectroscopy      #
                  #    Directorship and core code : Frank Neese         #
                  #        Max Planck Institute fuer Kohlenforschung    #
                  #                Kaiser Wilhelm Platz 1               #
                  #                 D-45470 Muelheim/Ruhr               #
                  #                      Germany                        #
                  #                                                     #
                  #                  All rights reserved                #
                  #                        -***-                        #
                  #######################################################


                         Program Version 5.0.4 -  RELEASE  -


 With contributions from (in alphabetic order):
   Daniel Aravena         : Magnetic Suceptibility
   Michael Atanasov       : Ab Initio Ligand Field Theory (pilot matlab implementation)
   Alexander A. Auer      : GIAO ZORA, VPT2 properties, NMR spectrum
   Ute Becker             : Parallelization
   Giovanni Bistoni       : ED, misc. LED, open-shell LED, HFLD
   Martin Brehm           : Molecular dynamics
   Dmytro Bykov           : SCF Hessian
   Vijay G. Chilkuri      : MRCI spin determinant printing, contributions to CSF-ICE
   Dipayan Datta          : RHF DLPNO-CCSD density
   Achintya Kumar Dutta   : EOM-CC, STEOM-CC
   Dmitry Ganyushin       : Spin-Orbit,Spin-Spin,Magnetic field MRCI
   Miquel Garcia          : C-PCM and meta-GGA Hessian, CC/C-PCM, Gaussian charge scheme
   Yang Guo               : DLPNO-NEVPT2, F12-NEVPT2, CIM, IAO-localization
   Andreas Hansen         : Spin unrestricted coupled pair/coupled cluster methods
   Benjamin Helmich-Paris : MC-RPA, TRAH-SCF, COSX integrals
   Lee Huntington         : MR-EOM, pCC
   Robert Izsak           : Overlap fitted RIJCOSX, COSX-SCS-MP3, EOM
   Marcus Kettner         : VPT2
   Christian Kollmar      : KDIIS, OOCD, Brueckner-CCSD(T), CCSD density, CASPT2, CASPT2-K
   Simone Kossmann        : Meta GGA functionals, TD-DFT gradient, OOMP2, MP2 Hessian
   Martin Krupicka        : Initial AUTO-CI
   Lucas Lang             : DCDCAS
   Marvin Lechner         : AUTO-CI (C++ implementation), FIC-MRCC
   Dagmar Lenk            : GEPOL surface, SMD
   Dimitrios Liakos       : Extrapolation schemes; Compound Job, initial MDCI parallelization
   Dimitrios Manganas     : Further ROCIS development; embedding schemes
   Dimitrios Pantazis     : SARC Basis sets
   Anastasios Papadopoulos: AUTO-CI, single reference methods and gradients
   Taras Petrenko         : DFT Hessian,TD-DFT gradient, ASA, ECA, R-Raman, ABS, FL, XAS/XES, NRVS
   Peter Pinski           : DLPNO-MP2, DLPNO-MP2 Gradient
   Christoph Reimann      : Effective Core Potentials
   Marius Retegan         : Local ZFS, SOC
   Christoph Riplinger    : Optimizer, TS searches, QM/MM, DLPNO-CCSD(T), (RO)-DLPNO pert. Triples
   Tobias Risthaus        : Range-separated hybrids, TD-DFT gradient, RPA, STAB
   Michael Roemelt        : Original ROCIS implementation
   Masaaki Saitow         : Open-shell DLPNO-CCSD energy and density
   Barbara Sandhoefer     : DKH picture change effects
   Avijit Sen             : IP-ROCIS
   Kantharuban Sivalingam : CASSCF convergence, NEVPT2, FIC-MRCI
   Bernardo de Souza      : ESD, SOC TD-DFT
   Georgi Stoychev        : AutoAux, RI-MP2 NMR, DLPNO-MP2 response
   Willem Van den Heuvel  : Paramagnetic NMR
   Boris Wezisla          : Elementary symmetry handling
   Frank Wennmohs         : Technical directorship


 We gratefully acknowledge several colleagues who have allowed us to
 interface, adapt or use parts of their codes:
   Stefan Grimme, W. Hujo, H. Kruse, P. Pracht,  : VdW corrections, initial TS optimization,
                  C. Bannwarth, S. Ehlert          DFT functionals, gCP, sTDA/sTD-DF
   Ed Valeev, F. Pavosevic, A. Kumar             : LibInt (2-el integral package), F12 methods
   Garnet Chan, S. Sharma, J. Yang, R. Olivares  : DMRG
   Ulf Ekstrom                                   : XCFun DFT Library
   Mihaly Kallay                                 : mrcc  (arbitrary order and MRCC methods)
   Jiri Pittner, Ondrej Demel                    : Mk-CCSD
   Frank Weinhold                                : gennbo (NPA and NBO analysis)
   Christopher J. Cramer and Donald G. Truhlar   : smd solvation model
   Lars Goerigk                                  : TD-DFT with DH, B97 family of functionals
   V. Asgeirsson, H. Jonsson                     : NEB implementation
   FAccTs GmbH                                   : IRC, NEB, NEB-TS, DLPNO-Multilevel, CI-OPT
                                                   MM, QMMM, 2- and 3-layer-ONIOM, Crystal-QMMM,
                                                   LR-CPCM, SF, NACMEs, symmetry and pop. for TD-DFT,
                                                   nearIR, NL-DFT gradient (VV10), updates on ESD,
                                                   ML-optimized integration grids
   S Lehtola, MJT Oliveira, MAL Marques          : LibXC Library
   Liviu Ungur et al                             : ANISO software


 Your calculation uses the libint2 library for the computation of 2-el integrals
 For citations please refer to: http://libint.valeyev.net

 Your ORCA version has been built with support for libXC version: 5.1.0
 For citations please refer to: https://tddft.org/programs/libxc/

 This ORCA versions uses:
   CBLAS   interface :  Fast vector & matrix operations
   LAPACKE interface :  Fast linear algebra routines
   SCALAPACK package :  Parallel linear algebra routines
   Shared memory     :  Shared parallel matrices
   BLAS/LAPACK       :  OpenBLAS 0.3.15  USE64BITINT DYNAMIC_ARCH NO_AFFINITY SkylakeX SINGLE_THREADED
        Core in use  :  SkylakeX
   Copyright (c) 2011-2014, The OpenBLAS Project



Information: The global flag for chemical shieldings has been found
             ==>> will calculate the chemical shieldings for all atoms in the system

================================================================================

----- Orbital basis set information -----
Your calculation utilizes the basis: def2-TZVP
   F. Weigend and R. Ahlrichs, Phys. Chem. Chem. Phys. 7, 3297 (2005).

----- AuxJ basis set information -----
Your calculation utilizes the auxiliary basis: def2/J
   F. Weigend, Phys. Chem. Chem. Phys. 8, 1057 (2006).

================================================================================
                                        WARNINGS
                       Please study these warnings very carefully!
================================================================================


INFO   : the flag for use of the SHARK integral package has been found!

================================================================================
                                       INPUT FILE
================================================================================
NAME = arbr_26_r2scan3c_nmr.inp
|  1> %PAL NPROCS 16 END
|  2> %maxcore 4000
|  3> # arbr_26_r2scan3c.out
|  4> ! NMR B3LYP def2-tzvp 
|  5> * xyz 0 1
|  6>    C       -4.71593         0.24461        -1.26413
|  7>    C       -4.30953        -0.49933         0.00003
|  8>    C       -4.88579        -1.90649         0.00048
|  9>    C       -4.71559         0.24530         1.26388
| 10>    O       -2.87029        -0.74141        -0.00006
| 11>    C       -2.00738         0.28022        -0.00017
| 12>    O       -2.28925         1.45164        -0.00003
| 13>    N       -0.73297        -0.22788        -0.00011
| 14>    C        0.46722         0.47352        -0.00005
| 15>    C        0.56667         1.86479        -0.00001
| 16>    C        1.83974         2.40681         0.00004
| 17>    C        2.95950         1.58902         0.00005
| 18>    C        2.72172         0.22444         0.00000
| 19>   Br        4.20668        -0.96562         0.00001
| 20>    N        1.53331        -0.32770        -0.00005
| 21>    H       -4.33072         1.26109        -1.26753
| 22>    H       -4.34637        -0.28304        -2.14456
| 23>    H       -5.80473         0.28031        -1.31956
| 24>    H       -4.55893        -2.45144        -0.88526
| 25>    H       -4.55872        -2.45096         0.88643
| 26>    H       -5.97469        -1.85905         0.00060
| 27>    H       -4.33029         1.26176         1.26664
| 28>    H       -4.34588        -0.28191         2.14450
| 29>    H       -5.80438         0.28113         1.31953
| 30>    H       -0.63530        -1.23208        -0.00013
| 31>    H       -0.31879         2.47735        -0.00002
| 32>    H        1.96061         3.48257         0.00008
| 33>    H        3.96470         1.98074         0.00009
| 34> *
| 35> 
| 36>                          ****END OF INPUT****
================================================================================

                       ****************************
                       * Single Point Calculation *
                       ****************************

---------------------------------
CARTESIAN COORDINATES (ANGSTROEM)
---------------------------------
  C     -4.715930    0.244610   -1.264130
  C     -4.309530   -0.499330    0.000030
  C     -4.885790   -1.906490    0.000480
  C     -4.715590    0.245300    1.263880
  O     -2.870290   -0.741410   -0.000060
  C     -2.007380    0.280220   -0.000170
  O     -2.289250    1.451640   -0.000030
  N     -0.732970   -0.227880   -0.000110
  C      0.467220    0.473520   -0.000050
  C      0.566670    1.864790   -0.000010
  C      1.839740    2.406810    0.000040
  C      2.959500    1.589020    0.000050
  C      2.721720    0.224440    0.000000
  Br     4.206680   -0.965620    0.000010
  N      1.533310   -0.327700   -0.000050
  H     -4.330720    1.261090   -1.267530
  H     -4.346370   -0.283040   -2.144560
  H     -5.804730    0.280310   -1.319560
  H     -4.558930   -2.451440   -0.885260
  H     -4.558720   -2.450960    0.886430
  H     -5.974690   -1.859050    0.000600
  H     -4.330290    1.261760    1.266640
  H     -4.345880   -0.281910    2.144500
  H     -5.804380    0.281130    1.319530
  H     -0.635300   -1.232080   -0.000130
  H     -0.318790    2.477350   -0.000020
  H      1.960610    3.482570    0.000080
  H      3.964700    1.980740    0.000090

----------------------------
CARTESIAN COORDINATES (A.U.)
----------------------------
  NO LB      ZA    FRAG     MASS         X           Y           Z
   0 C     6.0000    0    12.011   -8.911816    0.462246   -2.388859
   1 C     6.0000    0    12.011   -8.143831   -0.943597    0.000057
   2 C     6.0000    0    12.011   -9.232805   -3.602744    0.000907
   3 C     6.0000    0    12.011   -8.911174    0.463550    2.388387
   4 O     8.0000    0    15.999   -5.424062   -1.401062   -0.000113
   5 C     6.0000    0    12.011   -3.793398    0.529539   -0.000321
   6 O     8.0000    0    15.999   -4.326056    2.743202   -0.000057
   7 N     7.0000    0    14.007   -1.385113   -0.430631   -0.000208
   8 C     6.0000    0    12.011    0.882918    0.894823   -0.000094
   9 C     6.0000    0    12.011    1.070851    3.523942   -0.000019
  10 C     6.0000    0    12.011    3.476605    4.548212    0.000076
  11 C     6.0000    0    12.011    5.592644    3.002813    0.000094
  12 C     6.0000    0    12.011    5.143305    0.424130    0.000000
  13 Br   35.0000    0    79.900    7.949473   -1.824757    0.000019
  14 N     7.0000    0    14.007    2.897536   -0.619263   -0.000094
  15 H     1.0000    0     1.008   -8.183875    2.383115   -2.395285
  16 H     1.0000    0     1.008   -8.213449   -0.534868   -4.052631
  17 H     1.0000    0     1.008  -10.969350    0.529709   -2.493607
  18 H     1.0000    0     1.008   -8.615129   -4.632550   -1.672899
  19 H     1.0000    0     1.008   -8.614732   -4.631643    1.675110
  20 H     1.0000    0     1.008  -11.290528   -3.513095    0.001134
  21 H     1.0000    0     1.008   -8.183062    2.384381    2.393603
  22 H     1.0000    0     1.008   -8.212523   -0.532733    4.052518
  23 H     1.0000    0     1.008  -10.968689    0.531259    2.493550
  24 H     1.0000    0     1.008   -1.200543   -2.328294   -0.000246
  25 H     1.0000    0     1.008   -0.602426    4.681513   -0.000038
  26 H     1.0000    0     1.008    3.705016    6.581104    0.000151
  27 H     1.0000    0     1.008    7.492197    3.743056    0.000170

--------------------------------
INTERNAL COORDINATES (ANGSTROEM)
--------------------------------
 C      0   0   0     0.000000000000     0.00000000     0.00000000
 C      1   0   0     1.522073647758     0.00000000     0.00000000
 C      2   1   0     1.520583787793   110.57098674     0.00000000
 C      2   1   3     1.522062870909   112.29045262   235.98067764
 O      2   1   3     1.459456923688   110.14066495   112.84171678
 C      5   2   1     1.337288875711   120.63801479    62.20753400
 O      6   5   2     1.204854984179   126.28475855     0.00000000
 N      6   5   2     1.371964453512   108.44889980   179.99447123
 C      8   6   5     1.390114383675   127.96077792   180.00698586
 C      9   8   6     1.394819886939   124.39096538     0.00000000
 C     10   9   8     1.383652018320   117.15090903   180.00038797
 C     11  10   9     1.386594007560   120.79608968     0.00000000
 C     12  11  10     1.385141836528   116.25700839     0.00000000
 Br    13  12  11     1.902984236745   118.82436848   180.00000000
 N     13  12  11     1.310410969963   124.80439206     0.00000000
 H      1   2   3     1.087028009989   111.40918361   178.63698236
 H      1   2   3     1.090938174692   110.08649303   299.99988726
 H      1   2   3     1.090794396254   108.94849120    58.54561594
 H      3   2   1     1.090111604241   110.41039218    57.38190285
 H      3   2   1     1.090105393207   110.41054350   177.61858032
 H      3   2   1     1.089932923624   109.77545416   297.50014632
 H      4   2   1     1.087039391743   111.40802828   305.37718481
 H      4   2   1     1.090929627703   110.08664013   184.01410470
 H      4   2   1     1.090799878759   108.94882519    65.46751831
 H      8   6   5     1.008938585495   117.29208843     0.00000000
 H     10   9   8     1.076693626479   120.58679994     0.00000000
 H     11  10   9     1.082529046308   119.47301736   180.00047694
 H     12  11  10     1.078828809404   122.56782349   180.00009277

---------------------------
INTERNAL COORDINATES (A.U.)
---------------------------
 C      0   0   0     0.000000000000     0.00000000     0.00000000
 C      1   0   0     2.876302349922     0.00000000     0.00000000
 C      2   1   0     2.873486922610   110.57098674     0.00000000
 C      2   1   3     2.876281984628   112.29045262   235.98067764
 O      2   1   3     2.757973890025   110.14066495   112.84171678
 C      5   2   1     2.527109737033   120.63801479    62.20753400
 O      6   5   2     2.276845951188   126.28475855     0.00000000
 N      6   5   2     2.592637082612   108.44889980   179.99447123
 C      8   6   5     2.626935479970   127.96077792   180.00698586
 C      9   8   6     2.635827592461   124.39096538     0.00000000
 C     10   9   8     2.614723379272   117.15090903   180.00038797
 C     11  10   9     2.620282933224   120.79608968     0.00000000
 C     12  11  10     2.617538727675   116.25700839     0.00000000
 Br    13  12  11     3.596119044617   118.82436848   180.00000000
 N     13  12  11     2.476317856117   124.80439206     0.00000000
 H      1   2   3     2.054185238780   111.40918361   178.63698236
 H      1   2   3     2.061574379208   110.08649303   299.99988726
 H      1   2   3     2.061302677337   108.94849120    58.54561594
 H      3   2   1     2.060012387424   110.41039218    57.38190285
 H      3   2   1     2.060000650273   110.41054350   177.61858032
 H      3   2   1     2.059674729994   109.77545416   297.50014632
 H      4   2   1     2.054206747178   111.40802828   305.37718481
 H      4   2   1     2.061558227739   110.08664013   184.01410470
 H      4   2   1     2.061313037768   108.94882519    65.46751831
 H      8   6   5     1.906617612531   117.29208843     0.00000000
 H     10   9   8     2.034656084183   120.58679994     0.00000000
 H     11  10   9     2.045683429537   119.47301736   180.00047694
 H     12  11  10     2.038690995158   122.56782349   180.00009277

---------------------
BASIS SET INFORMATION
---------------------
There are 5 groups of distinct atoms

 Group   1 Type C   : 11s6p2d1f contracted to 5s3p2d1f pattern {62111/411/11/1}
 Group   2 Type O   : 11s6p2d1f contracted to 5s3p2d1f pattern {62111/411/11/1}
 Group   3 Type N   : 11s6p2d1f contracted to 5s3p2d1f pattern {62111/411/11/1}
 Group   4 Type Br  : 17s13p8d1f contracted to 6s5p4d1f pattern {842111/64111/5111/1}
 Group   5 Type H   : 5s1p contracted to 3s1p pattern {311/1}

Atom   0C    basis set group =>   1
Atom   1C    basis set group =>   1
Atom   2C    basis set group =>   1
Atom   3C    basis set group =>   1
Atom   4O    basis set group =>   2
Atom   5C    basis set group =>   1
Atom   6O    basis set group =>   2
Atom   7N    basis set group =>   3
Atom   8C    basis set group =>   1
Atom   9C    basis set group =>   1
Atom  10C    basis set group =>   1
Atom  11C    basis set group =>   1
Atom  12C    basis set group =>   1
Atom  13Br   basis set group =>   4
Atom  14N    basis set group =>   3
Atom  15H    basis set group =>   5
Atom  16H    basis set group =>   5
Atom  17H    basis set group =>   5
Atom  18H    basis set group =>   5
Atom  19H    basis set group =>   5
Atom  20H    basis set group =>   5
Atom  21H    basis set group =>   5
Atom  22H    basis set group =>   5
Atom  23H    basis set group =>   5
Atom  24H    basis set group =>   5
Atom  25H    basis set group =>   5
Atom  26H    basis set group =>   5
Atom  27H    basis set group =>   5
---------------------------------
AUXILIARY/J BASIS SET INFORMATION
---------------------------------
There are 5 groups of distinct atoms

 Group   1 Type C   : 12s5p4d2f1g contracted to 6s4p3d1f1g pattern {711111/2111/211/2/1}
 Group   2 Type O   : 12s5p4d2f1g contracted to 6s4p3d1f1g pattern {711111/2111/211/2/1}
 Group   3 Type N   : 12s5p4d2f1g contracted to 6s4p3d1f1g pattern {711111/2111/211/2/1}
 Group   4 Type Br  : 19s5p5d3f1g contracted to 8s4p3d2f1g pattern {121111111/2111/311/21/1}
 Group   5 Type H   : 5s2p1d contracted to 3s1p1d pattern {311/2/1}

Atom   0C    basis set group =>   1
Atom   1C    basis set group =>   1
Atom   2C    basis set group =>   1
Atom   3C    basis set group =>   1
Atom   4O    basis set group =>   2
Atom   5C    basis set group =>   1
Atom   6O    basis set group =>   2
Atom   7N    basis set group =>   3
Atom   8C    basis set group =>   1
Atom   9C    basis set group =>   1
Atom  10C    basis set group =>   1
Atom  11C    basis set group =>   1
Atom  12C    basis set group =>   1
Atom  13Br   basis set group =>   4
Atom  14N    basis set group =>   3
Atom  15H    basis set group =>   5
Atom  16H    basis set group =>   5
Atom  17H    basis set group =>   5
Atom  18H    basis set group =>   5
Atom  19H    basis set group =>   5
Atom  20H    basis set group =>   5
Atom  21H    basis set group =>   5
Atom  22H    basis set group =>   5
Atom  23H    basis set group =>   5
Atom  24H    basis set group =>   5
Atom  25H    basis set group =>   5
Atom  26H    basis set group =>   5
Atom  27H    basis set group =>   5


           ************************************************************
           *        Program running with 16 parallel MPI-processes    *
           *              working on a common directory               *
           ************************************************************
------------------------------------------------------------------------------
                           ORCA GTO INTEGRAL CALCULATION
                           -- RI-GTO INTEGRALS CHOSEN --
------------------------------------------------------------------------------
------------------------------------------------------------------------------
                   ___                                                        
                  /   \      - P O W E R E D   B Y -                         
                 /     \                                                     
                 |  |  |   _    _      __       _____    __    __             
                 |  |  |  | |  | |    /  \     |  _  \  |  |  /  |          
                  \  \/   | |  | |   /    \    | | | |  |  | /  /          
                 / \  \   | |__| |  /  /\  \   | |_| |  |  |/  /          
                |  |  |   |  __  | /  /__\  \  |    /   |      \           
                |  |  |   | |  | | |   __   |  |    \   |  |\   \          
                \     /   | |  | | |  |  |  |  | |\  \  |  | \   \       
                 \___/    |_|  |_| |__|  |__|  |_| \__\ |__|  \__/        
                                                                              
                      - O R C A' S   B I G   F R I E N D -                    
                                      &                                       
                       - I N T E G R A L  F E E D E R -                       
                                                                              
 v1 FN, 2020, v2 2021                                                         
------------------------------------------------------------------------------


Reading SHARK input file arbr_26_r2scan3c_nmr.SHARKINP.tmp ... ok
----------------------
SHARK INTEGRAL PACKAGE
----------------------

Number of atoms                             ...     28
Number of basis functions                   ...    560
Number of shells                            ...    222
Maximum angular momentum                    ...      3
Integral batch strategy                     ... SHARK/LIBINT Hybrid
RI-J (if used) integral strategy            ... SPLIT-RIJ (Revised 2003 algorithm where possible)
Printlevel                                  ...      1
Contraction scheme used                     ... SEGMENTED contraction
Coulomb Range Separation                    ... NOT USED
Exchange Range Separation                   ... NOT USED
Finite Nucleus Model                        ... NOT USED
Auxiliary Coulomb fitting basis             ... AVAILABLE
   # of basis functions in Aux-J            ...    887
   # of shells in Aux-J                     ...    293
   Maximum angular momentum in Aux-J        ...      4
Auxiliary J/K fitting basis                 ... NOT available
Auxiliary Correlation fitting basis         ... NOT available
Auxiliary 'external' fitting basis          ... NOT available
Integral threshold                          ...     1.000000e-10
Primitive cut-off                           ...     1.000000e-11
Primitive pair pre-selection threshold      ...     1.000000e-11

Calculating pre-screening integrals         ... done (  0.1 sec) Dimension = 222
Organizing shell pair data                  ... done (  0.3 sec)
Shell pair information
Total number of shell pairs                 ...     24753
Shell pairs after pre-screening             ...     17682
Total number of primitive shell pairs       ...     79416
Primitive shell pairs kept                  ...     38088
          la=0 lb=0:   4614 shell pairs
          la=1 lb=0:   5119 shell pairs
          la=1 lb=1:   1435 shell pairs
          la=2 lb=0:   2511 shell pairs
          la=2 lb=1:   1409 shell pairs
          la=2 lb=2:    375 shell pairs
          la=3 lb=0:   1170 shell pairs
          la=3 lb=1:    650 shell pairs
          la=3 lb=2:    317 shell pairs
          la=3 lb=3:     82 shell pairs

Calculating one electron integrals          ... done (  0.0 sec)
Calculating RI/J V-Matrix + Cholesky decomp.... done (  0.0 sec)
Calculating Nuclear repulsion               ... done (  0.0 sec) ENN=   1268.830210680061 Eh

SHARK setup successfully completed in   0.9 seconds

Maximum memory used throughout the entire GTOINT-calculation: 33.6 MB


           ************************************************************
           *        Program running with 16 parallel MPI-processes    *
           *              working on a common directory               *
           ************************************************************
-------------------------------------------------------------------------------
                                 ORCA SCF
-------------------------------------------------------------------------------

------------
SCF SETTINGS
------------
Hamiltonian:
 Density Functional     Method          .... DFT(GTOs)
 Exchange Functional    Exchange        .... B88
   X-Alpha parameter    XAlpha          ....  0.666667
   Becke's b parameter  XBeta           ....  0.004200
 Correlation Functional Correlation     .... LYP
 LDA part of GGA corr.  LDAOpt          .... VWN-5
 Gradients option       PostSCFGGA      .... off
 Hybrid DFT is turned on
   Fraction HF Exchange ScalHFX         ....  0.200000
   Scaling of DF-GGA-X  ScalDFX         ....  0.720000
   Scaling of DF-GGA-C  ScalDFC         ....  0.810000
   Scaling of DF-LDA-C  ScalLDAC        ....  1.000000
   Perturbative correction              ....  0.000000
   Density functional embedding theory  .... OFF
   NL short-range parameter             ....  4.800000
 RI-approximation to the Coulomb term is turned on
   Number of AuxJ basis functions       .... 887
   RIJ-COSX (HFX calculated with COS-X)).... on


General Settings:
 Integral files         IntName         .... arbr_26_r2scan3c_nmr
 Hartree-Fock type      HFTyp           .... RHF
 Total Charge           Charge          ....    0
 Multiplicity           Mult            ....    1
 Number of Electrons    NEL             ....  138
 Basis Dimension        Dim             ....  560
 Nuclear Repulsion      ENuc            ....   1268.8302106801 Eh

Convergence Acceleration:
 DIIS                   CNVDIIS         .... on
   Start iteration      DIISMaxIt       ....    12
   Startup error        DIISStart       ....  0.200000
   # of expansion vecs  DIISMaxEq       ....     5
   Bias factor          DIISBfac        ....   1.050
   Max. coefficient     DIISMaxC        ....  10.000
 Trust-Rad. Augm. Hess. CNVTRAH         .... auto
   Auto Start mean grad. ratio tolernc. ....  1.125000
   Auto Start start iteration           ....    20
   Auto Start num. interpolation iter.  ....    10
   Max. Number of Micro iterations      ....    16
   Max. Number of Macro iterations      .... Maxiter - #DIIS iter
   Number of Davidson start vectors     ....     2
   Converg. threshold I  (grad. norm)   ....   5.000e-05
   Converg. threshold II (energy diff.) ....   1.000e-06
   Grad. Scal. Fac. for Micro threshold ....   0.100
   Minimum threshold for Micro iter.    ....   0.010
   NR start threshold (gradient norm)   ....   0.001
   Initial trust radius                 ....   0.400
   Minimum AH scaling param. (alpha)    ....   1.000
   Maximum AH scaling param. (alpha)    .... 1000.000
   Orbital update algorithm             .... Taylor
   White noise on init. David. guess    .... on
   Maximum white noise                  ....   0.010
   Quad. conv. algorithm                .... NR
 SOSCF                  CNVSOSCF        .... on
   Start iteration      SOSCFMaxIt      ....   150
   Startup grad/error   SOSCFStart      ....  0.003300
 Level Shifting         CNVShift        .... on
   Level shift para.    LevelShift      ....    0.2500
   Turn off err/grad.   ShiftErr        ....    0.0010
 Zerner damping         CNVZerner       .... off
 Static damping         CNVDamp         .... on
   Fraction old density DampFac         ....    0.7000
   Max. Damping (<1)    DampMax         ....    0.9800
   Min. Damping (>=0)   DampMin         ....    0.0000
   Turn off err/grad.   DampErr         ....    0.1000
 Fernandez-Rico         CNVRico         .... off

SCF Procedure:
 Maximum # iterations   MaxIter         ....   125
 SCF integral mode      SCFMode         .... Direct
   Integral package                     .... SHARK and LIBINT hybrid scheme
 Reset frequency        DirectResetFreq ....    20
 Integral Threshold     Thresh          ....  1.000e-10 Eh
 Primitive CutOff       TCut            ....  1.000e-11 Eh

Convergence Tolerance:
 Convergence Check Mode ConvCheckMode   .... Total+1el-Energy
 Convergence forced     ConvForced      .... 0
 Energy Change          TolE            ....  1.000e-06 Eh
 1-El. energy change                    ....  1.000e-03 Eh
 Orbital Gradient       TolG            ....  5.000e-05
 Orbital Rotation angle TolX            ....  5.000e-05
 DIIS Error             TolErr          ....  1.000e-06


Diagonalization of the overlap matrix:
Smallest eigenvalue                        ... 2.291e-05
Time for diagonalization                   ...    0.080 sec
Threshold for overlap eigenvalues          ... 1.000e-08
Number of eigenvalues below threshold      ... 0
Time for construction of square roots      ...    0.045 sec
Total time needed                          ...    0.128 sec

Time for model grid setup =    0.265 sec

------------------------------
INITIAL GUESS: MODEL POTENTIAL
------------------------------
Loading Hartree-Fock densities                     ... done
Calculating cut-offs                               ... done
Initializing the effective Hamiltonian             ... done
Setting up the integral package (SHARK)            ... done
Starting the Coulomb interaction                   ... done (   0.3 sec)
Reading the grid                                   ... done
Mapping shells                                     ... done
Starting the XC term evaluation                    ... done (   0.2 sec)
  promolecular density results
     # of electrons  =    137.983676832
     EX              =   -174.618262040
     EC              =     -5.216738822
     EX+EC           =   -179.835000862
Transforming the Hamiltonian                       ... done (   0.0 sec)
Diagonalizing the Hamiltonian                      ... done (   0.1 sec)
Back transforming the eigenvectors                 ... done (   0.0 sec)
Now organizing SCF variables                       ... done
                      ------------------
                      INITIAL GUESS DONE (   0.9 sec)
                      ------------------
-------------------
DFT GRID GENERATION
-------------------

General Integration Accuracy     IntAcc      ... 4.388
Radial Grid Type                 RadialGrid  ... OptM3 with GC (2021)
Angular Grid (max. ang.)         AngularGrid ... 4 (Lebedev-302)
Angular grid pruning method      GridPruning ... 4 (adaptive)
Weight generation scheme         WeightScheme... Becke
Basis function cutoff            BFCut       ... 1.0000e-10
Integration weight cutoff        WCut        ... 1.0000e-14
Angular grids for H and He will be reduced by one unit
Partially contracted basis set               ... off
Rotationally invariant grid construction     ... off

Total number of grid points                  ...   136825
Total number of batches                      ...     2151
Average number of points per batch           ...       63
Average number of grid points per atom       ...     4887
Time for grid setup =    1.208 sec

--------------------
COSX GRID GENERATION
--------------------

GRIDX 1
-------
General Integration Accuracy     IntAcc      ... 3.816
Radial Grid Type                 RadialGrid  ... OptM3 with GC (2021)
Angular Grid (max. ang.)         AngularGrid ... 1 (Lebedev-50)
Angular grid pruning method      GridPruning ... 4 (adaptive)
Weight generation scheme         WeightScheme... Becke
Basis function cutoff            BFCut       ... 1.0000e-10
Integration weight cutoff        WCut        ... 1.0000e-14
Angular grids for H and He will be reduced by one unit
Partially contracted basis set               ... on
Rotationally invariant grid construction     ... off

Total number of grid points                  ...    17240
Total number of batches                      ...      282
Average number of points per batch           ...       61
Average number of grid points per atom       ...      616
UseSFitting                                  ... on

GRIDX 2
-------
General Integration Accuracy     IntAcc      ... 4.020
Radial Grid Type                 RadialGrid  ... OptM3 with GC (2021)
Angular Grid (max. ang.)         AngularGrid ... 2 (Lebedev-110)
Angular grid pruning method      GridPruning ... 4 (adaptive)
Weight generation scheme         WeightScheme... Becke
Basis function cutoff            BFCut       ... 1.0000e-10
Integration weight cutoff        WCut        ... 1.0000e-14
Angular grids for H and He will be reduced by one unit
Partially contracted basis set               ... on
Rotationally invariant grid construction     ... off

Total number of grid points                  ...    37239
Total number of batches                      ...      594
Average number of points per batch           ...       62
Average number of grid points per atom       ...     1330
UseSFitting                                  ... on

GRIDX 3
-------
General Integration Accuracy     IntAcc      ... 4.338
Radial Grid Type                 RadialGrid  ... OptM3 with GC (2021)
Angular Grid (max. ang.)         AngularGrid ... 3 (Lebedev-194)
Angular grid pruning method      GridPruning ... 4 (adaptive)
Weight generation scheme         WeightScheme... Becke
Basis function cutoff            BFCut       ... 1.0000e-10
Integration weight cutoff        WCut        ... 1.0000e-14
Angular grids for H and He will be reduced by one unit
Partially contracted basis set               ... on
Rotationally invariant grid construction     ... off

Total number of grid points                  ...    81778
Total number of batches                      ...     1292
Average number of points per batch           ...       63
Average number of grid points per atom       ...     2921
UseSFitting                                  ... on

Time for X-Grid setup             =    1.113 sec

--------------
SCF ITERATIONS
--------------
ITER       Energy         Delta-E        Max-DP      RMS-DP      [F,P]     Damp
               ***  Starting incremental Fock matrix formation  ***
  0  -3222.2923860969   0.000000000000 0.06001160  0.00082209  0.3112190 0.7000
  1  -3222.5354675513  -0.243081454445 0.04542370  0.00061299  0.1215650 0.7000
                               ***Turning on DIIS***
  2  -3222.6272154907  -0.091747939387 0.05581143  0.00097037  0.0446207 0.0000
  3  -3222.7663454870  -0.139129996265 0.04682202  0.00047053  0.0552746 0.0000
  4  -3222.8018805612  -0.035535074181 0.01566816  0.00016817  0.0158928 0.0000
  5  -3222.8038726816  -0.001992120430 0.00595514  0.00006970  0.0111060 0.0000
                      *** Initiating the SOSCF procedure ***
                           *** Shutting down DIIS ***
                      *** Re-Reading the Fockian *** 
                      *** Removing any level shift *** 
ITER      Energy       Delta-E        Grad      Rot      Max-DP    RMS-DP
  6  -3222.80412530  -0.0002526171  0.000363  0.000363  0.002731  0.000027
               *** Restarting incremental Fock matrix formation ***
  7  -3222.80408992   0.0000353755  0.000241  0.000762  0.002297  0.000024
  8  -3222.80408532   0.0000046028  0.000537  0.000505  0.000699  0.000008
  9  -3222.80409372  -0.0000083991  0.000065  0.000140  0.000326  0.000004
 10  -3222.80409352   0.0000002001  0.000109  0.000094  0.000097  0.000001
 11  -3222.80409383  -0.0000003090  0.000014  0.000033  0.000075  0.000001
 12  -3222.80409382   0.0000000086  0.000016  0.000022  0.000044  0.000001
                 **** Energy Check signals convergence ****
              ***Rediagonalizing the Fockian in SOSCF/NRSCF***

               *****************************************************
               *                     SUCCESS                       *
               *           SCF CONVERGED AFTER  13 CYCLES          *
               *****************************************************

Old exchange energy                            =    -35.172449609 Eh
New exchange energy                            =    -35.172488382 Eh
Exchange energy change after final integration =     -0.000038773 Eh
Total energy after final integration           =  -3222.804132574 Eh
Final COS-X integration done in                =     9.897 sec

----------------
TOTAL SCF ENERGY
----------------

Total Energy       :        -3222.80413257 Eh          -87696.95887 eV

Components:
Nuclear Repulsion  :         1268.83021068 Eh           34526.62533 eV
Electronic Energy  :        -4491.63434325 Eh         -122223.58421 eV
One Electron Energy:        -6986.30293787 Eh         -190106.96779 eV
Two Electron Energy:         2494.66859461 Eh           67883.38358 eV
Max COSX asymmetry :            0.00000272 Eh               0.00007 eV

Virial components:
Potential Energy   :        -6439.34574378 Eh         -175223.50588 eV
Kinetic Energy     :         3216.54161121 Eh           87526.54700 eV
Virial Ratio       :            2.00194697


DFT components:
N(Alpha)           :       68.999941516873 electrons
N(Beta)            :       68.999941516873 electrons
N(Total)           :      137.999883033746 electrons
E(X)               :     -139.911012823658 Eh       
E(C)               :       -6.123904328996 Eh       
E(XC)              :     -146.034917152654 Eh       
DFET-embed. en.    :        0.000000000000 Eh       

---------------
SCF CONVERGENCE
---------------

  Last Energy change         ...    1.8633e-08  Tolerance :   1.0000e-06
  Last MAX-Density change    ...    3.5527e-15  Tolerance :   1.0000e-05
  Last RMS-Density change    ...    2.2558e-17  Tolerance :   1.0000e-06
  Last Orbital Gradient      ...    2.7824e-06  Tolerance :   5.0000e-05
  Last Orbital Rotation      ...    6.4903e-06  Tolerance :   5.0000e-05

             **** THE GBW FILE WAS UPDATED (arbr_26_r2scan3c_nmr.gbw) ****
             **** DENSITY arbr_26_r2scan3c_nmr.scfp WAS UPDATED ****
             **** ENERGY FILE WAS UPDATED (arbr_26_r2scan3c_nmr.en.tmp) ****
             **** THE GBW FILE WAS UPDATED (arbr_26_r2scan3c_nmr.gbw) ****
             **** DENSITY arbr_26_r2scan3c_nmr.scfp WAS UPDATED ****
----------------
ORBITAL ENERGIES
----------------

  NO   OCC          E(Eh)            E(eV) 
   0   2.0000    -482.852831    -13139.0935 
   1   2.0000     -62.500542     -1700.7262 
   2   2.0000     -56.315998     -1532.4362 
   3   2.0000     -56.313561     -1532.3699 
   4   2.0000     -56.313462     -1532.3672 
   5   2.0000     -19.171135      -521.6731 
   6   2.0000     -19.108859      -519.9785 
   7   2.0000     -14.363397      -390.8479 
   8   2.0000     -14.326180      -389.8352 
   9   2.0000     -10.331564      -281.1362 
  10   2.0000     -10.266596      -279.3683 
  11   2.0000     -10.263926      -279.2956 
  12   2.0000     -10.247997      -278.8622 
  13   2.0000     -10.200879      -277.5800 
  14   2.0000     -10.188800      -277.2514 
  15   2.0000     -10.183369      -277.1035 
  16   2.0000     -10.168036      -276.6863 
  17   2.0000     -10.162844      -276.5451 
  18   2.0000     -10.162830      -276.5447 
  19   2.0000      -8.691703      -236.5133 
  20   2.0000      -6.520908      -177.4429 
  21   2.0000      -6.510614      -177.1628 
  22   2.0000      -6.509913      -177.1437 
  23   2.0000      -2.635665       -71.7201 
  24   2.0000      -2.632812       -71.6424 
  25   2.0000      -2.632282       -71.6280 
  26   2.0000      -2.623762       -71.3962 
  27   2.0000      -2.623747       -71.3958 
  28   2.0000      -1.122056       -30.5327 
  29   2.0000      -1.032363       -28.0920 
  30   2.0000      -0.997108       -27.1327 
  31   2.0000      -0.936618       -25.4867 
  32   2.0000      -0.828098       -22.5337 
  33   2.0000      -0.820346       -22.3228 
  34   2.0000      -0.807737       -21.9796 
  35   2.0000      -0.744173       -20.2500 
  36   2.0000      -0.703603       -19.1460 
  37   2.0000      -0.701831       -19.0978 
  38   2.0000      -0.685442       -18.6518 
  39   2.0000      -0.642271       -17.4771 
  40   2.0000      -0.621630       -16.9154 
  41   2.0000      -0.575420       -15.6580 
  42   2.0000      -0.548303       -14.9201 
  43   2.0000      -0.520112       -14.1530 
  44   2.0000      -0.509739       -13.8707 
  45   2.0000      -0.495043       -13.4708 
  46   2.0000      -0.493027       -13.4159 
  47   2.0000      -0.473347       -12.8804 
  48   2.0000      -0.456748       -12.4287 
  49   2.0000      -0.455890       -12.4054 
  50   2.0000      -0.436198       -11.8696 
  51   2.0000      -0.435034       -11.8379 
  52   2.0000      -0.424238       -11.5441 
  53   2.0000      -0.413069       -11.2402 
  54   2.0000      -0.401054       -10.9132 
  55   2.0000      -0.397626       -10.8199 
  56   2.0000      -0.389305       -10.5935 
  57   2.0000      -0.376640       -10.2489 
  58   2.0000      -0.369945       -10.0667 
  59   2.0000      -0.365001        -9.9322 
  60   2.0000      -0.346946        -9.4409 
  61   2.0000      -0.344858        -9.3841 
  62   2.0000      -0.315990        -8.5985 
  63   2.0000      -0.310777        -8.4567 
  64   2.0000      -0.293642        -7.9904 
  65   2.0000      -0.288224        -7.8430 
  66   2.0000      -0.284418        -7.7394 
  67   2.0000      -0.280896        -7.6436 
  68   2.0000      -0.240043        -6.5319 
  69   0.0000      -0.040684        -1.1071 
  70   0.0000      -0.028454        -0.7743 
  71   0.0000       0.002988         0.0813 
  72   0.0000       0.025362         0.6901 
  73   0.0000       0.044772         1.2183 
  74   0.0000       0.058775         1.5993 
  75   0.0000       0.060214         1.6385 
  76   0.0000       0.066779         1.8171 
  77   0.0000       0.081712         2.2235 
  78   0.0000       0.081788         2.2256 
  79   0.0000       0.092034         2.5044 
  80   0.0000       0.095771         2.6061 
  81   0.0000       0.098244         2.6734 
  82   0.0000       0.108653         2.9566 
  83   0.0000       0.117474         3.1966 
  84   0.0000       0.125826         3.4239 
  85   0.0000       0.130254         3.5444 
  86   0.0000       0.130615         3.5542 
  87   0.0000       0.142288         3.8718 
  88   0.0000       0.143253         3.8981 
  89   0.0000       0.149116         4.0577 
  90   0.0000       0.156873         4.2687 
  91   0.0000       0.167234         4.5507 
  92   0.0000       0.167309         4.5527 
  93   0.0000       0.173603         4.7240 
  94   0.0000       0.187239         5.0950 
  95   0.0000       0.191869         5.2210 
  96   0.0000       0.192438         5.2365 
  97   0.0000       0.198378         5.3982 
  98   0.0000       0.208201         5.6654 
  99   0.0000       0.210715         5.7338 
 100   0.0000       0.231375         6.2960 
 101   0.0000       0.235659         6.4126 
 102   0.0000       0.237023         6.4497 
 103   0.0000       0.243761         6.6331 
 104   0.0000       0.247374         6.7314 
 105   0.0000       0.253042         6.8856 
 106   0.0000       0.269163         7.3243 
 107   0.0000       0.270765         7.3679 
 108   0.0000       0.273058         7.4303 
 109   0.0000       0.275742         7.5033 
 110   0.0000       0.286319         7.7911 
 111   0.0000       0.289502         7.8778 
 112   0.0000       0.291746         7.9388 
 113   0.0000       0.297372         8.0919 
 114   0.0000       0.311091         8.4652 
 115   0.0000       0.313591         8.5332 
 116   0.0000       0.318419         8.6646 
 117   0.0000       0.323381         8.7996 
 118   0.0000       0.337980         9.1969 
 119   0.0000       0.342519         9.3204 
 120   0.0000       0.342789         9.3278 
 121   0.0000       0.349403         9.5077 
 122   0.0000       0.349771         9.5177 
 123   0.0000       0.367629        10.0037 
 124   0.0000       0.368682        10.0323 
 125   0.0000       0.374550        10.1920 
 126   0.0000       0.375782        10.2255 
 127   0.0000       0.401100        10.9145 
 128   0.0000       0.405106        11.0235 
 129   0.0000       0.407730        11.0949 
 130   0.0000       0.416383        11.3304 
 131   0.0000       0.423420        11.5218 
 132   0.0000       0.430060        11.7025 
 133   0.0000       0.433679        11.8010 
 134   0.0000       0.439871        11.9695 
 135   0.0000       0.445675        12.1274 
 136   0.0000       0.450729        12.2650 
 137   0.0000       0.450974        12.2716 
 138   0.0000       0.455351        12.3907 
 139   0.0000       0.464593        12.6422 
 140   0.0000       0.465318        12.6619 
 141   0.0000       0.470068        12.7912 
 142   0.0000       0.470669        12.8075 
 143   0.0000       0.483396        13.1539 
 144   0.0000       0.484737        13.1904 
 145   0.0000       0.490391        13.3442 
 146   0.0000       0.495465        13.4823 
 147   0.0000       0.506786        13.7903 
 148   0.0000       0.515032        14.0147 
 149   0.0000       0.522952        14.2302 
 150   0.0000       0.525183        14.2909 
 151   0.0000       0.529589        14.4109 
 152   0.0000       0.553394        15.0586 
 153   0.0000       0.558850        15.2071 
 154   0.0000       0.565953        15.4004 
 155   0.0000       0.572076        15.5670 
 156   0.0000       0.575688        15.6653 
 157   0.0000       0.592458        16.1216 
 158   0.0000       0.601035        16.3550 
 159   0.0000       0.608059        16.5461 
 160   0.0000       0.624661        16.9979 
 161   0.0000       0.628663        17.1068 
 162   0.0000       0.636919        17.3314 
 163   0.0000       0.639764        17.4089 
 164   0.0000       0.647261        17.6129 
 165   0.0000       0.649147        17.6642 
 166   0.0000       0.679061        18.4782 
 167   0.0000       0.684634        18.6299 
 168   0.0000       0.688797        18.7431 
 169   0.0000       0.695012        18.9122 
 170   0.0000       0.702551        19.1174 
 171   0.0000       0.722111        19.6496 
 172   0.0000       0.723247        19.6805 
 173   0.0000       0.748029        20.3549 
 174   0.0000       0.763933        20.7877 
 175   0.0000       0.783526        21.3208 
 176   0.0000       0.788361        21.4524 
 177   0.0000       0.799456        21.7543 
 178   0.0000       0.809461        22.0266 
 179   0.0000       0.811686        22.0871 
 180   0.0000       0.817701        22.2508 
 181   0.0000       0.821469        22.3533 
 182   0.0000       0.845435        23.0054 
 183   0.0000       0.852048        23.1854 
 184   0.0000       0.863767        23.5043 
 185   0.0000       0.865702        23.5569 
 186   0.0000       0.873952        23.7814 
 187   0.0000       0.875551        23.8249 
 188   0.0000       0.907617        24.6975 
 189   0.0000       0.910718        24.7819 
 190   0.0000       0.924218        25.1493 
 191   0.0000       0.927139        25.2287 
 192   0.0000       0.953506        25.9462 
 193   0.0000       0.958276        26.0760 
 194   0.0000       0.970888        26.4192 
 195   0.0000       0.983675        26.7671 
 196   0.0000       0.984239        26.7825 
 197   0.0000       0.994548        27.0630 
 198   0.0000       1.003434        27.3048 
 199   0.0000       1.012477        27.5509 
 200   0.0000       1.044702        28.4278 
 201   0.0000       1.063296        28.9338 
 202   0.0000       1.069113        29.0920 
 203   0.0000       1.094372        29.7794 
 204   0.0000       1.096063        29.8254 
 205   0.0000       1.096978        29.8503 
 206   0.0000       1.112795        30.2807 
 207   0.0000       1.116062        30.3696 
 208   0.0000       1.122766        30.5520 
 209   0.0000       1.129515        30.7357 
 210   0.0000       1.159072        31.5400 
 211   0.0000       1.170036        31.8383 
 212   0.0000       1.177808        32.0498 
 213   0.0000       1.182127        32.1673 
 214   0.0000       1.205321        32.7985 
 215   0.0000       1.224372        33.3169 
 216   0.0000       1.234016        33.5793 
 217   0.0000       1.235471        33.6189 
 218   0.0000       1.248963        33.9860 
 219   0.0000       1.257788        34.2261 
 220   0.0000       1.279659        34.8213 
 221   0.0000       1.285044        34.9678 
 222   0.0000       1.294918        35.2365 
 223   0.0000       1.317412        35.8486 
 224   0.0000       1.319603        35.9082 
 225   0.0000       1.334947        36.3257 
 226   0.0000       1.339853        36.4592 
 227   0.0000       1.345616        36.6161 
 228   0.0000       1.362587        37.0779 
 229   0.0000       1.387728        37.7620 
 230   0.0000       1.394731        37.9525 
 231   0.0000       1.417007        38.5587 
 232   0.0000       1.425381        38.7866 
 233   0.0000       1.426818        38.8257 
 234   0.0000       1.430230        38.9185 
 235   0.0000       1.456940        39.6454 
 236   0.0000       1.460141        39.7324 
 237   0.0000       1.465327        39.8736 
 238   0.0000       1.479257        40.2526 
 239   0.0000       1.489729        40.5376 
 240   0.0000       1.506482        40.9935 
 241   0.0000       1.510049        41.0905 
 242   0.0000       1.512119        41.1468 
 243   0.0000       1.522125        41.4191 
 244   0.0000       1.527550        41.5667 
 245   0.0000       1.529426        41.6178 
 246   0.0000       1.532699        41.7069 
 247   0.0000       1.549414        42.1617 
 248   0.0000       1.550716        42.1971 
 249   0.0000       1.559383        42.4330 
 250   0.0000       1.569338        42.7038 
 251   0.0000       1.571900        42.7736 
 252   0.0000       1.576494        42.8986 
 253   0.0000       1.578144        42.9435 
 254   0.0000       1.579174        42.9715 
 255   0.0000       1.597430        43.4683 
 256   0.0000       1.599685        43.5296 
 257   0.0000       1.606770        43.7224 
 258   0.0000       1.614447        43.9313 
 259   0.0000       1.625416        44.2298 
 260   0.0000       1.633888        44.4604 
 261   0.0000       1.639469        44.6122 
 262   0.0000       1.644864        44.7590 
 263   0.0000       1.653471        44.9932 
 264   0.0000       1.660240        45.1774 
 265   0.0000       1.660617        45.1877 
 266   0.0000       1.686107        45.8813 
 267   0.0000       1.691446        46.0266 
 268   0.0000       1.705396        46.4062 
 269   0.0000       1.716627        46.7118 
 270   0.0000       1.727181        46.9990 
 271   0.0000       1.734494        47.1980 
 272   0.0000       1.740732        47.3677 
 273   0.0000       1.743166        47.4340 
 274   0.0000       1.775422        48.3117 
 275   0.0000       1.778033        48.3827 
 276   0.0000       1.808062        49.1999 
 277   0.0000       1.824020        49.6341 
 278   0.0000       1.831410        49.8352 
 279   0.0000       1.841645        50.1137 
 280   0.0000       1.843781        50.1718 
 281   0.0000       1.862559        50.6828 
 282   0.0000       1.866156        50.7807 
 283   0.0000       1.885810        51.3155 
 284   0.0000       1.896637        51.6101 
 285   0.0000       1.919148        52.2227 
 286   0.0000       1.922464        52.3129 
 287   0.0000       1.924256        52.3617 
 288   0.0000       1.951591        53.1055 
 289   0.0000       1.965033        53.4713 
 290   0.0000       1.982760        53.9537 
 291   0.0000       2.003615        54.5211 
 292   0.0000       2.004749        54.5520 
 293   0.0000       2.019056        54.9413 
 294   0.0000       2.046369        55.6845 
 295   0.0000       2.058647        56.0186 
 296   0.0000       2.073301        56.4174 
 297   0.0000       2.077636        56.5353 
 298   0.0000       2.103515        57.2396 
 299   0.0000       2.119568        57.6764 
 300   0.0000       2.135759        58.1170 
 301   0.0000       2.140765        58.2532 
 302   0.0000       2.163124        58.8616 
 303   0.0000       2.164888        58.9096 
 304   0.0000       2.177927        59.2644 
 305   0.0000       2.191612        59.6368 
 306   0.0000       2.209884        60.1340 
 307   0.0000       2.216269        60.3078 
 308   0.0000       2.233941        60.7886 
 309   0.0000       2.238580        60.9149 
 310   0.0000       2.258454        61.4557 
 311   0.0000       2.267072        61.6902 
 312   0.0000       2.267746        61.7085 
 313   0.0000       2.282891        62.1206 
 314   0.0000       2.288928        62.2849 
 315   0.0000       2.315294        63.0024 
 316   0.0000       2.329164        63.3798 
 317   0.0000       2.330763        63.4233 
 318   0.0000       2.338976        63.6468 
 319   0.0000       2.346372        63.8480 
 320   0.0000       2.354034        64.0565 
 321   0.0000       2.388200        64.9862 
 322   0.0000       2.398972        65.2793 
 323   0.0000       2.407904        65.5224 
 324   0.0000       2.409784        65.5735 
 325   0.0000       2.424217        65.9663 
 326   0.0000       2.429805        66.1184 
 327   0.0000       2.438857        66.3647 
 328   0.0000       2.469370        67.1950 
 329   0.0000       2.477771        67.4236 
 330   0.0000       2.487883        67.6987 
 331   0.0000       2.493798        67.8597 
 332   0.0000       2.530460        68.8573 
 333   0.0000       2.536468        69.0208 
 334   0.0000       2.541700        69.1632 
 335   0.0000       2.546311        69.2887 
 336   0.0000       2.573479        70.0279 
 337   0.0000       2.578803        70.1728 
 338   0.0000       2.588989        70.4500 
 339   0.0000       2.596978        70.6674 
 340   0.0000       2.605979        70.9123 
 341   0.0000       2.614489        71.1439 
 342   0.0000       2.626268        71.4644 
 343   0.0000       2.651010        72.1376 
 344   0.0000       2.654455        72.2314 
 345   0.0000       2.668170        72.6046 
 346   0.0000       2.670306        72.6627 
 347   0.0000       2.675943        72.8161 
 348   0.0000       2.677401        72.8558 
 349   0.0000       2.687082        73.1192 
 350   0.0000       2.704417        73.5909 
 351   0.0000       2.735863        74.4466 
 352   0.0000       2.737785        74.4989 
 353   0.0000       2.766869        75.2903 
 354   0.0000       2.775803        75.5335 
 355   0.0000       2.778569        75.6087 
 356   0.0000       2.795186        76.0609 
 357   0.0000       2.809856        76.4601 
 358   0.0000       2.811851        76.5144 
 359   0.0000       2.821778        76.7845 
 360   0.0000       2.839213        77.2589 
 361   0.0000       2.841877        77.3314 
 362   0.0000       2.855701        77.7076 
 363   0.0000       2.861153        77.8559 
 364   0.0000       2.878232        78.3207 
 365   0.0000       2.900628        78.9301 
 366   0.0000       2.903696        79.0136 
 367   0.0000       2.908426        79.1423 
 368   0.0000       2.931394        79.7673 
 369   0.0000       2.953314        80.3638 
 370   0.0000       2.960779        80.5669 
 371   0.0000       2.968327        80.7723 
 372   0.0000       2.977431        81.0200 
 373   0.0000       3.007779        81.8458 
 374   0.0000       3.018667        82.1421 
 375   0.0000       3.035467        82.5993 
 376   0.0000       3.047176        82.9179 
 377   0.0000       3.051572        83.0375 
 378   0.0000       3.083950        83.9186 
 379   0.0000       3.086283        83.9820 
 380   0.0000       3.089057        84.0575 
 381   0.0000       3.092275        84.1451 
 382   0.0000       3.107439        84.5577 
 383   0.0000       3.110085        84.6297 
 384   0.0000       3.128222        85.1232 
 385   0.0000       3.131464        85.2115 
 386   0.0000       3.143992        85.5524 
 387   0.0000       3.150673        85.7342 
 388   0.0000       3.157668        85.9245 
 389   0.0000       3.180624        86.5492 
 390   0.0000       3.188281        86.7575 
 391   0.0000       3.193631        86.9031 
 392   0.0000       3.210924        87.3737 
 393   0.0000       3.217607        87.5555 
 394   0.0000       3.221399        87.6587 
 395   0.0000       3.226446        87.7961 
 396   0.0000       3.228772        87.8594 
 397   0.0000       3.230105        87.8956 
 398   0.0000       3.262099        88.7662 
 399   0.0000       3.267109        88.9025 
 400   0.0000       3.269324        88.9628 
 401   0.0000       3.303071        89.8811 
 402   0.0000       3.314074        90.1805 
 403   0.0000       3.322012        90.3965 
 404   0.0000       3.322084        90.3985 
 405   0.0000       3.329124        90.5901 
 406   0.0000       3.333239        90.7021 
 407   0.0000       3.340410        90.8972 
 408   0.0000       3.347696        91.0954 
 409   0.0000       3.360327        91.4391 
 410   0.0000       3.368994        91.6750 
 411   0.0000       3.376435        91.8775 
 412   0.0000       3.382452        92.0412 
 413   0.0000       3.389811        92.2414 
 414   0.0000       3.394704        92.3746 
 415   0.0000       3.405167        92.6593 
 416   0.0000       3.411451        92.8303 
 417   0.0000       3.425394        93.2097 
 418   0.0000       3.430913        93.3599 
 419   0.0000       3.465809        94.3095 
 420   0.0000       3.469818        94.4185 
 421   0.0000       3.479548        94.6833 
 422   0.0000       3.517754        95.7230 
 423   0.0000       3.519901        95.7814 
 424   0.0000       3.529484        96.0421 
 425   0.0000       3.545081        96.4665 
 426   0.0000       3.555512        96.7504 
 427   0.0000       3.578294        97.3703 
 428   0.0000       3.604610        98.0864 
 429   0.0000       3.611150        98.2644 
 430   0.0000       3.625525        98.6555 
 431   0.0000       3.656691        99.5036 
 432   0.0000       3.669299        99.8467 
 433   0.0000       3.674286        99.9824 
 434   0.0000       3.692556       100.4796 
 435   0.0000       3.713529       101.0503 
 436   0.0000       3.716461       101.1300 
 437   0.0000       3.717152       101.1489 
 438   0.0000       3.747817       101.9833 
 439   0.0000       3.768570       102.5480 
 440   0.0000       3.814798       103.8059 
 441   0.0000       3.863709       105.1369 
 442   0.0000       3.882636       105.6519 
 443   0.0000       3.897464       106.0554 
 444   0.0000       3.925943       106.8303 
 445   0.0000       3.937441       107.1432 
 446   0.0000       3.961636       107.8016 
 447   0.0000       3.989911       108.5710 
 448   0.0000       3.995634       108.7267 
 449   0.0000       4.000300       108.8537 
 450   0.0000       4.004311       108.9628 
 451   0.0000       4.027448       109.5924 
 452   0.0000       4.031813       109.7112 
 453   0.0000       4.048246       110.1584 
 454   0.0000       4.063808       110.5818 
 455   0.0000       4.072932       110.8301 
 456   0.0000       4.077946       110.9666 
 457   0.0000       4.089408       111.2785 
 458   0.0000       4.101494       111.6073 
 459   0.0000       4.143639       112.7542 
 460   0.0000       4.143940       112.7624 
 461   0.0000       4.150717       112.9468 
 462   0.0000       4.167572       113.4054 
 463   0.0000       4.174344       113.5897 
 464   0.0000       4.184054       113.8539 
 465   0.0000       4.247265       115.5740 
 466   0.0000       4.253170       115.7346 
 467   0.0000       4.260830       115.9431 
 468   0.0000       4.272153       116.2512 
 469   0.0000       4.300763       117.0297 
 470   0.0000       4.327345       117.7531 
 471   0.0000       4.360447       118.6538 
 472   0.0000       4.362096       118.6987 
 473   0.0000       4.371298       118.9491 
 474   0.0000       4.386282       119.3568 
 475   0.0000       4.410046       120.0034 
 476   0.0000       4.416048       120.1668 
 477   0.0000       4.423315       120.3645 
 478   0.0000       4.427258       120.4718 
 479   0.0000       4.451470       121.1307 
 480   0.0000       4.486741       122.0904 
 481   0.0000       4.495643       122.3327 
 482   0.0000       4.514718       122.8517 
 483   0.0000       4.529659       123.2583 
 484   0.0000       4.555725       123.9676 
 485   0.0000       4.590783       124.9216 
 486   0.0000       4.641469       126.3008 
 487   0.0000       4.689241       127.6007 
 488   0.0000       4.691648       127.6662 
 489   0.0000       4.709221       128.1444 
 490   0.0000       4.725608       128.5903 
 491   0.0000       4.771564       129.8409 
 492   0.0000       4.771663       129.8436 
 493   0.0000       4.866928       132.4358 
 494   0.0000       4.878276       132.7446 
 495   0.0000       4.888153       133.0134 
 496   0.0000       4.889734       133.0564 
 497   0.0000       4.916003       133.7713 
 498   0.0000       4.944545       134.5479 
 499   0.0000       4.952528       134.7651 
 500   0.0000       4.970270       135.2479 
 501   0.0000       4.990496       135.7983 
 502   0.0000       5.029314       136.8546 
 503   0.0000       5.048825       137.3855 
 504   0.0000       5.099572       138.7664 
 505   0.0000       5.123431       139.4156 
 506   0.0000       5.184907       141.0885 
 507   0.0000       5.217093       141.9643 
 508   0.0000       5.221890       142.0949 
 509   0.0000       5.264500       143.2543 
 510   0.0000       5.272542       143.4732 
 511   0.0000       5.302799       144.2965 
 512   0.0000       5.321794       144.8134 
 513   0.0000       5.332738       145.1112 
 514   0.0000       5.354031       145.6906 
 515   0.0000       5.377574       146.3312 
 516   0.0000       5.404688       147.0690 
 517   0.0000       5.469725       148.8388 
 518   0.0000       5.514727       150.0634 
 519   0.0000       5.526195       150.3754 
 520   0.0000       5.600636       152.4010 
 521   0.0000       5.713735       155.4786 
 522   0.0000       5.727171       155.8442 
 523   0.0000       5.758699       156.7022 
 524   0.0000       5.856580       159.3657 
 525   0.0000       5.881756       160.0507 
 526   0.0000       5.908101       160.7676 
 527   0.0000       6.007187       163.4639 
 528   0.0000       6.059090       164.8762 
 529   0.0000       6.144399       167.1976 
 530   0.0000       6.226938       169.4436 
 531   0.0000       6.276847       170.8017 
 532   0.0000       6.381036       173.6368 
 533   0.0000       6.440404       175.2523 
 534   0.0000       6.455664       175.6676 
 535   0.0000       6.581185       179.0831 
 536   0.0000       6.678118       181.7208 
 537   0.0000       6.732086       183.1894 
 538   0.0000       6.794627       184.8912 
 539   0.0000       6.960853       189.4144 
 540   0.0000       7.010879       190.7757 
 541   0.0000       7.105050       193.3382 
 542   0.0000       7.207763       196.1332 
 543   0.0000       7.461540       203.0388 
 544   0.0000       7.497614       204.0205 
 545   0.0000       7.727061       210.2640 
 546   0.0000      22.343288       607.9918 
 547   0.0000      22.378088       608.9387 
 548   0.0000      22.409891       609.8041 
 549   0.0000      22.431301       610.3867 
 550   0.0000      22.588539       614.6654 
 551   0.0000      22.631474       615.8337 
 552   0.0000      22.689223       617.4051 
 553   0.0000      22.961819       624.8229 
 554   0.0000      23.226524       632.0258 
 555   0.0000      23.597232       642.1133 
 556   0.0000      32.484133       883.9382 
 557   0.0000      32.732061       890.6847 
 558   0.0000      43.929695      1195.3878 
 559   0.0000      44.451873      1209.5970 

                    ********************************
                    * MULLIKEN POPULATION ANALYSIS *
                    ********************************

-----------------------
MULLIKEN ATOMIC CHARGES
-----------------------
   0 C :   -0.369019
   1 C :    0.238129
   2 C :   -0.313831
   3 C :   -0.369025
   4 O :   -0.316198
   5 C :    0.470198
   6 O :   -0.401190
   7 N :   -0.252526
   8 C :    0.279329
   9 C :   -0.224089
  10 C :   -0.050797
  11 C :   -0.205152
  12 C :    0.123080
  13 Br:   -0.077844
  14 N :   -0.244138
  15 H :    0.150870
  16 H :    0.108064
  17 H :    0.107450
  18 H :    0.112272
  19 H :    0.112272
  20 H :    0.103962
  21 H :    0.150897
  22 H :    0.108051
  23 H :    0.107441
  24 H :    0.228828
  25 H :    0.168702
  26 H :    0.124457
  27 H :    0.129807
Sum of atomic charges:   -0.0000000

--------------------------------
MULLIKEN REDUCED ORBITAL CHARGES
--------------------------------
  0 C s       :     3.307855  s :     3.307855
      pz      :     0.937640  p :     3.015063
      px      :     1.030607
      py      :     1.046815
      dz2     :     0.013987  d :     0.042508
      dxz     :     0.005104
      dyz     :     0.008996
      dx2y2   :     0.010717
      dxy     :     0.003703
      f0      :     0.000584  f :     0.003594
      f+1     :     0.000553
      f-1     :     0.001013
      f+2     :     0.000380
      f-2     :     0.000244
      f+3     :     0.000724
      f-3     :     0.000097
  1 C s       :     3.107169  s :     3.107169
      pz      :     0.904711  p :     2.423926
      px      :     0.636127
      py      :     0.883088
      dz2     :     0.043807  d :     0.215565
      dxz     :     0.043161
      dyz     :     0.043299
      dx2y2   :     0.049340
      dxy     :     0.035958
      f0      :     0.003038  f :     0.015211
      f+1     :     0.001642
      f-1     :     0.001536
      f+2     :     0.002878
      f-2     :     0.001090
      f+3     :     0.002131
      f-3     :     0.002897
  2 C s       :     3.289881  s :     3.289881
      pz      :     1.055703  p :     2.978308
      px      :     1.010915
      py      :     0.911690
      dz2     :     0.005426  d :     0.041950
      dxz     :     0.001572
      dyz     :     0.018448
      dx2y2   :     0.011141
      dxy     :     0.005362
      f0      :     0.000359  f :     0.003693
      f+1     :     0.000370
      f-1     :     0.000919
      f+2     :     0.000247
      f-2     :     0.000262
      f+3     :     0.000941
      f-3     :     0.000595
  3 C s       :     3.307861  s :     3.307861
      pz      :     0.937673  p :     3.015065
      px      :     1.030616
      py      :     1.046776
      dz2     :     0.013992  d :     0.042505
      dxz     :     0.005104
      dyz     :     0.008986
      dx2y2   :     0.010716
      dxy     :     0.003707
      f0      :     0.000583  f :     0.003594
      f+1     :     0.000552
      f-1     :     0.001013
      f+2     :     0.000380
      f-2     :     0.000244
      f+3     :     0.000724
      f-3     :     0.000097
  4 O s       :     3.778186  s :     3.778186
      pz      :     1.736248  p :     4.497813
      px      :     1.242944
      py      :     1.518620
      dz2     :     0.004481  d :     0.038088
      dxz     :     0.005709
      dyz     :     0.004483
      dx2y2   :     0.009942
      dxy     :     0.013474
      f0      :     0.000280  f :     0.002111
      f+1     :     0.000369
      f-1     :     0.000188
      f+2     :     0.000115
      f-2     :     0.000225
      f+3     :     0.000486
      f-3     :     0.000447
  5 C s       :     2.984416  s :     2.984416
      pz      :     0.794537  p :     2.217261
      px      :     0.713294
      py      :     0.709431
      dz2     :     0.007433  d :     0.298894
      dxz     :     0.045835
      dyz     :     0.074625
      dx2y2   :     0.076382
      dxy     :     0.094620
      f0      :     0.003387  f :     0.029230
      f+1     :     0.001355
      f-1     :     0.001800
      f+2     :     0.003212
      f-2     :     0.003792
      f+3     :     0.008110
      f-3     :     0.007575
  6 O s       :     3.849848  s :     3.849848
      pz      :     1.472541  p :     4.520365
      px      :     1.740162
      py      :     1.307662
      dz2     :     0.002469  d :     0.029172
      dxz     :     0.000978
      dyz     :     0.010059
      dx2y2   :     0.007757
      dxy     :     0.007910
      f0      :     0.000216  f :     0.001805
      f+1     :     0.000037
      f-1     :     0.000168
      f+2     :     0.000355
      f-2     :     0.000108
      f+3     :     0.000472
      f-3     :     0.000448
  7 N s       :     3.460850  s :     3.460850
      pz      :     1.610702  p :     3.732547
      px      :     1.035334
      py      :     1.086511
      dz2     :     0.005778  d :     0.054705
      dxz     :     0.013467
      dyz     :     0.002877
      dx2y2   :     0.018557
      dxy     :     0.014025
      f0      :     0.000804  f :     0.004424
      f+1     :     0.000693
      f-1     :     0.000599
      f+2     :     0.000184
      f-2     :     0.000325
      f+3     :     0.000918
      f-3     :     0.000901
  8 C s       :     3.026227  s :     3.026227
      pz      :     0.900974  p :     2.498845
      px      :     0.697868
      py      :     0.900003
      dz2     :     0.003884  d :     0.178111
      dxz     :     0.042366
      dyz     :     0.033044
      dx2y2   :     0.058392
      dxy     :     0.040425
      f0      :     0.002444  f :     0.017488
      f+1     :     0.001330
      f-1     :     0.000898
      f+2     :     0.001322
      f-2     :     0.002608
      f+3     :     0.005979
      f-3     :     0.002906
  9 C s       :     3.246575  s :     3.246575
      pz      :     1.002824  p :     2.892833
      px      :     0.959469
      py      :     0.930540
      dz2     :     0.006457  d :     0.077402
      dxz     :     0.010635
      dyz     :     0.012353
      dx2y2   :     0.022977
      dxy     :     0.024980
      f0      :     0.001526  f :     0.007279
      f+1     :     0.000613
      f-1     :     0.000551
      f+2     :     0.000928
      f-2     :     0.000259
      f+3     :     0.002033
      f-3     :     0.001368
 10 C s       :     3.186754  s :     3.186754
      pz      :     0.907465  p :     2.775587
      px      :     0.904116
      py      :     0.964006
      dz2     :     0.004597  d :     0.080931
      dxz     :     0.026830
      dyz     :     0.005589
      dx2y2   :     0.026837
      dxy     :     0.017077
      f0      :     0.001566  f :     0.007525
      f+1     :     0.000417
      f-1     :     0.000597
      f+2     :     0.000233
      f-2     :     0.001271
      f+3     :     0.002097
      f-3     :     0.001344
 11 C s       :     3.223329  s :     3.223329
      pz      :     1.015987  p :     2.895735
      px      :     0.959881
      py      :     0.919866
      dz2     :     0.005947  d :     0.078690
      dxz     :     0.008040
      dyz     :     0.016033
      dx2y2   :     0.030903
      dxy     :     0.017767
      f0      :     0.001554  f :     0.007398
      f+1     :     0.000665
      f-1     :     0.000513
      f+2     :     0.000605
      f-2     :     0.000597
      f+3     :     0.002077
      f-3     :     0.001387
 12 C s       :     3.158493  s :     3.158493
      pz      :     0.932659  p :     2.515851
      px      :     0.744592
      py      :     0.838599
      dz2     :     0.006444  d :     0.188904
      dxz     :     0.033245
      dyz     :     0.029555
      dx2y2   :     0.049341
      dxy     :     0.070319
      f0      :     0.002223  f :     0.013672
      f+1     :     0.001143
      f-1     :     0.000761
      f+2     :     0.001442
      f-2     :     0.001220
      f+3     :     0.004320
      f-3     :     0.002564
 13 Brs       :     7.916159  s :     7.916159
      pz      :     5.925264  p :    17.105119
      px      :     5.507342
      py      :     5.672513
      dz2     :     2.006840  d :    10.049243
      dxz     :     2.009141
      dyz     :     2.007291
      dx2y2   :     2.006822
      dxy     :     2.019149
      f0      :     0.000731  f :     0.007323
      f+1     :     0.000950
      f-1     :     0.000646
      f+2     :     0.000087
      f-2     :     0.001068
      f+3     :     0.001470
      f-3     :     0.002372
 14 N s       :     3.580203  s :     3.580203
      pz      :     1.168900  p :     3.595998
      px      :     0.967596
      py      :     1.459502
      dz2     :     0.005796  d :     0.063933
      dxz     :     0.014221
      dyz     :     0.008967
      dx2y2   :     0.016379
      dxy     :     0.018571
      f0      :     0.000696  f :     0.004003
      f+1     :     0.000368
      f-1     :     0.000225
      f+2     :     0.000303
      f-2     :     0.000613
      f+3     :     0.001049
      f-3     :     0.000749
 15 H s       :     0.826865  s :     0.826865
      pz      :     0.004355  p :     0.022265
      px      :     0.005832
      py      :     0.012078
 16 H s       :     0.870527  s :     0.870527
      pz      :     0.010234  p :     0.021410
      px      :     0.005160
      py      :     0.006016
 17 H s       :     0.870919  s :     0.870919
      pz      :     0.004461  p :     0.021631
      px      :     0.012603
      py      :     0.004566
 18 H s       :     0.866216  s :     0.866216
      pz      :     0.009680  p :     0.021512
      px      :     0.004947
      py      :     0.006885
 19 H s       :     0.866216  s :     0.866216
      pz      :     0.009683  p :     0.021512
      px      :     0.004948
      py      :     0.006881
 20 H s       :     0.874562  s :     0.874562
      pz      :     0.004437  p :     0.021476
      px      :     0.012766
      py      :     0.004272
 21 H s       :     0.826836  s :     0.826836
      pz      :     0.004355  p :     0.022267
      px      :     0.005834
      py      :     0.012078
 22 H s       :     0.870539  s :     0.870539
      pz      :     0.010236  p :     0.021410
      px      :     0.005161
      py      :     0.006013
 23 H s       :     0.870928  s :     0.870928
      pz      :     0.004461  p :     0.021631
      px      :     0.012603
      py      :     0.004567
 24 H s       :     0.733010  s :     0.733010
      pz      :     0.011270  p :     0.038161
      px      :     0.005417
      py      :     0.021475
 25 H s       :     0.806640  s :     0.806640
      pz      :     0.004897  p :     0.024658
      px      :     0.013142
      py      :     0.006619
 26 H s       :     0.853260  s :     0.853260
      pz      :     0.004345  p :     0.022283
      px      :     0.003748
      py      :     0.014191
 27 H s       :     0.847315  s :     0.847315
      pz      :     0.005065  p :     0.022878
      px      :     0.012984
      py      :     0.004829


                     *******************************
                     * LOEWDIN POPULATION ANALYSIS *
                     *******************************

----------------------
LOEWDIN ATOMIC CHARGES
----------------------
   0 C :   -0.255047
   1 C :   -0.388197
   2 C :   -0.253836
   3 C :   -0.255059
   4 O :    0.287447
   5 C :   -0.572376
   6 O :    0.083673
   7 N :    0.189884
   8 C :   -0.259372
   9 C :   -0.118281
  10 C :   -0.109860
  11 C :   -0.166007
  12 C :   -0.467760
  13 Br:    0.334421
  14 N :    0.155260
  15 H :    0.130091
  16 H :    0.124867
  17 H :    0.127570
  18 H :    0.124128
  19 H :    0.124127
  20 H :    0.126068
  21 H :    0.130100
  22 H :    0.124865
  23 H :    0.127566
  24 H :    0.202355
  25 H :    0.156682
  26 H :    0.150068
  27 H :    0.146620

-------------------------------
LOEWDIN REDUCED ORBITAL CHARGES
-------------------------------
  0 C s       :     2.827264  s :     2.827264
      pz      :     1.024113  p :     3.150896
      px      :     1.060310
      py      :     1.066474
      dz2     :     0.077782  d :     0.251756
      dxz     :     0.030485
      dyz     :     0.057515
      dx2y2   :     0.064108
      dxy     :     0.021865
      f0      :     0.003684  f :     0.025131
      f+1     :     0.004677
      f-1     :     0.005115
      f+2     :     0.002895
      f-2     :     0.004262
      f+3     :     0.003569
      f-3     :     0.000928
  1 C s       :     2.718658  s :     2.718658
      pz      :     1.039621  p :     2.830841
      px      :     0.756498
      py      :     1.034723
      dz2     :     0.153409  d :     0.740572
      dxz     :     0.135776
      dyz     :     0.146696
      dx2y2   :     0.170384
      dxy     :     0.134307
      f0      :     0.017156  f :     0.098125
      f+1     :     0.013177
      f-1     :     0.007710
      f+2     :     0.016751
      f-2     :     0.008930
      f+3     :     0.014968
      f-3     :     0.019434
  2 C s       :     2.829620  s :     2.829620
      pz      :     1.067474  p :     3.142239
      px      :     1.058861
      py      :     1.015904
      dz2     :     0.038769  d :     0.256524
      dxz     :     0.012771
      dyz     :     0.093821
      dx2y2   :     0.075482
      dxy     :     0.035682
      f0      :     0.002442  f :     0.025452
      f+1     :     0.003117
      f-1     :     0.004082
      f+2     :     0.002018
      f-2     :     0.004488
      f+3     :     0.005266
      f-3     :     0.004040
  3 C s       :     2.827264  s :     2.827264
      pz      :     1.024127  p :     3.150900
      px      :     1.060310
      py      :     1.066463
      dz2     :     0.077800  d :     0.251763
      dxz     :     0.030485
      dyz     :     0.057476
      dx2y2   :     0.064119
      dxy     :     0.021882
      f0      :     0.003683  f :     0.025132
      f+1     :     0.004675
      f-1     :     0.005116
      f+2     :     0.002896
[...]
             5.108        264.053         0.001
            -0.002          0.004       242.228

Paramagnetic contribution to the shielding tensor (ppm): 
          -249.390         19.792        -0.005
            35.211       -249.979        -0.004
            -0.003         -0.008       -63.106

Total shielding tensor (ppm): 
            20.687         29.635        -0.004
            40.319         14.074        -0.003
            -0.004         -0.005       179.121


 Diagonalized sT*s matrix:
 
 sDSO           259.006          275.124          242.228  iso=     258.786
 sPSO          -275.209         -224.161          -63.106  iso=    -187.492
        ---------------  ---------------  ---------------
 Total          -16.202           50.963          179.121  iso=      71.294

 --------------
 Nucleus  10C :
 --------------

Diamagnetic contribution to the shielding tensor (ppm) : 
           268.712         -1.462         0.001
            -1.893        261.394         0.001
             0.000          0.005       232.320

Paramagnetic contribution to the shielding tensor (ppm): 
          -249.419         -4.634        -0.006
            -5.843       -334.337        -0.008
            -0.005         -0.011       -60.820

Total shielding tensor (ppm): 
            19.293         -6.096        -0.005
            -7.736        -72.943        -0.008
            -0.004         -0.007       171.500


 Diagonalized sT*s matrix:
 
 sDSO           268.952          261.153          232.320  iso=     254.142
 sPSO          -249.166         -334.590          -60.820  iso=    -214.859
        ---------------  ---------------  ---------------
 Total           19.787          -73.437          171.500  iso=      39.283

 --------------
 Nucleus  11C :
 --------------

Diamagnetic contribution to the shielding tensor (ppm) : 
           266.964         -5.765         0.001
            -5.210        267.588         0.001
            -0.001          0.001       226.842

Paramagnetic contribution to the shielding tensor (ppm): 
          -287.127        -28.532        -0.006
           -46.844       -221.379        -0.006
            -0.007         -0.005       -78.603

Total shielding tensor (ppm): 
           -20.163        -34.296        -0.006
           -52.053         46.210        -0.004
            -0.008         -0.004       148.240


 Diagonalized sT*s matrix:
 
 sDSO           261.780          272.772          226.842  iso=     253.798
 sPSO          -293.751         -214.754          -78.603  iso=    -195.703
        ---------------  ---------------  ---------------
 Total          -31.971           58.018          148.240  iso=      58.096

 --------------
 Nucleus  12C :
 --------------

Diamagnetic contribution to the shielding tensor (ppm) : 
           260.184         -2.963         0.001
            -5.060        261.143         0.000
            -0.001          0.001       238.920

Paramagnetic contribution to the shielding tensor (ppm): 
          -289.628         71.825        -0.002
            35.127       -260.997        -0.002
            -0.001         -0.003      -157.510

Total shielding tensor (ppm): 
           -29.445         68.863        -0.001
            30.067          0.146        -0.002
            -0.002         -0.002        81.410


 Diagonalized sT*s matrix:
 
 sDSO           257.146          264.180          238.920  iso=     253.415
 sPSO          -240.680         -309.945         -157.510  iso=    -236.045
        ---------------  ---------------  ---------------
 Total           16.466          -45.765           81.410  iso=      17.370

 --------------
 Nucleus  13Br:
 --------------

Diamagnetic contribution to the shielding tensor (ppm) : 
          3126.555         -4.343        -0.000
            -5.233       3125.205        -0.000
             0.000          0.001      3126.552

Paramagnetic contribution to the shielding tensor (ppm): 
          -836.956       -784.548         0.008
          -654.433      -1055.878         0.002
             0.025         -0.032     -1814.190

Total shielding tensor (ppm): 
          2289.599       -788.891         0.008
          -659.666       2069.327         0.002
             0.026         -0.032      1312.362


 Diagonalized sT*s matrix:
 
 sDSO          3126.552         3121.045         3130.714  iso=    3126.104
 sPSO         -1814.190        -1673.865         -218.969  iso=   -1235.675
        ---------------  ---------------  ---------------
 Total         1312.362         1447.180         2911.745  iso=    1890.429

 --------------
 Nucleus  14N :
 --------------

Diamagnetic contribution to the shielding tensor (ppm) : 
           358.000         -5.811         0.001
            -7.125        314.664         0.000
            -0.001          0.001       325.953

Paramagnetic contribution to the shielding tensor (ppm): 
          -606.763         22.420        -0.014
            -8.392       -418.598        -0.011
            -0.009         -0.015      -118.886

Total shielding tensor (ppm): 
          -248.764         16.609        -0.013
           -15.517       -103.934        -0.011
            -0.010         -0.014       207.068


 Diagonalized sT*s matrix:
 
 sDSO           314.133          325.953          358.530  iso=     332.872
 sPSO          -418.363         -118.886         -606.997  iso=    -381.416
        ---------------  ---------------  ---------------
 Total         -104.230          207.068         -248.467  iso=     -48.543

 --------------
 Nucleus  15H :
 --------------

Diamagnetic contribution to the shielding tensor (ppm) : 
            29.302          2.787         3.300
             3.263         32.776        -7.121
            11.976         -5.789        24.613

Paramagnetic contribution to the shielding tensor (ppm): 
            -1.089         -1.399        -1.332
            -1.093         -0.764         5.713
            -9.487          2.229         2.611

Total shielding tensor (ppm): 
            28.213          1.388         1.968
             2.170         32.012        -1.408
             2.489         -3.561        27.223


 Diagonalized sT*s matrix:
 
 sDSO            16.091           34.863           35.736  iso=      28.897
 sPSO             8.147           -4.869           -2.520  iso=       0.253
        ---------------  ---------------  ---------------
 Total           24.239           29.994           33.215  iso=      29.149

 --------------
 Nucleus  16H :
 --------------

Diamagnetic contribution to the shielding tensor (ppm) : 
            28.682         -0.567         0.248
            -8.749         22.264         1.110
             4.909          0.109        38.202

Paramagnetic contribution to the shielding tensor (ppm): 
            -0.212          0.363        -0.263
             8.712          6.326        -0.857
            -5.411          1.880        -2.776

Total shielding tensor (ppm): 
            28.470         -0.204        -0.015
            -0.037         28.590         0.253
            -0.502          1.989        35.426


 Diagonalized sT*s matrix:
 
 sDSO            19.999           31.374           37.776  iso=      29.716
 sPSO             8.355           -2.855           -2.162  iso=       1.113
        ---------------  ---------------  ---------------
 Total           28.354           28.518           35.614  iso=      30.829

 --------------
 Nucleus  17H :
 --------------

Diamagnetic contribution to the shielding tensor (ppm) : 
            39.603         -1.922         3.426
            -4.319         27.165         1.187
             9.108          2.512        25.830

Paramagnetic contribution to the shielding tensor (ppm): 
            -4.833          0.485        -0.736
             2.486          1.363        -2.655
            -5.866         -3.833         3.650

Total shielding tensor (ppm): 
            34.771         -1.437         2.690
            -1.834         28.527        -1.468
             3.242         -1.321        29.480


 Diagonalized sT*s matrix:
 
 sDSO            28.099           22.465           42.034  iso=      30.866
 sPSO            -0.613            6.200           -5.407  iso=       0.060
        ---------------  ---------------  ---------------
 Total           27.485           28.665           36.627  iso=      30.926

 --------------
 Nucleus  18H :
 --------------

Diamagnetic contribution to the shielding tensor (ppm) : 
            26.387          1.129        -1.181
             8.270         34.070         7.242
            -5.326          8.549        25.313

Paramagnetic contribution to the shielding tensor (ppm): 
             1.613         -0.418         1.020
            -8.421         -0.596        -3.139
             4.849         -6.067         4.871

Total shielding tensor (ppm): 
            28.000          0.711        -0.161
            -0.152         33.474         4.103
            -0.477          2.482        30.184


 Diagonalized sT*s matrix:
 
 sDSO            18.883           28.178           38.709  iso=      28.590
 sPSO             8.766            0.322           -3.201  iso=       1.962
        ---------------  ---------------  ---------------
 Total           27.649           28.500           35.508  iso=      30.552

 --------------
 Nucleus  19H :
 --------------

Diamagnetic contribution to the shielding tensor (ppm) : 
            26.388          1.128         1.182
             8.273         34.062        -7.248
             5.323         -8.554        25.320

Paramagnetic contribution to the shielding tensor (ppm): 
             1.613         -0.418        -1.021
            -8.425         -0.591         3.144
            -4.845          6.070         4.867

Total shielding tensor (ppm): 
            28.000          0.710         0.161
            -0.152         33.471        -4.104
             0.478         -2.484        30.187


 Diagonalized sT*s matrix:
 
 sDSO            18.880           28.180           38.709  iso=      28.590
 sPSO             8.769            0.320           -3.201  iso=       1.963
        ---------------  ---------------  ---------------
 Total           27.649           28.500           35.509  iso=      30.553

 --------------
 Nucleus  20H :
 --------------

Diamagnetic contribution to the shielding tensor (ppm) : 
            38.758          3.614        -0.003
             8.581         24.711         0.002
            -0.003         -0.001        27.824

Paramagnetic contribution to the shielding tensor (ppm): 
            -3.735         -1.033         0.002
            -5.236          5.388        -0.003
             0.001         -0.000        -0.111

Total shielding tensor (ppm): 
            35.023          2.581        -0.001
             3.345         30.100        -0.001
            -0.002         -0.001        27.712


 Diagonalized sT*s matrix:
 
 sDSO            27.824           22.539           40.930  iso=      30.431
 sPSO            -0.111            6.170           -4.517  iso=       0.514
        ---------------  ---------------  ---------------
 Total           27.712           28.709           36.413  iso=      30.945

 --------------
 Nucleus  21H :
 --------------

Diamagnetic contribution to the shielding tensor (ppm) : 
            29.305          2.787        -3.300
             3.263         32.778         7.117
           -11.979          5.786        24.609

Paramagnetic contribution to the shielding tensor (ppm): 
            -1.092         -1.398         1.331
            -1.091         -0.767        -5.712
             9.487         -2.228         2.606

Total shielding tensor (ppm): 
            28.213          1.390        -1.970
             2.171         32.011         1.405
            -2.492          3.558        27.216


 Diagonalized sT*s matrix:
 
 sDSO            16.091           34.869           35.732  iso=      28.898
 sPSO             8.142           -4.876           -2.520  iso=       0.249
        ---------------  ---------------  ---------------
 Total           24.234           29.994           33.212  iso=      29.147

 --------------
 Nucleus  22H :
 --------------

Diamagnetic contribution to the shielding tensor (ppm) : 
            28.684         -0.568        -0.246
            -8.752         22.264        -1.100
            -4.903         -0.100        38.204

Paramagnetic contribution to the shielding tensor (ppm): 
            -0.213          0.364         0.262
             8.715          6.326         0.850
             5.406         -1.886        -2.777

Total shielding tensor (ppm): 
            28.471         -0.204         0.016
            -0.037         28.590        -0.250
             0.503         -1.985        35.427


 Diagonalized sT*s matrix:
 
 sDSO            19.996           31.380           37.776  iso=      29.717
 sPSO             8.359           -2.862           -2.162  iso=       1.112
        ---------------  ---------------  ---------------
 Total           28.355           28.518           35.614  iso=      30.829

 --------------
 Nucleus  23H :
 --------------

Diamagnetic contribution to the shielding tensor (ppm) : 
            39.603         -1.925        -3.427
            -4.325         27.166        -1.187
            -9.109         -2.512        25.834

Paramagnetic contribution to the shielding tensor (ppm): 
            -4.833          0.486         0.737
             2.490          1.363         2.656
             5.868          3.834         3.646

Total shielding tensor (ppm): 
            34.769         -1.439        -2.690
            -1.835         28.529         1.469
            -3.242          1.322        29.480


 Diagonalized sT*s matrix:
 
 sDSO            28.101           22.465           42.036  iso=      30.867
 sPSO            -0.615            6.200           -5.408  iso=       0.059
        ---------------  ---------------  ---------------
 Total           27.486           28.665           36.627  iso=      30.926

 --------------
 Nucleus  24H :
 --------------

Diamagnetic contribution to the shielding tensor (ppm) : 
            32.758         -0.402         0.000
            -0.114         45.814         0.000
            -0.000          0.000        30.717

Paramagnetic contribution to the shielding tensor (ppm): 
            -2.774          0.668        -0.000
            -1.241        -18.984        -0.000
             0.001         -0.000       -11.990

Total shielding tensor (ppm): 
            29.984          0.266        -0.000
            -1.355         26.830         0.000
             0.000         -0.000        18.727


 Diagonalized sT*s matrix:
 
 sDSO            30.717           45.438           33.135  iso=      36.430
 sPSO           -11.990          -18.698           -3.060  iso=     -11.250
        ---------------  ---------------  ---------------
 Total           18.727           26.740           30.074  iso=      25.180

 --------------
 Nucleus  25H :
 --------------

Diamagnetic contribution to the shielding tensor (ppm) : 
            40.907         -5.247        -0.000
            -5.593         32.619        -0.000
            -0.001          0.001        30.380

Paramagnetic contribution to the shielding tensor (ppm): 
           -12.555          9.312         0.000
             9.671         -7.857         0.000
             0.001         -0.001       -12.747

Total shielding tensor (ppm): 
            28.352          4.065         0.000
             4.078         24.762         0.000
             0.000          0.000        17.632


 Diagonalized sT*s matrix:
 
 sDSO            30.380           40.049           33.477  iso=      34.635
 sPSO           -12.747          -17.942           -2.471  iso=     -11.053
        ---------------  ---------------  ---------------
 Total           17.632           22.107           31.006  iso=      23.582

 --------------
 Nucleus  26H :
 --------------

Diamagnetic contribution to the shielding tensor (ppm) : 
            27.542          2.244         0.000
             1.342         44.696         0.001
             0.001          0.002        17.472

Paramagnetic contribution to the shielding tensor (ppm): 
             0.294         -2.368         0.000
            -1.789        -20.956        -0.001
            -0.001         -0.002         3.986

Total shielding tensor (ppm): 
            27.836         -0.123         0.000
            -0.447         23.740         0.000
             0.000          0.000        21.458


 Diagonalized sT*s matrix:
 
 sDSO            17.472           44.857           27.381  iso=      29.903
 sPSO             3.986          -21.138            0.475  iso=      -5.559
        ---------------  ---------------  ---------------
 Total           21.458           23.720           27.856  iso=      24.345

 --------------
 Nucleus  27H :
 --------------

Diamagnetic contribution to the shielding tensor (ppm) : 
            41.303          5.025         0.001
             4.731         32.958         0.001
             0.001          0.000        12.425

Paramagnetic contribution to the shielding tensor (ppm): 
           -17.305         -7.356        -0.001
            -7.222         -3.234        -0.001
            -0.001         -0.000         8.253

Total shielding tensor (ppm): 
            23.998         -2.331         0.000
            -2.490         29.724         0.000
            -0.000          0.000        20.679


 Diagonalized sT*s matrix:
 
 sDSO            12.425           43.467           30.794  iso=      28.895
 sPSO             8.253          -20.349           -0.190  iso=      -4.095
        ---------------  ---------------  ---------------
 Total           20.679           23.118           30.603  iso=      24.800



--------------------------------
CHEMICAL SHIELDING SUMMARY (ppm)
--------------------------------


  Nucleus  Element    Isotropic     Anisotropy
  -------  -------  ------------   ------------
      0       C          157.156         41.064 
      1       C           99.263         74.541 
      2       C          150.472         49.310 
      3       C          157.157         41.057 
      4       O          119.737         67.296 
      5       C           27.542         61.382 
      6       O           12.205        434.627 
      7       N          116.985         98.782 
      8       C           25.714        139.627 
      9       C           71.294        161.741 
     10       C           39.283        198.325 
     11       C           58.096        135.216 
     12       C           17.370         96.060 
     13       Br        1890.429       1531.974 
     14       N          -48.543       -299.886 
     15       H           29.149          6.099 
     16       H           30.829          7.178 
     17       H           30.926          8.552 
     18       H           30.552          7.434 
     19       H           30.553          7.434 
     20       H           30.945          8.202 
     21       H           29.147          6.099 
     22       H           30.829          7.178 
     23       H           30.926          8.552 
     24       H           25.180          7.341 
     25       H           23.582         11.136 
     26       H           24.345          5.267 
     27       H           24.800          8.705 



Maximum memory used throughout the entire EPRNMR-calculation: 102.8 MB

Timings for individual modules:

Sum of individual times         ...      108.960 sec (=   1.816 min)
GTO integral calculation        ...        1.255 sec (=   0.021 min)   1.2 %
SCF iterations                  ...       75.848 sec (=   1.264 min)  69.6 %
EPR/NMR calculation             ...       31.857 sec (=   0.531 min)  29.2 %
                             ****ORCA TERMINATED NORMALLY****
TOTAL RUN TIME: 0 days 0 hours 1 minutes 49 seconds 670 msec
