
                                 *****************
                                 * O   R   C   A *
                                 *****************

                                            #,                                       
                                            ###                                      
                                            ####                                     
                                            #####                                    
                                            ######                                   
                                           ########,                                 
                                     ,,################,,,,,                         
                               ,,#################################,,                 
                          ,,##########################################,,             
                       ,#########################################, ''#####,          
                    ,#############################################,,   '####,        
                  ,##################################################,,,,####,       
                ,###########''''           ''''###############################       
              ,#####''   ,,,,##########,,,,          '''####'''          '####       
            ,##' ,,,,###########################,,,                        '##       
           ' ,,###''''                  '''############,,,                           
         ,,##''                                '''############,,,,        ,,,,,,###''
      ,#''                                            '''#######################'''  
     '                                                          ''''####''''         
             ,#######,   #######,   ,#######,      ##                                
            ,#'     '#,  ##    ##  ,#'     '#,    #''#        ######   ,####,        
            ##       ##  ##   ,#'  ##            #'  '#       #        #'  '#        
            ##       ##  #######   ##           ,######,      #####,   #    #        
            '#,     ,#'  ##    ##  '#,     ,#' ,#      #,         ##   #,  ,#        
             '#######'   ##     ##  '#######'  #'      '#     #####' # '####'        



                  #######################################################
                  #                        -***-                        #
                  #          Department of theory and spectroscopy      #
                  #    Directorship and core code : Frank Neese         #
                  #        Max Planck Institute fuer Kohlenforschung    #
                  #                Kaiser Wilhelm Platz 1               #
                  #                 D-45470 Muelheim/Ruhr               #
                  #                      Germany                        #
                  #                                                     #
                  #                  All rights reserved                #
                  #                        -***-                        #
                  #######################################################


                         Program Version 5.0.4 -  RELEASE  -


 With contributions from (in alphabetic order):
   Daniel Aravena         : Magnetic Suceptibility
   Michael Atanasov       : Ab Initio Ligand Field Theory (pilot matlab implementation)
   Alexander A. Auer      : GIAO ZORA, VPT2 properties, NMR spectrum
   Ute Becker             : Parallelization
   Giovanni Bistoni       : ED, misc. LED, open-shell LED, HFLD
   Martin Brehm           : Molecular dynamics
   Dmytro Bykov           : SCF Hessian
   Vijay G. Chilkuri      : MRCI spin determinant printing, contributions to CSF-ICE
   Dipayan Datta          : RHF DLPNO-CCSD density
   Achintya Kumar Dutta   : EOM-CC, STEOM-CC
   Dmitry Ganyushin       : Spin-Orbit,Spin-Spin,Magnetic field MRCI
   Miquel Garcia          : C-PCM and meta-GGA Hessian, CC/C-PCM, Gaussian charge scheme
   Yang Guo               : DLPNO-NEVPT2, F12-NEVPT2, CIM, IAO-localization
   Andreas Hansen         : Spin unrestricted coupled pair/coupled cluster methods
   Benjamin Helmich-Paris : MC-RPA, TRAH-SCF, COSX integrals
   Lee Huntington         : MR-EOM, pCC
   Robert Izsak           : Overlap fitted RIJCOSX, COSX-SCS-MP3, EOM
   Marcus Kettner         : VPT2
   Christian Kollmar      : KDIIS, OOCD, Brueckner-CCSD(T), CCSD density, CASPT2, CASPT2-K
   Simone Kossmann        : Meta GGA functionals, TD-DFT gradient, OOMP2, MP2 Hessian
   Martin Krupicka        : Initial AUTO-CI
   Lucas Lang             : DCDCAS
   Marvin Lechner         : AUTO-CI (C++ implementation), FIC-MRCC
   Dagmar Lenk            : GEPOL surface, SMD
   Dimitrios Liakos       : Extrapolation schemes; Compound Job, initial MDCI parallelization
   Dimitrios Manganas     : Further ROCIS development; embedding schemes
   Dimitrios Pantazis     : SARC Basis sets
   Anastasios Papadopoulos: AUTO-CI, single reference methods and gradients
   Taras Petrenko         : DFT Hessian,TD-DFT gradient, ASA, ECA, R-Raman, ABS, FL, XAS/XES, NRVS
   Peter Pinski           : DLPNO-MP2, DLPNO-MP2 Gradient
   Christoph Reimann      : Effective Core Potentials
   Marius Retegan         : Local ZFS, SOC
   Christoph Riplinger    : Optimizer, TS searches, QM/MM, DLPNO-CCSD(T), (RO)-DLPNO pert. Triples
   Tobias Risthaus        : Range-separated hybrids, TD-DFT gradient, RPA, STAB
   Michael Roemelt        : Original ROCIS implementation
   Masaaki Saitow         : Open-shell DLPNO-CCSD energy and density
   Barbara Sandhoefer     : DKH picture change effects
   Avijit Sen             : IP-ROCIS
   Kantharuban Sivalingam : CASSCF convergence, NEVPT2, FIC-MRCI
   Bernardo de Souza      : ESD, SOC TD-DFT
   Georgi Stoychev        : AutoAux, RI-MP2 NMR, DLPNO-MP2 response
   Willem Van den Heuvel  : Paramagnetic NMR
   Boris Wezisla          : Elementary symmetry handling
   Frank Wennmohs         : Technical directorship


 We gratefully acknowledge several colleagues who have allowed us to
 interface, adapt or use parts of their codes:
   Stefan Grimme, W. Hujo, H. Kruse, P. Pracht,  : VdW corrections, initial TS optimization,
                  C. Bannwarth, S. Ehlert          DFT functionals, gCP, sTDA/sTD-DF
   Ed Valeev, F. Pavosevic, A. Kumar             : LibInt (2-el integral package), F12 methods
   Garnet Chan, S. Sharma, J. Yang, R. Olivares  : DMRG
   Ulf Ekstrom                                   : XCFun DFT Library
   Mihaly Kallay                                 : mrcc  (arbitrary order and MRCC methods)
   Jiri Pittner, Ondrej Demel                    : Mk-CCSD
   Frank Weinhold                                : gennbo (NPA and NBO analysis)
   Christopher J. Cramer and Donald G. Truhlar   : smd solvation model
   Lars Goerigk                                  : TD-DFT with DH, B97 family of functionals
   V. Asgeirsson, H. Jonsson                     : NEB implementation
   FAccTs GmbH                                   : IRC, NEB, NEB-TS, DLPNO-Multilevel, CI-OPT
                                                   MM, QMMM, 2- and 3-layer-ONIOM, Crystal-QMMM,
                                                   LR-CPCM, SF, NACMEs, symmetry and pop. for TD-DFT,
                                                   nearIR, NL-DFT gradient (VV10), updates on ESD,
                                                   ML-optimized integration grids
   S Lehtola, MJT Oliveira, MAL Marques          : LibXC Library
   Liviu Ungur et al                             : ANISO software


 Your calculation uses the libint2 library for the computation of 2-el integrals
 For citations please refer to: http://libint.valeyev.net

 Your ORCA version has been built with support for libXC version: 5.1.0
 For citations please refer to: https://tddft.org/programs/libxc/

 This ORCA versions uses:
   CBLAS   interface :  Fast vector & matrix operations
   LAPACKE interface :  Fast linear algebra routines
   SCALAPACK package :  Parallel linear algebra routines
   Shared memory     :  Shared parallel matrices
   BLAS/LAPACK       :  OpenBLAS 0.3.15  USE64BITINT DYNAMIC_ARCH NO_AFFINITY SkylakeX SINGLE_THREADED
        Core in use  :  SkylakeX
   Copyright (c) 2011-2014, The OpenBLAS Project



Information: The global flag for chemical shieldings has been found
             ==>> will calculate the chemical shieldings for all atoms in the system

================================================================================

----- Orbital basis set information -----
Your calculation utilizes the basis: def2-TZVP
   F. Weigend and R. Ahlrichs, Phys. Chem. Chem. Phys. 7, 3297 (2005).

----- AuxJ basis set information -----
Your calculation utilizes the auxiliary basis: def2/J
   F. Weigend, Phys. Chem. Chem. Phys. 8, 1057 (2006).

================================================================================
                                        WARNINGS
                       Please study these warnings very carefully!
================================================================================


INFO   : the flag for use of the SHARK integral package has been found!

================================================================================
                                       INPUT FILE
================================================================================
NAME = arbr_24_r2scan3c_nmr.inp
|  1> %PAL NPROCS 16 END
|  2> %maxcore 4000
|  3> # arbr_24_r2scan3c.out
|  4> ! NMR B3LYP def2-tzvp 
|  5> * xyz 0 1
|  6>   Br        2.60262        -0.18003        -0.00000
|  7>    C        0.73555         0.09861         0.00001
|  8>    C        0.26521         1.45026         0.00001
|  9>    C       -1.06148         1.69326         0.00001
| 10>    N       -1.93300         0.63449         0.00000
| 11>    C       -3.29667         0.54280        -0.00006
| 12>    N       -3.65659        -0.70940         0.00006
| 13>    N       -2.54669        -1.48854        -0.00002
| 14>    C       -1.50819        -0.68381        -0.00000
| 15>    C       -0.11395        -0.95490        -0.00000
| 16>    H        0.96691         2.26982         0.00001
| 17>    H       -1.49523         2.68235         0.00000
| 18>    H       -3.95162         1.39727        -0.00007
| 19>    H        0.21949        -1.98162        -0.00001
| 20> *
| 21> 
| 22>                          ****END OF INPUT****
================================================================================

                       ****************************
                       * Single Point Calculation *
                       ****************************

---------------------------------
CARTESIAN COORDINATES (ANGSTROEM)
---------------------------------
  Br     2.602620   -0.180030   -0.000000
  C      0.735550    0.098610    0.000010
  C      0.265210    1.450260    0.000010
  C     -1.061480    1.693260    0.000010
  N     -1.933000    0.634490    0.000000
  C     -3.296670    0.542800   -0.000060
  N     -3.656590   -0.709400    0.000060
  N     -2.546690   -1.488540   -0.000020
  C     -1.508190   -0.683810   -0.000000
  C     -0.113950   -0.954900   -0.000000
  H      0.966910    2.269820    0.000010
  H     -1.495230    2.682350    0.000000
  H     -3.951620    1.397270   -0.000070
  H      0.219490   -1.981620   -0.000010

----------------------------
CARTESIAN COORDINATES (A.U.)
----------------------------
  NO LB      ZA    FRAG     MASS         X           Y           Z
   0 Br   35.0000    0    79.900    4.918239   -0.340207   -0.000000
   1 C     6.0000    0    12.011    1.389988    0.186346    0.000019
   2 C     6.0000    0    12.011    0.501174    2.740594    0.000019
   3 C     6.0000    0    12.011   -2.005906    3.199798    0.000019
   4 N     7.0000    0    14.007   -3.652841    1.199012    0.000000
   5 C     6.0000    0    12.011   -6.229803    1.025743   -0.000113
   6 N     7.0000    0    14.007   -6.909954   -1.340572    0.000113
   7 N     7.0000    0    14.007   -4.812547   -2.812933   -0.000038
   8 C     6.0000    0    12.011   -2.850066   -1.292214   -0.000000
   9 C     6.0000    0    12.011   -0.215334   -1.804499   -0.000000
  10 H     1.0000    0     1.008    1.827195    4.289338    0.000019
  11 H     1.0000    0     1.008   -2.825575    5.068907    0.000000
  12 H     1.0000    0     1.008   -7.467480    2.640458   -0.000132
  13 H     1.0000    0     1.008    0.414776   -3.744719   -0.000019

--------------------------------
INTERNAL COORDINATES (ANGSTROEM)
--------------------------------
 Br     0   0   0     0.000000000000     0.00000000     0.00000000
 C      1   0   0     1.887747502872     0.00000000     0.00000000
 C      2   1   0     1.431145498578   117.67473192     0.00000000
 C      3   2   1     1.348760674138   119.56599723   179.99965728
 N      4   3   2     1.371328196822   119.07989960     0.00000000
 C      5   4   3     1.366749036436   133.30593853   180.00329501
 N      6   5   4     1.302899558984   109.88289008   180.00472463
 N      7   6   5     1.356074170538   109.03227046     0.00000000
 C      8   7   6     1.313800830910   107.15950504     0.00000000
 C      2   1   3     1.353341631001   120.39291300   179.99917199
 H      3   2   1     1.078916810324   120.24355168     0.00000000
 H      4   3   2     1.080017634439   124.05849830   180.00064035
 H      6   5   4     1.076605073135   123.62346662     0.00000000
 H     10   2   1     1.079507383995   123.12711333     0.00000000

---------------------------
INTERNAL COORDINATES (A.U.)
---------------------------
 Br     0   0   0     0.000000000000     0.00000000     0.00000000
 C      1   0   0     3.567325790422     0.00000000     0.00000000
 C      2   1   0     2.704473050107   117.67473192     0.00000000
 C      3   2   1     2.548788294323   119.56599723   179.99965728
 N      4   3   2     2.591434731718   119.07989960     0.00000000
 C      5   4   3     2.582781372666   133.30593853   180.00329501
 N      6   5   4     2.462123346486   109.88289008   180.00472463
 N      7   6   5     2.562608799601   109.03227046     0.00000000
 C      8   7   6     2.482723764938   107.15950504     0.00000000
 C      2   1   3     2.557445048226   120.39291300   179.99917199
 H      3   2   1     2.038857292796   120.24355168     0.00000000
 H      4   3   2     2.040937548896   124.05849830   180.00064035
 H      6   5   4     2.034488742615   123.62346662     0.00000000
 H     10   2   1     2.039973315297   123.12711333     0.00000000

---------------------
BASIS SET INFORMATION
---------------------
There are 4 groups of distinct atoms

 Group   1 Type Br  : 17s13p8d1f contracted to 6s5p4d1f pattern {842111/64111/5111/1}
 Group   2 Type C   : 11s6p2d1f contracted to 5s3p2d1f pattern {62111/411/11/1}
 Group   3 Type N   : 11s6p2d1f contracted to 5s3p2d1f pattern {62111/411/11/1}
 Group   4 Type H   : 5s1p contracted to 3s1p pattern {311/1}

Atom   0Br   basis set group =>   1
Atom   1C    basis set group =>   2
Atom   2C    basis set group =>   2
Atom   3C    basis set group =>   2
Atom   4N    basis set group =>   3
Atom   5C    basis set group =>   2
Atom   6N    basis set group =>   3
Atom   7N    basis set group =>   3
Atom   8C    basis set group =>   2
Atom   9C    basis set group =>   2
Atom  10H    basis set group =>   4
Atom  11H    basis set group =>   4
Atom  12H    basis set group =>   4
Atom  13H    basis set group =>   4
---------------------------------
AUXILIARY/J BASIS SET INFORMATION
---------------------------------
There are 4 groups of distinct atoms

 Group   1 Type Br  : 19s5p5d3f1g contracted to 8s4p3d2f1g pattern {121111111/2111/311/21/1}
 Group   2 Type C   : 12s5p4d2f1g contracted to 6s4p3d1f1g pattern {711111/2111/211/2/1}
 Group   3 Type N   : 12s5p4d2f1g contracted to 6s4p3d1f1g pattern {711111/2111/211/2/1}
 Group   4 Type H   : 5s2p1d contracted to 3s1p1d pattern {311/2/1}

Atom   0Br   basis set group =>   1
Atom   1C    basis set group =>   2
Atom   2C    basis set group =>   2
Atom   3C    basis set group =>   2
Atom   4N    basis set group =>   3
Atom   5C    basis set group =>   2
Atom   6N    basis set group =>   3
Atom   7N    basis set group =>   3
Atom   8C    basis set group =>   2
Atom   9C    basis set group =>   2
Atom  10H    basis set group =>   4
Atom  11H    basis set group =>   4
Atom  12H    basis set group =>   4
Atom  13H    basis set group =>   4


           ************************************************************
           *        Program running with 16 parallel MPI-processes    *
           *              working on a common directory               *
           ************************************************************
------------------------------------------------------------------------------
                           ORCA GTO INTEGRAL CALCULATION
                           -- RI-GTO INTEGRALS CHOSEN --
------------------------------------------------------------------------------
------------------------------------------------------------------------------
                   ___                                                        
                  /   \      - P O W E R E D   B Y -                         
                 /     \                                                     
                 |  |  |   _    _      __       _____    __    __             
                 |  |  |  | |  | |    /  \     |  _  \  |  |  /  |          
                  \  \/   | |  | |   /    \    | | | |  |  | /  /          
                 / \  \   | |__| |  /  /\  \   | |_| |  |  |/  /          
                |  |  |   |  __  | /  /__\  \  |    /   |      \           
                |  |  |   | |  | | |   __   |  |    \   |  |\   \          
                \     /   | |  | | |  |  |  |  | |\  \  |  | \   \       
                 \___/    |_|  |_| |__|  |__|  |_| \__\ |__|  \__/        
                                                                              
                      - O R C A' S   B I G   F R I E N D -                    
                                      &                                       
                       - I N T E G R A L  F E E D E R -                       
                                                                              
 v1 FN, 2020, v2 2021                                                         
------------------------------------------------------------------------------


Reading SHARK input file arbr_24_r2scan3c_nmr.SHARKINP.tmp ... ok
----------------------
SHARK INTEGRAL PACKAGE
----------------------

Number of atoms                             ...     14
Number of basis functions                   ...    351
Number of shells                            ...    131
Maximum angular momentum                    ...      3
Integral batch strategy                     ... SHARK/LIBINT Hybrid
RI-J (if used) integral strategy            ... SPLIT-RIJ (Revised 2003 algorithm where possible)
Printlevel                                  ...      1
Contraction scheme used                     ... SEGMENTED contraction
Coulomb Range Separation                    ... NOT USED
Exchange Range Separation                   ... NOT USED
Finite Nucleus Model                        ... NOT USED
Auxiliary Coulomb fitting basis             ... AVAILABLE
   # of basis functions in Aux-J            ...    543
   # of shells in Aux-J                     ...    173
   Maximum angular momentum in Aux-J        ...      4
Auxiliary J/K fitting basis                 ... NOT available
Auxiliary Correlation fitting basis         ... NOT available
Auxiliary 'external' fitting basis          ... NOT available
Integral threshold                          ...     1.000000e-10
Primitive cut-off                           ...     1.000000e-11
Primitive pair pre-selection threshold      ...     1.000000e-11

Calculating pre-screening integrals         ... done (  0.1 sec) Dimension = 131
Organizing shell pair data                  ... done (  0.2 sec)
Shell pair information
Total number of shell pairs                 ...      8646
Shell pairs after pre-screening             ...      7573
Total number of primitive shell pairs       ...     29922
Primitive shell pairs kept                  ...     18472
          la=0 lb=0:   1655 shell pairs
          la=1 lb=0:   2021 shell pairs
          la=1 lb=1:    621 shell pairs
          la=2 lb=0:   1196 shell pairs
          la=2 lb=1:    726 shell pairs
          la=2 lb=2:    227 shell pairs
          la=3 lb=0:    544 shell pairs
          la=3 lb=1:    332 shell pairs
          la=3 lb=2:    199 shell pairs
          la=3 lb=3:     52 shell pairs

Calculating one electron integrals          ... done (  0.0 sec)
Calculating RI/J V-Matrix + Cholesky decomp.... done (  0.0 sec)
Calculating Nuclear repulsion               ... done (  0.0 sec) ENN=    702.605231014658 Eh

SHARK setup successfully completed in   0.5 seconds

Maximum memory used throughout the entire GTOINT-calculation: 24.8 MB


           ************************************************************
           *        Program running with 16 parallel MPI-processes    *
           *              working on a common directory               *
           ************************************************************
-------------------------------------------------------------------------------
                                 ORCA SCF
-------------------------------------------------------------------------------

------------
SCF SETTINGS
------------
Hamiltonian:
 Density Functional     Method          .... DFT(GTOs)
 Exchange Functional    Exchange        .... B88
   X-Alpha parameter    XAlpha          ....  0.666667
   Becke's b parameter  XBeta           ....  0.004200
 Correlation Functional Correlation     .... LYP
 LDA part of GGA corr.  LDAOpt          .... VWN-5
 Gradients option       PostSCFGGA      .... off
 Hybrid DFT is turned on
   Fraction HF Exchange ScalHFX         ....  0.200000
   Scaling of DF-GGA-X  ScalDFX         ....  0.720000
   Scaling of DF-GGA-C  ScalDFC         ....  0.810000
   Scaling of DF-LDA-C  ScalLDAC        ....  1.000000
   Perturbative correction              ....  0.000000
   Density functional embedding theory  .... OFF
   NL short-range parameter             ....  4.800000
 RI-approximation to the Coulomb term is turned on
   Number of AuxJ basis functions       .... 543
   RIJ-COSX (HFX calculated with COS-X)).... on


General Settings:
 Integral files         IntName         .... arbr_24_r2scan3c_nmr
 Hartree-Fock type      HFTyp           .... RHF
 Total Charge           Charge          ....    0
 Multiplicity           Mult            ....    1
 Number of Electrons    NEL             ....   96
 Basis Dimension        Dim             ....  351
 Nuclear Repulsion      ENuc            ....    702.6052310147 Eh

Convergence Acceleration:
 DIIS                   CNVDIIS         .... on
   Start iteration      DIISMaxIt       ....    12
   Startup error        DIISStart       ....  0.200000
   # of expansion vecs  DIISMaxEq       ....     5
   Bias factor          DIISBfac        ....   1.050
   Max. coefficient     DIISMaxC        ....  10.000
 Trust-Rad. Augm. Hess. CNVTRAH         .... auto
   Auto Start mean grad. ratio tolernc. ....  1.125000
   Auto Start start iteration           ....    20
   Auto Start num. interpolation iter.  ....    10
   Max. Number of Micro iterations      ....    16
   Max. Number of Macro iterations      .... Maxiter - #DIIS iter
   Number of Davidson start vectors     ....     2
   Converg. threshold I  (grad. norm)   ....   5.000e-05
   Converg. threshold II (energy diff.) ....   1.000e-06
   Grad. Scal. Fac. for Micro threshold ....   0.100
   Minimum threshold for Micro iter.    ....   0.010
   NR start threshold (gradient norm)   ....   0.001
   Initial trust radius                 ....   0.400
   Minimum AH scaling param. (alpha)    ....   1.000
   Maximum AH scaling param. (alpha)    .... 1000.000
   Orbital update algorithm             .... Taylor
   White noise on init. David. guess    .... on
   Maximum white noise                  ....   0.010
   Quad. conv. algorithm                .... NR
 SOSCF                  CNVSOSCF        .... on
   Start iteration      SOSCFMaxIt      ....   150
   Startup grad/error   SOSCFStart      ....  0.003300
 Level Shifting         CNVShift        .... on
   Level shift para.    LevelShift      ....    0.2500
   Turn off err/grad.   ShiftErr        ....    0.0010
 Zerner damping         CNVZerner       .... off
 Static damping         CNVDamp         .... on
   Fraction old density DampFac         ....    0.7000
   Max. Damping (<1)    DampMax         ....    0.9800
   Min. Damping (>=0)   DampMin         ....    0.0000
   Turn off err/grad.   DampErr         ....    0.1000
 Fernandez-Rico         CNVRico         .... off

SCF Procedure:
 Maximum # iterations   MaxIter         ....   125
 SCF integral mode      SCFMode         .... Direct
   Integral package                     .... SHARK and LIBINT hybrid scheme
 Reset frequency        DirectResetFreq ....    20
 Integral Threshold     Thresh          ....  1.000e-10 Eh
 Primitive CutOff       TCut            ....  1.000e-11 Eh

Convergence Tolerance:
 Convergence Check Mode ConvCheckMode   .... Total+1el-Energy
 Convergence forced     ConvForced      .... 0
 Energy Change          TolE            ....  1.000e-06 Eh
 1-El. energy change                    ....  1.000e-03 Eh
 Orbital Gradient       TolG            ....  5.000e-05
 Orbital Rotation angle TolX            ....  5.000e-05
 DIIS Error             TolErr          ....  1.000e-06


Diagonalization of the overlap matrix:
Smallest eigenvalue                        ... 3.138e-05
Time for diagonalization                   ...    0.027 sec
Threshold for overlap eigenvalues          ... 1.000e-08
Number of eigenvalues below threshold      ... 0
Time for construction of square roots      ...    0.017 sec
Total time needed                          ...    0.046 sec

Time for model grid setup =    0.136 sec

------------------------------
INITIAL GUESS: MODEL POTENTIAL
------------------------------
Loading Hartree-Fock densities                     ... done
Calculating cut-offs                               ... done
Initializing the effective Hamiltonian             ... done
Setting up the integral package (SHARK)            ... done
Starting the Coulomb interaction                   ... done (   0.1 sec)
Reading the grid                                   ... done
Mapping shells                                     ... done
Starting the XC term evaluation                    ... done (   0.1 sec)
  promolecular density results
     # of electrons  =     95.995133832
     EX              =   -141.519809414
     EC              =     -3.815126853
     EX+EC           =   -145.334936267
Transforming the Hamiltonian                       ... done (   0.0 sec)
Diagonalizing the Hamiltonian                      ... done (   0.0 sec)
Back transforming the eigenvectors                 ... done (   0.0 sec)
Now organizing SCF variables                       ... done
                      ------------------
                      INITIAL GUESS DONE (   0.4 sec)
                      ------------------
-------------------
DFT GRID GENERATION
-------------------

General Integration Accuracy     IntAcc      ... 4.388
Radial Grid Type                 RadialGrid  ... OptM3 with GC (2021)
Angular Grid (max. ang.)         AngularGrid ... 4 (Lebedev-302)
Angular grid pruning method      GridPruning ... 4 (adaptive)
Weight generation scheme         WeightScheme... Becke
Basis function cutoff            BFCut       ... 1.0000e-10
Integration weight cutoff        WCut        ... 1.0000e-14
Angular grids for H and He will be reduced by one unit
Partially contracted basis set               ... off
Rotationally invariant grid construction     ... off

Total number of grid points                  ...    78308
Total number of batches                      ...     1229
Average number of points per batch           ...       63
Average number of grid points per atom       ...     5593
Time for grid setup =    0.653 sec

--------------------
COSX GRID GENERATION
--------------------

GRIDX 1
-------
General Integration Accuracy     IntAcc      ... 3.816
Radial Grid Type                 RadialGrid  ... OptM3 with GC (2021)
Angular Grid (max. ang.)         AngularGrid ... 1 (Lebedev-50)
Angular grid pruning method      GridPruning ... 4 (adaptive)
Weight generation scheme         WeightScheme... Becke
Basis function cutoff            BFCut       ... 1.0000e-10
Integration weight cutoff        WCut        ... 1.0000e-14
Angular grids for H and He will be reduced by one unit
Partially contracted basis set               ... on
Rotationally invariant grid construction     ... off

Total number of grid points                  ...     9766
Total number of batches                      ...      160
Average number of points per batch           ...       61
Average number of grid points per atom       ...      698
UseSFitting                                  ... on

GRIDX 2
-------
General Integration Accuracy     IntAcc      ... 4.020
Radial Grid Type                 RadialGrid  ... OptM3 with GC (2021)
Angular Grid (max. ang.)         AngularGrid ... 2 (Lebedev-110)
Angular grid pruning method      GridPruning ... 4 (adaptive)
Weight generation scheme         WeightScheme... Becke
Basis function cutoff            BFCut       ... 1.0000e-10
Integration weight cutoff        WCut        ... 1.0000e-14
Angular grids for H and He will be reduced by one unit
Partially contracted basis set               ... on
Rotationally invariant grid construction     ... off

Total number of grid points                  ...    21933
Total number of batches                      ...      349
Average number of points per batch           ...       62
Average number of grid points per atom       ...     1567
UseSFitting                                  ... on

GRIDX 3
-------
General Integration Accuracy     IntAcc      ... 4.338
Radial Grid Type                 RadialGrid  ... OptM3 with GC (2021)
Angular Grid (max. ang.)         AngularGrid ... 3 (Lebedev-194)
Angular grid pruning method      GridPruning ... 4 (adaptive)
Weight generation scheme         WeightScheme... Becke
Basis function cutoff            BFCut       ... 1.0000e-10
Integration weight cutoff        WCut        ... 1.0000e-14
Angular grids for H and He will be reduced by one unit
Partially contracted basis set               ... on
Rotationally invariant grid construction     ... off

Total number of grid points                  ...    48577
Total number of batches                      ...      765
Average number of points per batch           ...       63
Average number of grid points per atom       ...     3470
UseSFitting                                  ... on

Time for X-Grid setup             =    0.551 sec

--------------
SCF ITERATIONS
--------------
ITER       Energy         Delta-E        Max-DP      RMS-DP      [F,P]     Damp
               ***  Starting incremental Fock matrix formation  ***
  0  -2969.0084846032   0.000000000000 0.05933865  0.00117213  0.1965536 0.7000
  1  -2969.1112064518  -0.102721848651 0.05217263  0.00095596  0.0849335 0.7000
                               ***Turning on DIIS***
  2  -2969.1505461798  -0.039339727978 0.06313019  0.00134533  0.0400850 0.0000
  3  -2969.2104771768  -0.059930996951 0.05985082  0.00094610  0.0459444 0.0000
  4  -2969.2260838996  -0.015606722789 0.01546427  0.00028749  0.0135807 0.0000
  5  -2969.2272186535  -0.001134753976 0.00667707  0.00012075  0.0033440 0.0000
                      *** Initiating the SOSCF procedure ***
                           *** Shutting down DIIS ***
                      *** Re-Reading the Fockian *** 
                      *** Removing any level shift *** 
ITER      Energy       Delta-E        Grad      Rot      Max-DP    RMS-DP
  6  -2969.22729968  -0.0000810241  0.000289  0.000289  0.002580  0.000045
               *** Restarting incremental Fock matrix formation ***
  7  -2969.22729143   0.0000082453  0.000169  0.000789  0.001425  0.000030
  8  -2969.22729126   0.0000001717  0.000226  0.000374  0.000314  0.000007
  9  -2969.22729273  -0.0000014667  0.000051  0.000125  0.000239  0.000006
                 **** Energy Check signals convergence ****
              ***Rediagonalizing the Fockian in SOSCF/NRSCF***

               *****************************************************
               *                     SUCCESS                       *
               *           SCF CONVERGED AFTER  10 CYCLES          *
               *****************************************************

Old exchange energy                            =    -28.390502925 Eh
New exchange energy                            =    -28.390511796 Eh
Exchange energy change after final integration =     -0.000008871 Eh
Total energy after final integration           =  -2969.227301523 Eh
Final COS-X integration done in                =     3.731 sec

----------------
TOTAL SCF ENERGY
----------------

Total Energy       :        -2969.22730152 Eh          -80796.78250 eV

Components:
Nuclear Repulsion  :          702.60523101 Eh           19118.86032 eV
Electronic Energy  :        -3671.83253254 Eh          -99915.64282 eV
One Electron Energy:        -5512.04773450 Eh         -149990.44422 eV
Two Electron Energy:         1840.21520197 Eh           50074.80140 eV
Max COSX asymmetry :            0.00000327 Eh               0.00009 eV

Virial components:
Potential Energy   :        -5933.23868374 Eh         -161451.63263 eV
Kinetic Energy     :         2964.01138222 Eh           80654.85012 eV
Virial Ratio       :            2.00175975


DFT components:
N(Alpha)           :       47.999983568347 electrons
N(Beta)            :       47.999983568347 electrons
N(Total)           :       95.999967136695 electrons
E(X)               :     -113.001163585895 Eh       
E(C)               :       -4.467822814113 Eh       
E(XC)              :     -117.468986400008 Eh       
DFET-embed. en.    :        0.000000000000 Eh       

---------------
SCF CONVERGENCE
---------------

  Last Energy change         ...    7.5433e-08  Tolerance :   1.0000e-06
  Last MAX-Density change    ...    6.2172e-15  Tolerance :   1.0000e-05
  Last RMS-Density change    ...    3.6167e-17  Tolerance :   1.0000e-06
  Last Orbital Gradient      ...    6.0245e-05  Tolerance :   5.0000e-05
  Last Orbital Rotation      ...    6.9807e-05  Tolerance :   5.0000e-05

             **** THE GBW FILE WAS UPDATED (arbr_24_r2scan3c_nmr.gbw) ****
             **** DENSITY arbr_24_r2scan3c_nmr.scfp WAS UPDATED ****
             **** ENERGY FILE WAS UPDATED (arbr_24_r2scan3c_nmr.en.tmp) ****
             **** THE GBW FILE WAS UPDATED (arbr_24_r2scan3c_nmr.gbw) ****
             **** DENSITY arbr_24_r2scan3c_nmr.scfp WAS UPDATED ****
----------------
ORBITAL ENERGIES
----------------

  NO   OCC          E(Eh)            E(eV) 
   0   2.0000    -482.875916    -13139.7217 
   1   2.0000     -62.523382     -1701.3477 
   2   2.0000     -56.338841     -1533.0578 
   3   2.0000     -56.336405     -1532.9915 
   4   2.0000     -56.336360     -1532.9903 
   5   2.0000     -14.418564      -392.3491 
   6   2.0000     -14.340587      -390.2272 
   7   2.0000     -14.329732      -389.9318 
   8   2.0000     -10.259994      -279.1886 
   9   2.0000     -10.257480      -279.1202 
  10   2.0000     -10.254003      -279.0256 
  11   2.0000     -10.242551      -278.7140 
  12   2.0000     -10.217551      -278.0337 
  13   2.0000     -10.214796      -277.9587 
  14   2.0000      -8.714411      -237.1312 
  15   2.0000      -6.543950      -178.0699 
  16   2.0000      -6.533030      -177.7728 
  17   2.0000      -6.532550      -177.7597 
  18   2.0000      -2.658614       -72.3446 
  19   2.0000      -2.655538       -72.2609 
  20   2.0000      -2.655216       -72.2521 
  21   2.0000      -2.646189       -72.0065 
  22   2.0000      -2.646180       -72.0062 
  23   2.0000      -1.090777       -29.6816 
  24   2.0000      -0.971461       -26.4348 
  25   2.0000      -0.883611       -24.0443 
  26   2.0000      -0.832594       -22.6560 
  27   2.0000      -0.805001       -21.9052 
  28   2.0000      -0.766158       -20.8482 
  29   2.0000      -0.687546       -18.7091 
  30   2.0000      -0.651996       -17.7417 
  31   2.0000      -0.637552       -17.3487 
  32   2.0000      -0.570110       -15.5135 
  33   2.0000      -0.528963       -14.3938 
  34   2.0000      -0.510611       -13.8944 
  35   2.0000      -0.500572       -13.6213 
  36   2.0000      -0.494462       -13.4550 
  37   2.0000      -0.474340       -12.9074 
  38   2.0000      -0.426621       -11.6089 
  39   2.0000      -0.399080       -10.8595 
  40   2.0000      -0.398629       -10.8473 
  41   2.0000      -0.366287        -9.9672 
  42   2.0000      -0.329863        -8.9760 
  43   2.0000      -0.313495        -8.5306 
  44   2.0000      -0.309953        -8.4343 
  45   2.0000      -0.287223        -7.8157 
  46   2.0000      -0.266059        -7.2398 
  47   2.0000      -0.241364        -6.5678 
  48   0.0000      -0.070156        -1.9090 
  49   0.0000      -0.027611        -0.7513 
  50   0.0000      -0.019375        -0.5272 
  51   0.0000       0.022100         0.6014 
  52   0.0000       0.035001         0.9524 
  53   0.0000       0.061189         1.6651 
  54   0.0000       0.066191         1.8011 
  55   0.0000       0.084662         2.3038 
  56   0.0000       0.088108         2.3975 
  57   0.0000       0.096339         2.6215 
  58   0.0000       0.115776         3.1504 
  59   0.0000       0.131386         3.5752 
  60   0.0000       0.147015         4.0005 
  61   0.0000       0.165529         4.5043 
  62   0.0000       0.166227         4.5233 
  63   0.0000       0.187058         5.0901 
  64   0.0000       0.192735         5.2446 
  65   0.0000       0.199326         5.4239 
  66   0.0000       0.205489         5.5916 
  67   0.0000       0.215451         5.8627 
  68   0.0000       0.220783         6.0078 
  69   0.0000       0.230426         6.2702 
  70   0.0000       0.247243         6.7278 
  71   0.0000       0.254235         6.9181 
  72   0.0000       0.256934         6.9915 
  73   0.0000       0.265674         7.2294 
  74   0.0000       0.265795         7.2326 
  75   0.0000       0.278972         7.5912 
  76   0.0000       0.301151         8.1947 
  77   0.0000       0.306284         8.3344 
  78   0.0000       0.332236         9.0406 
  79   0.0000       0.333639         9.0788 
  80   0.0000       0.345658         9.4058 
  81   0.0000       0.347787         9.4638 
  82   0.0000       0.356176         9.6920 
  83   0.0000       0.371175        10.1002 
  84   0.0000       0.378533        10.3004 
  85   0.0000       0.383334        10.4311 
  86   0.0000       0.389953        10.6112 
  87   0.0000       0.393756        10.7147 
  88   0.0000       0.413747        11.2586 
  89   0.0000       0.429653        11.6915 
  90   0.0000       0.431283        11.7358 
  91   0.0000       0.441072        12.0022 
  92   0.0000       0.444131        12.0854 
  93   0.0000       0.479713        13.0537 
  94   0.0000       0.498910        13.5760 
  95   0.0000       0.504419        13.7259 
  96   0.0000       0.509030        13.8514 
  97   0.0000       0.518971        14.1219 
  98   0.0000       0.533696        14.5226 
  99   0.0000       0.538190        14.6449 
 100   0.0000       0.549931        14.9644 
 101   0.0000       0.553629        15.0650 
 102   0.0000       0.562343        15.3021 
 103   0.0000       0.569387        15.4938 
 104   0.0000       0.606345        16.4995 
 105   0.0000       0.610272        16.6063 
 106   0.0000       0.622483        16.9386 
 107   0.0000       0.640366        17.4253 
 108   0.0000       0.651252        17.7215 
 109   0.0000       0.662729        18.0338 
 110   0.0000       0.685384        18.6503 
 111   0.0000       0.701661        19.0932 
 112   0.0000       0.707546        19.2533 
 113   0.0000       0.713051        19.4031 
 114   0.0000       0.726235        19.7619 
 115   0.0000       0.748814        20.3763 
 116   0.0000       0.763114        20.7654 
 117   0.0000       0.792656        21.5693 
 118   0.0000       0.792705        21.5706 
 119   0.0000       0.810557        22.0564 
 120   0.0000       0.852932        23.2095 
 121   0.0000       0.866345        23.5745 
 122   0.0000       0.878805        23.9135 
 123   0.0000       0.886046        24.1105 
 124   0.0000       0.922986        25.1157 
 125   0.0000       0.934646        25.4330 
 126   0.0000       0.974836        26.5266 
 127   0.0000       0.998729        27.1768 
 128   0.0000       1.027132        27.9497 
 129   0.0000       1.046169        28.4677 
 130   0.0000       1.059937        28.8423 
 131   0.0000       1.071910        29.1682 
 132   0.0000       1.074584        29.2409 
 133   0.0000       1.092481        29.7279 
 134   0.0000       1.112797        30.2807 
 135   0.0000       1.124246        30.5923 
 136   0.0000       1.140991        31.0479 
 137   0.0000       1.187521        32.3141 
 138   0.0000       1.211979        32.9796 
 139   0.0000       1.225828        33.3565 
 140   0.0000       1.242510        33.8104 
 141   0.0000       1.267610        34.4934 
 142   0.0000       1.277002        34.7490 
 143   0.0000       1.279449        34.8156 
 144   0.0000       1.310278        35.6545 
 145   0.0000       1.315532        35.7975 
 146   0.0000       1.339285        36.4438 
 147   0.0000       1.349522        36.7224 
 148   0.0000       1.362438        37.0738 
 149   0.0000       1.368770        37.2461 
 150   0.0000       1.387237        37.7486 
 151   0.0000       1.394017        37.9331 
 152   0.0000       1.407607        38.3029 
 153   0.0000       1.433102        38.9967 
 154   0.0000       1.438701        39.1490 
 155   0.0000       1.448775        39.4232 
 156   0.0000       1.460878        39.7525 
 157   0.0000       1.473199        40.0878 
 158   0.0000       1.486663        40.4542 
 159   0.0000       1.508547        41.0497 
 160   0.0000       1.511046        41.1176 
 161   0.0000       1.518545        41.3217 
 162   0.0000       1.536606        41.8132 
 163   0.0000       1.547402        42.1069 
 164   0.0000       1.562963        42.5304 
 165   0.0000       1.593573        43.3633 
 166   0.0000       1.594783        43.3962 
 167   0.0000       1.601314        43.5740 
 168   0.0000       1.611591        43.8536 
 169   0.0000       1.614429        43.9308 
 170   0.0000       1.651028        44.9268 
 171   0.0000       1.667228        45.3676 
 172   0.0000       1.671823        45.4926 
 173   0.0000       1.680277        45.7227 
 174   0.0000       1.682223        45.7756 
 175   0.0000       1.704048        46.3695 
 176   0.0000       1.709551        46.5193 
 177   0.0000       1.746770        47.5320 
 178   0.0000       1.753216        47.7074 
 179   0.0000       1.791259        48.7426 
 180   0.0000       1.812562        49.3223 
 181   0.0000       1.822803        49.6010 
 182   0.0000       1.846187        50.2373 
 183   0.0000       1.849675        50.3322 
 184   0.0000       1.859205        50.5915 
 185   0.0000       1.902239        51.7625 
 186   0.0000       1.906339        51.8741 
 187   0.0000       1.915270        52.1171 
 188   0.0000       1.952570        53.1321 
 189   0.0000       1.997724        54.3608 
 190   0.0000       2.005961        54.5850 
 191   0.0000       2.037599        55.4459 
 192   0.0000       2.049297        55.7642 
 193   0.0000       2.069488        56.3136 
 194   0.0000       2.086110        56.7659 
 195   0.0000       2.109177        57.3936 
 196   0.0000       2.174490        59.1709 
 197   0.0000       2.200210        59.8708 
 198   0.0000       2.200325        59.8739 
 199   0.0000       2.234657        60.8081 
 200   0.0000       2.259908        61.4952 
 201   0.0000       2.305418        62.7336 
 202   0.0000       2.308192        62.8091 
 203   0.0000       2.334018        63.5119 
 204   0.0000       2.374054        64.6013 
 205   0.0000       2.383241        64.8513 
 206   0.0000       2.386003        64.9264 
 207   0.0000       2.443977        66.5040 
 208   0.0000       2.469542        67.1996 
 209   0.0000       2.509153        68.2775 
 210   0.0000       2.515274        68.4441 
 211   0.0000       2.553628        69.4878 
 212   0.0000       2.563244        69.7494 
 213   0.0000       2.593559        70.5743 
 214   0.0000       2.613615        71.1201 
 215   0.0000       2.616271        71.1924 
 216   0.0000       2.661384        72.4199 
 217   0.0000       2.684371        73.0455 
 218   0.0000       2.706803        73.6559 
 219   0.0000       2.715123        73.8822 
 220   0.0000       2.716590        73.9222 
 221   0.0000       2.727960        74.2316 
 222   0.0000       2.767701        75.3130 
 223   0.0000       2.784303        75.7647 
 224   0.0000       2.795300        76.0640 
 225   0.0000       2.823272        76.8251 
 226   0.0000       2.834040        77.1182 
 227   0.0000       2.843625        77.3790 
 228   0.0000       2.890592        78.6570 
 229   0.0000       2.899767        78.9067 
 230   0.0000       2.919109        79.4330 
 231   0.0000       2.926809        79.6425 
 232   0.0000       2.939634        79.9915 
 233   0.0000       2.958980        80.5179 
 234   0.0000       2.967790        80.7577 
 235   0.0000       2.993425        81.4552 
 236   0.0000       3.002089        81.6910 
 237   0.0000       3.004978        81.7696 
 238   0.0000       3.053889        83.1005 
 239   0.0000       3.067262        83.4644 
 240   0.0000       3.074173        83.6525 
 241   0.0000       3.103246        84.4436 
 242   0.0000       3.103734        84.4569 
 243   0.0000       3.148538        85.6761 
 244   0.0000       3.150144        85.7198 
 245   0.0000       3.183050        86.6152 
 246   0.0000       3.202424        87.1424 
 247   0.0000       3.209864        87.3449 
 248   0.0000       3.211339        87.3850 
 249   0.0000       3.246013        88.3285 
 250   0.0000       3.254396        88.5566 
 251   0.0000       3.291669        89.5709 
 252   0.0000       3.292320        89.5886 
 253   0.0000       3.308177        90.0201 
 254   0.0000       3.333805        90.7174 
 255   0.0000       3.356478        91.3344 
 256   0.0000       3.369540        91.6898 
 257   0.0000       3.376117        91.8688 
 258   0.0000       3.401070        92.5478 
 259   0.0000       3.419470        93.0485 
 260   0.0000       3.431150        93.3663 
 261   0.0000       3.450628        93.8964 
 262   0.0000       3.483626        94.7943 
 263   0.0000       3.508219        95.4635 
 264   0.0000       3.520508        95.7979 
 265   0.0000       3.532359        96.1204 
 266   0.0000       3.558933        96.8435 
 267   0.0000       3.611653        98.2781 
 268   0.0000       3.628588        98.7389 
 269   0.0000       3.668061        99.8130 
 270   0.0000       3.690317       100.4186 
 271   0.0000       3.739571       101.7589 
 272   0.0000       3.746410       101.9450 
 273   0.0000       3.762690       102.3880 
 274   0.0000       3.783374       102.9509 
 275   0.0000       3.831491       104.2602 
 276   0.0000       3.845950       104.6536 
 277   0.0000       3.861023       105.0638 
 278   0.0000       3.893407       105.9450 
 279   0.0000       3.922734       106.7430 
 280   0.0000       3.932298       107.0033 
 281   0.0000       3.972380       108.0940 
 282   0.0000       3.982117       108.3589 
 283   0.0000       4.001505       108.8865 
 284   0.0000       4.036377       109.8354 
 285   0.0000       4.055814       110.3643 
 286   0.0000       4.072414       110.8160 
 287   0.0000       4.123630       112.2097 
 288   0.0000       4.148840       112.8957 
 289   0.0000       4.167924       113.4150 
 290   0.0000       4.211494       114.6006 
 291   0.0000       4.221989       114.8861 
 292   0.0000       4.257503       115.8526 
 293   0.0000       4.275619       116.3455 
 294   0.0000       4.312173       117.3402 
 295   0.0000       4.318013       117.4991 
 296   0.0000       4.374147       119.0266 
 297   0.0000       4.408090       119.9502 
 298   0.0000       4.463945       121.4701 
 299   0.0000       4.481545       121.9490 
 300   0.0000       4.543709       123.6406 
 301   0.0000       4.644080       126.3718 
 302   0.0000       4.665821       126.9634 
 303   0.0000       4.674708       127.2053 
 304   0.0000       4.731209       128.7427 
 305   0.0000       4.744830       129.1134 
 306   0.0000       4.760107       129.5291 
 307   0.0000       4.774907       129.9318 
 308   0.0000       4.789519       130.3294 
 309   0.0000       4.846947       131.8921 
 310   0.0000       4.866138       132.4143 
 311   0.0000       4.923099       133.9643 
 312   0.0000       4.963218       135.0560 
 313   0.0000       5.003907       136.1632 
 314   0.0000       5.008079       136.2768 
 315   0.0000       5.015522       136.4793 
 316   0.0000       5.038669       137.1091 
 317   0.0000       5.066919       137.8779 
 318   0.0000       5.087089       138.4267 
 319   0.0000       5.114458       139.1715 
 320   0.0000       5.122322       139.3855 
 321   0.0000       5.165199       140.5522 
 322   0.0000       5.231055       142.3443 
 323   0.0000       5.232110       142.3730 
 324   0.0000       5.253262       142.9485 
 325   0.0000       5.312592       144.5630 
 326   0.0000       5.337970       145.2536 
 327   0.0000       5.365715       146.0085 
 328   0.0000       5.406415       147.1160 
 329   0.0000       5.442889       148.1085 
 330   0.0000       5.513294       150.0243 
 331   0.0000       5.605011       152.5201 
 332   0.0000       5.686807       154.7459 
 333   0.0000       5.712102       155.4342 
 334   0.0000       5.813906       158.2044 
 335   0.0000       5.857123       159.3804 
 336   0.0000       5.900826       160.5696 
 337   0.0000       6.018767       163.7790 
 338   0.0000       6.253539       170.1675 
 339   0.0000       6.472330       176.1211 
 340   0.0000       6.944635       188.9731 
 341   0.0000       7.745323       210.7610 
 342   0.0000      22.271329       606.0337 
 343   0.0000      22.534798       613.2030 
 344   0.0000      22.754265       619.1750 
 345   0.0000      22.842818       621.5847 
 346   0.0000      22.975815       625.2037 
 347   0.0000      23.356842       635.5720 
 348   0.0000      32.092171       873.2724 
 349   0.0000      32.311733       879.2470 
 350   0.0000      32.957637       896.8229 

                    ********************************
                    * MULLIKEN POPULATION ANALYSIS *
                    ********************************

-----------------------
MULLIKEN ATOMIC CHARGES
-----------------------
   0 Br:   -0.052455
   1 C :    0.105613
   2 C :   -0.154167
   3 C :   -0.063232
   4 N :   -0.031497
   5 C :   -0.021241
   6 N :   -0.144463
   7 N :   -0.110693
   8 C :    0.141944
   9 C :   -0.249861
  10 H :    0.144544
  11 H :    0.145155
  12 H :    0.142833
  13 H :    0.147520
Sum of atomic charges:   -0.0000000

--------------------------------
MULLIKEN REDUCED ORBITAL CHARGES
--------------------------------
  0 Brs       :     7.912587  s :     7.912587
      pz      :     5.926996  p :    17.076832
      px      :     5.193299
      py      :     5.956537
      dz2     :     2.006576  d :    10.055190
      dxz     :     2.019036
      dyz     :     2.000762
      dx2y2   :     2.018751
      dxy     :     2.010064
      f0      :     0.000848  f :     0.007845
      f+1     :     0.001521
      f-1     :     0.000135
      f+2     :     0.001176
      f-2     :     0.000121
      f+3     :     0.002438
      f-3     :     0.001608
  1 C s       :     3.209577  s :     3.209577
      pz      :     0.983649  p :     2.524766
      px      :     0.736045
      py      :     0.805071
      dz2     :     0.007591  d :     0.150429
      dxz     :     0.026194
      dyz     :     0.026051
      dx2y2   :     0.053223
      dxy     :     0.037370
      f0      :     0.001874  f :     0.009616
      f+1     :     0.000865
      f-1     :     0.000526
      f+2     :     0.000742
      f-2     :     0.001110
      f+3     :     0.001801
      f-3     :     0.002697
  2 C s       :     3.184341  s :     3.184341
      pz      :     1.005533  p :     2.883876
      px      :     0.962357
      py      :     0.915986
      dz2     :     0.005756  d :     0.078398
      dxz     :     0.015366
      dyz     :     0.014300
      dx2y2   :     0.012805
      dxy     :     0.030172
      f0      :     0.001637  f :     0.007552
      f+1     :     0.000571
      f-1     :     0.000693
      f+2     :     0.001214
      f-2     :     0.000177
      f+3     :     0.001381
      f-3     :     0.001878
  3 C s       :     3.187075  s :     3.187075
      pz      :     0.989564  p :     2.762194
      px      :     0.878884
      py      :     0.893747
      dz2     :     0.004269  d :     0.103424
      dxz     :     0.029973
      dyz     :     0.012862
      dx2y2   :     0.020353
      dxy     :     0.035968
      f0      :     0.001908  f :     0.010539
      f+1     :     0.000707
      f-1     :     0.000950
      f+2     :     0.000624
      f-2     :     0.001551
      f+3     :     0.002302
      f-3     :     0.002495
  4 N s       :     3.459231  s :     3.459231
      pz      :     1.387447  p :     3.469712
      px      :     1.036079
      py      :     1.046186
      dz2     :     0.006541  d :     0.096675
      dxz     :     0.022560
      dyz     :     0.014886
      dx2y2   :     0.027158
      dxy     :     0.025530
      f0      :     0.000978  f :     0.005879
      f+1     :     0.000579
      f-1     :     0.000598
      f+2     :     0.000751
      f-2     :     0.000478
      f+3     :     0.000930
      f-3     :     0.001564
  5 C s       :     3.164513  s :     3.164513
      pz      :     1.043287  p :     2.718107
      px      :     0.741919
      py      :     0.932901
      dz2     :     0.003798  d :     0.123762
      dxz     :     0.024944
      dyz     :     0.021464
      dx2y2   :     0.031944
      dxy     :     0.041614
      f0      :     0.002222  f :     0.014858
      f+1     :     0.001197
      f-1     :     0.001124
      f+2     :     0.002721
      f-2     :     0.000122
      f+3     :     0.003849
      f-3     :     0.003623
  6 N s       :     3.623785  s :     3.623785
      pz      :     1.099186  p :     3.433042
      px      :     1.320685
      py      :     1.013171
      dz2     :     0.006918  d :     0.082030
      dxz     :     0.013895
      dyz     :     0.018979
      dx2y2   :     0.022278
      dxy     :     0.019961
      f0      :     0.000760  f :     0.005606
      f+1     :     0.000526
      f-1     :     0.000374
      f+2     :     0.000572
      f-2     :     0.000740
      f+3     :     0.001466
      f-3     :     0.001168
  7 N s       :     3.557442  s :     3.557442
      pz      :     1.177784  p :     3.469075
      px      :     0.881671
      py      :     1.409620
      dz2     :     0.006928  d :     0.078802
      dxz     :     0.015442
      dyz     :     0.012865
      dx2y2   :     0.019279
      dxy     :     0.024289
      f0      :     0.000745  f :     0.005374
      f+1     :     0.000531
      f-1     :     0.000420
      f+2     :     0.000098
      f-2     :     0.000962
      f+3     :     0.001409
      f-3     :     0.001208
  8 C s       :     3.042833  s :     3.042833
      pz      :     0.971727  p :     2.630737
      px      :     0.903957
      py      :     0.755053
      dz2     :     0.002683  d :     0.166261
      dxz     :     0.039987
      dyz     :     0.032355
      dx2y2   :     0.055845
      dxy     :     0.035390
      f0      :     0.002623  f :     0.018224
      f+1     :     0.001195
      f-1     :     0.001308
      f+2     :     0.001736
      f-2     :     0.002015
      f+3     :     0.005213
      f-3     :     0.004135
  9 C s       :     3.300863  s :     3.300863
      pz      :     0.969971  p :     2.862879
      px      :     0.935826
      py      :     0.957082
      dz2     :     0.005078  d :     0.078892
      dxz     :     0.020770
      dyz     :     0.009051
      dx2y2   :     0.023224
      dxy     :     0.020770
      f0      :     0.001566  f :     0.007227
      f+1     :     0.000572
      f-1     :     0.000666
      f+2     :     0.000583
      f-2     :     0.000658
      f+3     :     0.001356
      f-3     :     0.001825
 10 H s       :     0.832390  s :     0.832390
      pz      :     0.005086  p :     0.023066
      px      :     0.008195
      py      :     0.009785
 11 H s       :     0.832467  s :     0.832467
      pz      :     0.004850  p :     0.022378
      px      :     0.004621
      py      :     0.012907
 12 H s       :     0.835054  s :     0.835054
      pz      :     0.005193  p :     0.022113
      px      :     0.007219
      py      :     0.009701
 13 H s       :     0.829725  s :     0.829725
      pz      :     0.004673  p :     0.022755
      px      :     0.004350
      py      :     0.013732


                     *******************************
                     * LOEWDIN POPULATION ANALYSIS *
                     *******************************

----------------------
LOEWDIN ATOMIC CHARGES
----------------------
   0 Br:    0.370066
   1 C :   -0.384107
   2 C :   -0.155623
   3 C :   -0.138986
   4 N :    0.301049
   5 C :   -0.295864
   6 N :    0.043440
   7 N :    0.041901
   8 C :   -0.278478
   9 C :   -0.101720
  10 H :    0.154341
  11 H :    0.149518
  12 H :    0.133711
  13 H :    0.160751

-------------------------------
LOEWDIN REDUCED ORBITAL CHARGES
-------------------------------
  0 Brs       :     7.582163  s :     7.582163
      pz      :     5.860789  p :    16.910109
      px      :     5.191509
      py      :     5.857810
      dz2     :     2.015543  d :    10.122016
      dxz     :     2.036155
      dyz     :     2.001062
      dx2y2   :     2.042356
      dxy     :     2.026901
      f0      :     0.001549  f :     0.015646
      f+1     :     0.002867
      f-1     :     0.000282
      f+2     :     0.002256
      f-2     :     0.000190
      f+3     :     0.004840
      f-3     :     0.003661
  1 C s       :     2.784668  s :     2.784668
      pz      :     0.912179  p :     2.980546
      px      :     0.978556
      py      :     1.089811
      dz2     :     0.038778  d :     0.563106
      dxz     :     0.076501
      dyz     :     0.083364
      dx2y2   :     0.209279
      dxy     :     0.155183
      f0      :     0.003910  f :     0.055787
      f+1     :     0.004324
      f-1     :     0.004668
      f+2     :     0.004724
      f-2     :     0.007554
      f+3     :     0.012356
      f-3     :     0.018250
  2 C s       :     2.766500  s :     2.766500
      pz      :     0.915240  p :     2.968202
      px      :     1.056788
      py      :     0.996174
      dz2     :     0.026953  d :     0.376725
      dxz     :     0.050644
      dyz     :     0.044907
      dx2y2   :     0.101422
      dxy     :     0.152800
      f0      :     0.003513  f :     0.044195
      f+1     :     0.004474
      f-1     :     0.003885
      f+2     :     0.008363
      f-2     :     0.001445
      f+3     :     0.010028
      f-3     :     0.012487
  3 C s       :     2.763488  s :     2.763488
      pz      :     0.913358  p :     2.862712
      px      :     1.023414
      py      :     0.925941
      dz2     :     0.029885  d :     0.451622
      dxz     :     0.093307
      dyz     :     0.034339
      dx2y2   :     0.129529
      dxy     :     0.164562
      f0      :     0.004665  f :     0.061163
      f+1     :     0.005578
      f-1     :     0.004987
      f+2     :     0.004716
      f-2     :     0.009860
      f+3     :     0.014579
      f-3     :     0.016778
  4 N s       :     2.844895  s :     2.844895
      pz      :     1.197985  p :     3.485059
      px      :     1.147337
      py      :     1.139737
      dz2     :     0.020908  d :     0.343779
      dxz     :     0.064203
      dyz     :     0.045119
      dx2y2   :     0.114744
      dxy     :     0.098804
      f0      :     0.001428  f :     0.025218
      f+1     :     0.001885
      f-1     :     0.001905
      f+2     :     0.004424
      f-2     :     0.002531
      f+3     :     0.003864
      f-3     :     0.009180
  5 C s       :     2.789166  s :     2.789166
      pz      :     0.976277  p :     2.881846
      px      :     0.881012
      py      :     1.024557
      dz2     :     0.042524  d :     0.536907
      dxz     :     0.079552
      dyz     :     0.056765
      dx2y2   :     0.153824
      dxy     :     0.204241
      f0      :     0.005689  f :     0.087946
      f+1     :     0.006751
      f-1     :     0.006459
      f+2     :     0.018582
      f-2     :     0.001580
      f+3     :     0.023124
      f-3     :     0.025762
  6 N s       :     3.120763  s :     3.120763
      pz      :     1.031019  p :     3.536606
      px      :     1.325761
      py      :     1.179826
      dz2     :     0.023889  d :     0.270590
      dxz     :     0.021816
      dyz     :     0.056345
      dx2y2   :     0.084588
      dxy     :     0.083952
      f0      :     0.001437  f :     0.028601
      f+1     :     0.001544
      f-1     :     0.002441
      f+2     :     0.002582
      f-2     :     0.003842
      f+3     :     0.009710
      f-3     :     0.007046
  7 N s       :     3.113985  s :     3.113985
      pz      :     1.101130  p :     3.561370
      px      :     1.050746
      py      :     1.409494
      dz2     :     0.023847  d :     0.254758
      dxz     :     0.049433
      dyz     :     0.016360
      dx2y2   :     0.077164
      dxy     :     0.087955
      f0      :     0.001535  f :     0.027986
      f+1     :     0.002801
      f-1     :     0.001218
      f+2     :     0.000156
      f-2     :     0.005270
      f+3     :     0.009678
      f-3     :     0.007328
  8 C s       :     2.711402  s :     2.711402
      pz      :     0.890080  p :     2.771414
      px      :     1.007297
      py      :     0.874037
      dz2     :     0.053261  d :     0.693731
      dxz     :     0.105970
      dyz     :     0.101161
      dx2y2   :     0.223776
      dxy     :     0.209562
      f0      :     0.006027  f :     0.101931
      f+1     :     0.006707
      f-1     :     0.007161
      f+2     :     0.010546
      f-2     :     0.014686
      f+3     :     0.031784
      f-3     :     0.025021
  9 C s       :     2.763853  s :     2.763853
      pz      :     0.885874  p :     2.927235
      px      :     1.026317
      py      :     1.015045
      dz2     :     0.026100  d :     0.367104
      dxz     :     0.072853
      dyz     :     0.022306
      dx2y2   :     0.140005
      dxy     :     0.105839
      f0      :     0.003628  f :     0.043528
      f+1     :     0.004551
      f-1     :     0.003759
      f+2     :     0.004138
      f-2     :     0.005392
      f+3     :     0.009658
      f-3     :     0.012401
 10 H s       :     0.785109  s :     0.785109
      pz      :     0.014349  p :     0.060550
      px      :     0.020809
      py      :     0.025392
 11 H s       :     0.789778  s :     0.789778
      pz      :     0.014173  p :     0.060703
      px      :     0.013166
      py      :     0.033364
 12 H s       :     0.803452  s :     0.803452
      pz      :     0.015674  p :     0.062838
      px      :     0.020386
      py      :     0.026778
 13 H s       :     0.778550  s :     0.778550
      pz      :     0.013491  p :     0.060699
      px      :     0.012560
      py      :     0.034648


                      *****************************
                      * MAYER POPULATION ANALYSIS *
                      *****************************

  NA   - Mulliken gross atomic population
  ZA   - Total nuclear charge
  QA   - Mulliken gross atomic charge
  VA   - Mayer's total valence
  BVA  - Mayer's bonded valence
  FA   - Mayer's free valence

  ATOM       NA         ZA         QA         VA         BVA        FA
  0 Br    35.0525    35.0000    -0.0525     1.2099     1.2099    -0.0000
  1 C      5.8944     6.0000     0.1056     3.8702     3.8702    -0.0000
  2 C      6.1542     6.0000    -0.1542     3.8868     3.8868    -0.0000
  3 C      6.0632     6.0000    -0.0632     3.9377     3.9377     0.0000
  4 N      7.0315     7.0000    -0.0315     3.4548     3.4548     0.0000
  5 C      6.0212     6.0000    -0.0212     4.0004     4.0004     0.0000
  6 N      7.1445     7.0000    -0.1445     3.0414     3.0414     0.0000
  7 N      7.1107     7.0000    -0.1107     3.1105     3.1105     0.0000
  8 C      5.8581     6.0000     0.1419     4.1295     4.1295    -0.0000
  9 C      6.2499     6.0000    -0.2499     3.9374     3.9374    -0.0000
 10 H      0.8555     1.0000     0.1445     0.9735     0.9735    -0.0000
 11 H      0.8548     1.0000     0.1452     0.9709     0.9709     0.0000
 12 H      0.8572     1.0000     0.1428     0.9819     0.9819     0.0000
 13 H      0.8525     1.0000     0.1475     0.9825     0.9825    -0.0000

  Mayer bond orders larger than 0.100000
B(  0-Br,  1-C ) :   1.0473 B(  1-C ,  2-C ) :   1.1519 B(  1-C ,  9-C ) :   1.5561 
B(  2-C ,  3-C ) :   1.6560 B(  2-C , 10-H ) :   0.9529 B(  3-C ,  4-N ) :   1.1395 
B(  3-C , 11-H ) :   0.9464 B(  4-N ,  5-C ) :   1.1630 B(  4-N ,  8-C ) :   1.0724 
B(  5-C ,  6-N ) :   1.7185 B(  5-C , 12-H ) :   0.9584 B(  6-N ,  7-N ) :   1.1779 
B(  7-N ,  8-C ) :   1.7338 B(  8-C ,  9-C ) :   1.1875 B(  9-C , 13-H ) :   0.9697 


-------
TIMINGS
-------

Total SCF time: 0 days 0 hours 0 min 25 sec 

Total time                  ....      25.275 sec
Sum of individual times     ....      24.636 sec  ( 97.5%)

Fock matrix formation       ....      22.365 sec  ( 88.5%)
  Split-RI-J                ....       2.428 sec  ( 10.9% of F)
  Chain of spheres X        ....      16.645 sec  ( 74.4% of F)
  XC integration            ....       3.056 sec  ( 13.7% of F)
    Basis function eval.    ....       0.775 sec  ( 25.4% of XC)
    Density eval.           ....       0.784 sec  ( 25.6% of XC)
    XC-Functional eval.     ....       0.091 sec  (  3.0% of XC)
    XC-Potential eval.      ....       1.119 sec  ( 36.6% of XC)
Diagonalization             ....       0.310 sec  (  1.2%)
Density matrix formation    ....       0.020 sec  (  0.1%)
Population analysis         ....       0.036 sec  (  0.1%)
Initial guess               ....       0.227 sec  (  0.9%)
Orbital Transformation      ....       0.000 sec  (  0.0%)
Orbital Orthonormalization  ....       0.000 sec  (  0.0%)
DIIS solution               ....       0.157 sec  (  0.6%)
SOSCF solution              ....       0.181 sec  (  0.7%)
Grid generation             ....       1.340 sec  (  5.3%)

Maximum memory used throughout the entire SCF-calculation: 82.0 MB

-------------------------   --------------------
FINAL SINGLE POINT ENERGY     -2969.227301523352
-------------------------   --------------------


                            ***************************************
                            *     ORCA property calculations      *
                            ***************************************

                                    ---------------------
                                    Active property flags
                                    ---------------------
   (+) Dipole Moment
   (+) Chemical Shifts
   (+) Nuclear properties (Hyperfine,Quadrupole)


------------------------------------------------------------------------------
                       ORCA ELECTRIC PROPERTIES CALCULATION
------------------------------------------------------------------------------

Dipole Moment Calculation                       ... on
Quadrupole Moment Calculation                   ... off
Polarizability Calculation                      ... off
GBWName                                         ... arbr_24_r2scan3c_nmr.gbw
Electron density                                ... arbr_24_r2scan3c_nmr.scfp
The origin for moment calculation is the CENTER OF MASS  = ( 0.285157, -0.058238  0.000001)

-------------
DIPOLE MOMENT
-------------
                                X             Y             Z
Electronic contribution:     28.15239      -3.74342       0.00001
Nuclear contribution   :    -27.37487       5.59077      -0.00006
                        -----------------------------------------
Total Dipole Moment    :      0.77752       1.84735      -0.00005
                        -----------------------------------------
Magnitude (a.u.)       :      2.00430
Magnitude (Debye)      :      5.09453



--------------------
Rotational spectrum 
--------------------
 
Rotational constants in cm-1:     0.116740     0.015828     0.013938 
Rotational constants in MHz :  3499.776644   474.508313   417.854565 

 Dipole components along the rotational axes: 
x,y,z [a.u.] :    -0.785550     1.843947    -0.000045 
x,y,z [Debye]:    -1.996709     4.686940    -0.000113 

 


           ************************************************************
           *        Program running with 16 parallel MPI-processes    *
           *              working on a common directory               *
           ************************************************************
------------------------------------------------------------------------------
                                ORCA EPR/NMR CALCULATION
------------------------------------------------------------------------------

GBWName                      ... arbr_24_r2scan3c_nmr.gbw
Electron density             ... arbr_24_r2scan3c_nmr.scfp
Spin density                 ... arbr_24_r2scan3c_nmr.scfr
Treatment of gauge           ... GIAO (approximations 1/2el = 0,0)
Details of the CP(SCF) procedure:
       Solver   = POPLE   
       MaxIter  =    64   
       Tolerance=    1.000e-03
       COSX Grid=     1   
       Op-0     =   0- 47 =>  48-350
Multiplicity                 ... 1
g-tensor                     ... 0
NMR chemical shifts          ... 1
NMR spin-spin couplings      ... 0
NMR spectrum                 ... 0
Number of nuclei for epr/nmr ... 14
   Nucleus:   0Br
       Hyperfine : Isotope=   79 I=   1.500 P= 134.140
       Quadrupole: Isotope=   79 I=   1.500 Q=   0.313
       Spin-Orbit: Zeff=  30.100
       Nuclear Spin-Spin: Gn=   0.000
       EPRNMR Input: 
       rho(0)=N f(grad)=N a(iso)=N a(dip)=N a(orb)=N sigma(nmr)=Y spin-spin(nmr)=all-N,DSO-N,PSO-N,FC-N,SD-N
   Nucleus:   1C 
       Hyperfine : Isotope=   13 I=   0.500 P= 134.188
       Quadrupole: Isotope=   13 I=   0.500 Q=   0.000
       Spin-Orbit: Zeff=   3.600
       Nuclear Spin-Spin: Gn=   0.000
       EPRNMR Input: 
       rho(0)=N f(grad)=N a(iso)=N a(dip)=N a(orb)=N sigma(nmr)=Y spin-spin(nmr)=all-N,DSO-N,PSO-N,FC-N,SD-N
   Nucleus:   2C 
       Hyperfine : Isotope=   13 I=   0.500 P= 134.188
       Quadrupole: Isotope=   13 I=   0.500 Q=   0.000
       Spin-Orbit: Zeff=   3.600
       Nuclear Spin-Spin: Gn=   0.000
       EPRNMR Input: 
       rho(0)=N f(grad)=N a(iso)=N a(dip)=N a(orb)=N sigma(nmr)=Y spin-spin(nmr)=all-N,DSO-N,PSO-N,FC-N,SD-N
   Nucleus:   3C 
       Hyperfine : Isotope=   13 I=   0.500 P= 134.188
       Quadrupole: Isotope=   13 I=   0.500 Q=   0.000
       Spin-Orbit: Zeff=   3.600
       Nuclear Spin-Spin: Gn=   0.000
       EPRNMR Input: 
       rho(0)=N f(grad)=N a(iso)=N a(dip)=N a(orb)=N sigma(nmr)=Y spin-spin(nmr)=all-N,DSO-N,PSO-N,FC-N,SD-N
   Nucleus:   4N 
       Hyperfine : Isotope=   14 I=   1.000 P=  38.571
       Quadrupole: Isotope=   14 I=   1.000 Q=   0.020
       Spin-Orbit: Zeff=   4.550
       Nuclear Spin-Spin: Gn=   0.000
       EPRNMR Input: 
       rho(0)=N f(grad)=N a(iso)=N a(dip)=N a(orb)=N sigma(nmr)=Y spin-spin(nmr)=all-N,DSO-N,PSO-N,FC-N,SD-N
   Nucleus:   5C 
       Hyperfine : Isotope=   13 I=   0.500 P= 134.188
       Quadrupole: Isotope=   13 I=   0.500 Q=   0.000
       Spin-Orbit: Zeff=   3.600
       Nuclear Spin-Spin: Gn=   0.000
       EPRNMR Input: 
       rho(0)=N f(grad)=N a(iso)=N a(dip)=N a(orb)=N sigma(nmr)=Y spin-spin(nmr)=all-N,DSO-N,PSO-N,FC-N,SD-N
   Nucleus:   6N 
       Hyperfine : Isotope=   14 I=   1.000 P=  38.571
       Quadrupole: Isotope=   14 I=   1.000 Q=   0.020
       Spin-Orbit: Zeff=   4.550
       Nuclear Spin-Spin: Gn=   0.000
       EPRNMR Input: 
       rho(0)=N f(grad)=N a(iso)=N a(dip)=N a(orb)=N sigma(nmr)=Y spin-spin(nmr)=all-N,DSO-N,PSO-N,FC-N,SD-N
   Nucleus:   7N 
       Hyperfine : Isotope=   14 I=   1.000 P=  38.571
       Quadrupole: Isotope=   14 I=   1.000 Q=   0.020
       Spin-Orbit: Zeff=   4.550
       Nuclear Spin-Spin: Gn=   0.000
       EPRNMR Input: 
       rho(0)=N f(grad)=N a(iso)=N a(dip)=N a(orb)=N sigma(nmr)=Y spin-spin(nmr)=all-N,DSO-N,PSO-N,FC-N,SD-N
   Nucleus:   8C 
       Hyperfine : Isotope=   13 I=   0.500 P= 134.188
       Quadrupole: Isotope=   13 I=   0.500 Q=   0.000
       Spin-Orbit: Zeff=   3.600
       Nuclear Spin-Spin: Gn=   0.000
       EPRNMR Input: 
       rho(0)=N f(grad)=N a(iso)=N a(dip)=N a(orb)=N sigma(nmr)=Y spin-spin(nmr)=all-N,DSO-N,PSO-N,FC-N,SD-N
   Nucleus:   9C 
       Hyperfine : Isotope=   13 I=   0.500 P= 134.188
       Quadrupole: Isotope=   13 I=   0.500 Q=   0.000
       Spin-Orbit: Zeff=   3.600
       Nuclear Spin-Spin: Gn=   0.000
       EPRNMR Input: 
       rho(0)=N f(grad)=N a(iso)=N a(dip)=N a(orb)=N sigma(nmr)=Y spin-spin(nmr)=all-N,DSO-N,PSO-N,FC-N,SD-N
   Nucleus:  10H 
       Hyperfine : Isotope=    1 I=   0.500 P= 533.552
       Quadrupole: Isotope=    2 I=   1.000 Q=   0.003
       Spin-Orbit: Zeff=   1.000
       Nuclear Spin-Spin: Gn=   0.000
       EPRNMR Input: 
       rho(0)=N f(grad)=N a(iso)=N a(dip)=N a(orb)=N sigma(nmr)=Y spin-spin(nmr)=all-N,DSO-N,PSO-N,FC-N,SD-N
   Nucleus:  11H 
       Hyperfine : Isotope=    1 I=   0.500 P= 533.552
       Quadrupole: Isotope=    2 I=   1.000 Q=   0.003
       Spin-Orbit: Zeff=   1.000
       Nuclear Spin-Spin: Gn=   0.000
       EPRNMR Input: 
       rho(0)=N f(grad)=N a(iso)=N a(dip)=N a(orb)=N sigma(nmr)=Y spin-spin(nmr)=all-N,DSO-N,PSO-N,FC-N,SD-N
   Nucleus:  12H 
       Hyperfine : Isotope=    1 I=   0.500 P= 533.552
       Quadrupole: Isotope=    2 I=   1.000 Q=   0.003
       Spin-Orbit: Zeff=   1.000
       Nuclear Spin-Spin: Gn=   0.000
       EPRNMR Input: 
       rho(0)=N f(grad)=N a(iso)=N a(dip)=N a(orb)=N sigma(nmr)=Y spin-spin(nmr)=all-N,DSO-N,PSO-N,FC-N,SD-N
   Nucleus:  13H 
       Hyperfine : Isotope=    1 I=   0.500 P= 533.552
       Quadrupole: Isotope=    2 I=   1.000 Q=   0.003
       Spin-Orbit: Zeff=   1.000
       Nuclear Spin-Spin: Gn=   0.000
       EPRNMR Input: 
       rho(0)=N f(grad)=N a(iso)=N a(dip)=N a(orb)=N sigma(nmr)=Y spin-spin(nmr)=all-N,DSO-N,PSO-N,FC-N,SD-N
Forming RHS of the CP-SCF equations         ... 
Calculating right hand sides for GIAO treatment        ... 
  Entering RightHandSide GIAO. ScalHFX=    0.2000 NeedHFX=1
     -> 1-electron GIAO integrals will be done analytically
     -> RIJCOSX used in SCF. Same chosen for GIAO calculation.
     Making grid for GIAO integrations   ...

GRID GIAO
---------

General Integration Accuracy     IntAcc      ... 4.388
Radial Grid Type                 RadialGrid  ... OptM3 with GC (2021)
Angular Grid (max. ang.)         AngularGrid ... 4 (Lebedev-302)
Angular grid pruning method      GridPruning ... 4 (adaptive)
Weight generation scheme         WeightScheme... Becke
Basis function cutoff            BFCut       ... 1.0000e-10
Integration weight cutoff        WCut        ... 1.0000e-14
Angular grids for H and He will be reduced by one unit
Partially contracted basis set               ... off
Rotationally invariant grid construction     ... off

Total number of grid points                  ...    78308
Total number of batches                      ...     1229
Average number of points per batch           ...       63
Average number of grid points per atom       ...     5593

  One-electron GIAO integrals (SHARK)     ... done
  Calculating G(B)[P]                     ... (RI-J: SHARK-ok) (COSX-ok) (add-J+K:ok) => dG/dB done
  DFT XC-terms                            ... done
  Extracting occupied and virtual blocks  ... 
  Operator  0  NO=  48 NV= 303 
  Transforming and RHS contribution       ... done
  Adding eps_i * S(B)_ai terms            ... done
  Projecting overlap derivatives          ... done
  Building G[dS/dB_ij] (COSX)             ... done
  Transforming to MO basis                ... done
  Summing G[dS/dB_ij] into RHS contribs.  ... done

  GIAO profiling information: 
    Total GIAO time               ...       8.4 sec
       GIAO 1-electron integrals  ...       0.0 sec (  0.6%)
       GIAO G(dS/dB) terms        ...       0.7 sec (  8.9%)
       GIAO RI-J                  ...       1.2 sec ( 14.0%)
       GIAO COSX                  ...       2.5 sec ( 29.5%)
       GIAO XC-terms              ...       3.2 sec ( 38.4%)
       Right hand side assembly   ...       0.0 sec (  0.5%)

  GIAO right hand side done


------------------------------------------------------------------------------
                           ORCA CP-SCF CALCULATION
------------------------------------------------------------------------------

Input orbitals are from        ... arbr_24_r2scan3c_nmr.gbw
Input Perturbation             ... arbr_24_r2scan3c_nmr.pin.tmp
Wavefunction output            ... arbr_24_r2scan3c_nmr.pout.tmp
Perturbation mode              ... Imaginary perturbation
Solver                         ... POPLE
Max. number of iterations      ... 64
Convergence tolerance          ... 1.000e-03
Integral handling              ... Direct
DFT GridXC                     ... 1
COSX GridX                     ... 1
COSX IntAccX                   ... 3.067
COSX Algorithm                 ... Auto
Number of perturbations        ... 3
Number of operators            ... 1
Orbital ranges used for CP-SCF:
 Operator 0:  Orbitals   0... 47  to  48...350
Variables per perturbation     ... 14544
DFT calculation                         ... on
XC functional terms                     ... off
Hybrid DFT                              ... on
   Exchange mixing (SCF)                ...  0.200
   Exchange mixing (CP-SCF)             ...  0.200
   GGA exch. scaling(SCF)               ...  0.720
   GGA exch. scaling (CP-SCF)           ...  0.720
   GGA corr. scaling (SCF)              ...  0.810
   GGA corr. scaling (CP-SCF)           ...  0.810

CP-SCF GRID
-----------

General Integration Accuracy     IntAcc      ... 3.467
Radial Grid Type                 RadialGrid  ... OptM3 with GC (2021)
Angular Grid (max. ang.)         AngularGrid ... 1 (Lebedev-50)
Angular grid pruning method      GridPruning ... 4 (adaptive)
Weight generation scheme         WeightScheme... Becke
Basis function cutoff            BFCut       ... 1.0000e-10
Integration weight cutoff        WCut        ... 1.0000e-14
Angular grids for H and He will be reduced by one unit
Partially contracted basis set               ... off
Rotationally invariant grid construction     ... off

Total number of grid points                  ...    14453
Total number of batches                      ...      233
Average number of points per batch           ...       62
Average number of grid points per atom       ...     1032

CP-SCF GRIDX
------------

General Integration Accuracy     IntAcc      ... 3.067
Radial Grid Type                 RadialGrid  ... OptM3 with GC (2021)
Angular Grid (max. ang.)         AngularGrid ... 1 (Lebedev-50)
Angular grid pruning method      GridPruning ... 4 (adaptive)
Weight generation scheme         WeightScheme... Becke
Basis function cutoff            BFCut       ... 1.0000e-10
Integration weight cutoff        WCut        ... 1.0000e-14
Angular grids for H and He will be reduced by one unit
Partially contracted basis set               ... on
Rotationally invariant grid construction     ... off

Total number of grid points                  ...     5397
Total number of batches                      ...       92
Average number of points per batch           ...       58
Average number of grid points per atom       ...      386

Memory available               ... 3969.5 MB
Memory needed per perturbation ...   3.8 MB
Perturbations treated per batch... 3
Number of batches              ... 1
     CP-SCF ITERATION   0:   6.9231e-01 (   0.7 sec   0/  3 done)
     CP-SCF ITERATION   1:   1.8721e-02 (   0.7 sec   0/  3 done)
     CP-SCF ITERATION   2:   1.3875e-03 (   0.7 sec   0/  3 done)
     CP-SCF ITERATION   3:   1.1183e-04 (   0.6 sec   3/  3 done)
                    *** THE CP-SCF HAS CONVERGED ***

Forming final perturbed densities           ... done
Transforming perturbed density to AO basis  ... done

Magnetic field perturbation calculated in 11.554 sec

---------------
CHEMICAL SHIFTS
---------------

Note: using conversion factor for au to ppm alpha^2/2 =   26.625677252 
GIAO: Analytic para- and diamagnetic shielding integrals (SHARK)       ...done
 --------------
 Nucleus   0Br:
 --------------

Diamagnetic contribution to the shielding tensor (ppm) : 
          3128.684         -1.336        -0.000
            -1.541       3119.828         0.000
            -0.000         -0.000      3128.521

Paramagnetic contribution to the shielding tensor (ppm): 
          -268.062       -204.507        -0.015
          -238.959      -1493.624         0.003
            -0.009         -0.001     -1602.111

Total shielding tensor (ppm): 
          2860.623       -205.842        -0.015
          -240.501       1626.203         0.003
            -0.009         -0.001      1526.409


 Diagonalized sT*s matrix:
 
 sDSO          3128.521         3119.601         3128.911  iso=    3125.677
 sPSO         -1602.111        -1532.487         -229.199  iso=   -1121.266
        ---------------  ---------------  ---------------
 Total         1526.409         1587.114         2899.711  iso=    2004.412

 --------------
 Nucleus   1C :
 --------------

Diamagnetic contribution to the shielding tensor (ppm) : 
           264.655         -2.207        -0.000
            -2.336        254.938         0.000
            -0.000          0.000       225.110

Paramagnetic contribution to the shielding tensor (ppm): 
          -297.380         35.515         0.000
            35.769       -225.082        -0.001
             0.006         -0.002      -101.548

Total shielding tensor (ppm): 
           -32.725         33.308         0.000
            33.433         29.857        -0.001
             0.006         -0.002       123.562


 Diagonalized sT*s matrix:
 
 sDSO           254.735          264.858          225.110  iso=     248.234
 sPSO          -210.466         -311.996         -101.548  iso=    -208.003
        ---------------  ---------------  ---------------
 Total           44.269          -47.138          123.562  iso=      40.231

 --------------
 Nucleus   2C :
 --------------

Diamagnetic contribution to the shielding tensor (ppm) : 
           269.150         -5.674         0.000
            -3.383        262.803         0.000
            -0.000          0.001       234.106

Paramagnetic contribution to the shielding tensor (ppm): 
          -227.840        -40.601        -0.001
           -44.019       -267.505         0.000
             0.002          0.005       -86.394

Total shielding tensor (ppm): 
            41.310        -46.275        -0.001
           -47.402         -4.702         0.000
             0.002          0.005       147.712


 Diagonalized sT*s matrix:
 
 sDSO           260.489          271.464          234.106  iso=     255.353
 sPSO          -294.344         -201.001          -86.394  iso=    -193.913
        ---------------  ---------------  ---------------
 Total          -33.855           70.463          147.712  iso=      61.440

 --------------
 Nucleus   3C :
 --------------

Diamagnetic contribution to the shielding tensor (ppm) : 
           269.827          3.805         0.000
             3.113        261.039         0.000
             0.001         -0.001       238.528

Paramagnetic contribution to the shielding tensor (ppm): 
          -208.336        -10.273        -0.001
            -5.997       -290.921        -0.001
            -0.006          0.002       -95.741

Total shielding tensor (ppm): 
            61.492         -6.468        -0.001
            -2.884        -29.882        -0.001
            -0.005          0.001       142.787


 Diagonalized sT*s matrix:
 
 sDSO           261.878          268.989          238.528  iso=     256.465
 sPSO          -291.706         -207.551          -95.741  iso=    -198.333
        ---------------  ---------------  ---------------
 Total          -29.828           61.438          142.787  iso=      58.132

 --------------
 Nucleus   4N :
 --------------

Diamagnetic contribution to the shielding tensor (ppm) : 
           326.237          4.313         0.001
             4.326        321.221        -0.000
            -0.000          0.004       285.812

Paramagnetic contribution to the shielding tensor (ppm): 
          -350.870        -18.290        -0.008
            -8.877       -360.000         0.000
             0.005         -0.013      -107.828

Total shielding tensor (ppm): 
           -24.633        -13.977        -0.006
            -4.551        -38.779        -0.000
             0.005         -0.009       177.985


 Diagonalized sT*s matrix:
 
 sDSO           322.517          324.941          285.812  iso=     311.090
 sPSO          -342.694         -368.175         -107.828  iso=    -272.899
        ---------------  ---------------  ---------------
 Total          -20.178          -43.235          177.985  iso=      38.191

 --------------
 Nucleus   5C :
 --------------

Diamagnetic contribution to the shielding tensor (ppm) : 
           270.236          2.935         0.001
             2.245        261.929        -0.001
            -0.004          0.008       235.679

Paramagnetic contribution to the shielding tensor (ppm): 
          -284.034         30.762        -0.009
            61.563       -213.293         0.007
            -0.001         -0.000      -127.825

Total shielding tensor (ppm): 
           -13.798         33.697        -0.008
            63.808         48.635         0.006
            -0.005          0.008       107.854


 Diagonalized sT*s matrix:
 
 sDSO           262.926          269.238          235.679  iso=     255.948
 sPSO          -289.305         -208.023         -127.825  iso=    -208.384
        ---------------  ---------------  ---------------
 Total          -26.378           61.216          107.854  iso=      47.564

 --------------
 Nucleus   6N :
 --------------

Diamagnetic contribution to the shielding tensor (ppm) : 
           321.226        -11.407        -0.002
            -6.536        333.493        -0.001
            -0.002          0.006       304.652

Paramagnetic contribution to the shielding tensor (ppm): 
          -572.916        114.556         0.027
           119.710       -635.511         0.011
             0.010          0.018      -134.762

Total shielding tensor (ppm): 
          -251.690        103.149         0.024
           113.173       -302.019         0.010
             0.008          0.024       169.889


 Diagonalized sT*s matrix:
 
 sDSO           317.305          304.652          337.415  iso=     319.790
 sPSO          -483.127         -134.763         -725.301  iso=    -447.730
        ---------------  ---------------  ---------------
 Total         -165.822          169.889         -387.886  iso=    -127.940

 --------------
 Nucleus   7N :
 --------------

Diamagnetic contribution to the shielding tensor (ppm) : 
           343.681          1.251        -0.002
           -12.379        318.574         0.002
            -0.003          0.002       308.462

Paramagnetic contribution to the shielding tensor (ppm): 
          -648.602         28.402         0.012
            69.302       -442.786        -0.006
            -0.037         -0.002      -148.532

Total shielding tensor (ppm): 
          -304.921         29.653         0.010
            56.924       -124.212        -0.004
            -0.039         -0.000       159.929


 Diagonalized sT*s matrix:
 
 sDSO           317.404          308.462          344.851  iso=     323.572
 sPSO          -431.983         -148.533         -659.404  iso=    -413.307
        ---------------  ---------------  ---------------
 Total         -114.579          159.929         -314.554  iso=     -89.735

 --------------
 Nucleus   8C :
 --------------

Diamagnetic contribution to the shielding tensor (ppm) : 
           268.912          0.932        -0.000
             1.480        256.469         0.001
             0.001          0.002       224.236

Paramagnetic contribution to the shielding tensor (ppm): 
          -261.771         54.158        -0.002
            22.604       -286.910        -0.002
            -0.004          0.004      -110.290

Total shielding tensor (ppm): 
             7.141         55.090        -0.002
            24.083        -30.441        -0.001
            -0.002          0.006       113.946


 Diagonalized sT*s matrix:
 
 sDSO           269.027          256.354          224.236  iso=     249.872
 sPSO          -254.353         -294.328         -110.290  iso=    -219.657
        ---------------  ---------------  ---------------
 Total           14.674          -37.974          113.946  iso=      30.215

 --------------
 Nucleus   9C :
 --------------

Diamagnetic contribution to the shielding tensor (ppm) : 
           271.541          2.082         0.000
             3.254        259.235         0.000
            -0.001          0.001       238.156

Paramagnetic contribution to the shielding tensor (ppm): 
          -248.666         45.497        -0.000
            41.902       -254.625        -0.001
            -0.000         -0.004       -91.390

Total shielding tensor (ppm): 
            22.875         47.580        -0.000
            45.156          4.609        -0.001
            -0.001         -0.003       146.765


 Diagonalized sT*s matrix:
 
 sDSO           262.080          268.695          238.156  iso=     256.311
 sPSO          -295.414         -207.877          -91.390  iso=    -198.227
        ---------------  ---------------  ---------------
 Total          -33.334           60.819          146.765  iso=      58.083

 --------------
 Nucleus  10H :
 --------------

Diamagnetic contribution to the shielding tensor (ppm) : 
            34.533          5.889         0.000
             6.426         38.015         0.000
            -0.000          0.000        21.436

Paramagnetic contribution to the shielding tensor (ppm): 
            -7.301        -10.198        -0.000
            -9.196        -10.667        -0.000
             0.000          0.000        -0.949

Total shielding tensor (ppm): 
            27.232         -4.310         0.000
            -2.770         27.348        -0.000
             0.000          0.000        20.487


 Diagonalized sT*s matrix:
 
 sDSO            21.436           42.348           30.201  iso=      31.328
 sPSO            -0.949          -18.597            0.628  iso=      -6.306
        ---------------  ---------------  ---------------
 Total           20.487           23.751           30.829  iso=      25.022

 --------------
 Nucleus  11H :
 --------------

Diamagnetic contribution to the shielding tensor (ppm) : 
            29.628         -5.151         0.000
            -6.060         41.306         0.000
             0.000          0.000        20.547

Paramagnetic contribution to the shielding tensor (ppm): 
            -1.538          5.348        -0.000
             6.312        -16.400        -0.000
             0.000          0.000        -1.805

Total shielding tensor (ppm): 
            28.090          0.197         0.000
             0.252         24.906        -0.000
             0.000          0.000        18.743


 Diagonalized sT*s matrix:
 
 sDSO            20.547           42.026           28.908  iso=      30.494
 sPSO            -1.805          -17.136           -0.802  iso=      -6.581
        ---------------  ---------------  ---------------
 Total           18.743           24.890           28.106  iso=      23.913

 --------------
 Nucleus  12H :
 --------------

Diamagnetic contribution to the shielding tensor (ppm) : 
            35.246         -8.666         0.001
            -8.743         35.110        -0.001
            -0.001          0.001        15.915

Paramagnetic contribution to the shielding tensor (ppm): 
            -9.005         10.993        -0.001
             9.089        -11.201         0.001
             0.001          0.000         3.903

Total shielding tensor (ppm): 
            26.241          2.328         0.000
             0.346         23.909         0.000
            -0.000          0.001        19.818


 Diagonalized sT*s matrix:
 
 sDSO            15.915           41.915           28.440  iso=      28.757
 sPSO             3.903          -18.613           -1.593  iso=      -5.434
        ---------------  ---------------  ---------------
 Total           19.818           23.302           26.847  iso=      23.323

 --------------
 Nucleus  13H :
 --------------

Diamagnetic contribution to the shielding tensor (ppm) : 
            31.359         -3.734        -0.000
            -3.652         41.257         0.000
             0.000          0.001        24.710

Paramagnetic contribution to the shielding tensor (ppm): 
            -3.391          8.338         0.000
             6.691        -16.585        -0.000
            -0.000         -0.001        -5.619

Total shielding tensor (ppm): 
            27.968          4.604         0.000
             3.039         24.672        -0.000
            -0.000          0.000        19.091


 Diagonalized sT*s matrix:
 
 sDSO            24.710           41.564           31.051  iso=      32.442
 sPSO            -5.619          -19.404           -0.571  iso=      -8.531
        ---------------  ---------------  ---------------
 Total           19.091           22.160           30.480  iso=      23.910



--------------------------------
CHEMICAL SHIELDING SUMMARY (ppm)
--------------------------------


  Nucleus  Element    Isotropic     Anisotropy
  -------  -------  ------------   ------------
      0       Br        2004.412       1342.949 
      1       C           40.231        124.997 
      2       C           61.440        129.408 
      3       C           58.132        126.982 
      4       N           38.191        209.691 
      5       C           47.564         90.435 
      6       N         -127.940       -389.919 
      7       N          -89.735       -337.229 
      8       C           30.215        125.596 
      9       C           58.083        133.023 
     10       H           25.022          8.710 
     11       H           23.913          6.290 
     12       H           23.323          5.287 
     13       H           23.910          9.854 



Maximum memory used throughout the entire EPRNMR-calculation: 50.6 MB

Timings for individual modules:

Sum of individual times         ...       39.278 sec (=   0.655 min)
GTO integral calculation        ...        0.873 sec (=   0.015 min)   2.2 %
SCF iterations                  ...       25.670 sec (=   0.428 min)  65.4 %
EPR/NMR calculation             ...       12.735 sec (=   0.212 min)  32.4 %
                             ****ORCA TERMINATED NORMALLY****
TOTAL RUN TIME: 0 days 0 hours 0 minutes 40 seconds 3 msec
