
                                 *****************
                                 * O   R   C   A *
                                 *****************

                                            #,                                       
                                            ###                                      
                                            ####                                     
                                            #####                                    
                                            ######                                   
                                           ########,                                 
                                     ,,################,,,,,                         
                               ,,#################################,,                 
                          ,,##########################################,,             
                       ,#########################################, ''#####,          
                    ,#############################################,,   '####,        
                  ,##################################################,,,,####,       
                ,###########''''           ''''###############################       
              ,#####''   ,,,,##########,,,,          '''####'''          '####       
            ,##' ,,,,###########################,,,                        '##       
           ' ,,###''''                  '''############,,,                           
         ,,##''                                '''############,,,,        ,,,,,,###''
      ,#''                                            '''#######################'''  
     '                                                          ''''####''''         
             ,#######,   #######,   ,#######,      ##                                
            ,#'     '#,  ##    ##  ,#'     '#,    #''#        ######   ,####,        
            ##       ##  ##   ,#'  ##            #'  '#       #        #'  '#        
            ##       ##  #######   ##           ,######,      #####,   #    #        
            '#,     ,#'  ##    ##  '#,     ,#' ,#      #,         ##   #,  ,#        
             '#######'   ##     ##  '#######'  #'      '#     #####' # '####'        



                  #######################################################
                  #                        -***-                        #
                  #          Department of theory and spectroscopy      #
                  #    Directorship and core code : Frank Neese         #
                  #        Max Planck Institute fuer Kohlenforschung    #
                  #                Kaiser Wilhelm Platz 1               #
                  #                 D-45470 Muelheim/Ruhr               #
                  #                      Germany                        #
                  #                                                     #
                  #                  All rights reserved                #
                  #                        -***-                        #
                  #######################################################


                         Program Version 5.0.4 -  RELEASE  -


 With contributions from (in alphabetic order):
   Daniel Aravena         : Magnetic Suceptibility
   Michael Atanasov       : Ab Initio Ligand Field Theory (pilot matlab implementation)
   Alexander A. Auer      : GIAO ZORA, VPT2 properties, NMR spectrum
   Ute Becker             : Parallelization
   Giovanni Bistoni       : ED, misc. LED, open-shell LED, HFLD
   Martin Brehm           : Molecular dynamics
   Dmytro Bykov           : SCF Hessian
   Vijay G. Chilkuri      : MRCI spin determinant printing, contributions to CSF-ICE
   Dipayan Datta          : RHF DLPNO-CCSD density
   Achintya Kumar Dutta   : EOM-CC, STEOM-CC
   Dmitry Ganyushin       : Spin-Orbit,Spin-Spin,Magnetic field MRCI
   Miquel Garcia          : C-PCM and meta-GGA Hessian, CC/C-PCM, Gaussian charge scheme
   Yang Guo               : DLPNO-NEVPT2, F12-NEVPT2, CIM, IAO-localization
   Andreas Hansen         : Spin unrestricted coupled pair/coupled cluster methods
   Benjamin Helmich-Paris : MC-RPA, TRAH-SCF, COSX integrals
   Lee Huntington         : MR-EOM, pCC
   Robert Izsak           : Overlap fitted RIJCOSX, COSX-SCS-MP3, EOM
   Marcus Kettner         : VPT2
   Christian Kollmar      : KDIIS, OOCD, Brueckner-CCSD(T), CCSD density, CASPT2, CASPT2-K
   Simone Kossmann        : Meta GGA functionals, TD-DFT gradient, OOMP2, MP2 Hessian
   Martin Krupicka        : Initial AUTO-CI
   Lucas Lang             : DCDCAS
   Marvin Lechner         : AUTO-CI (C++ implementation), FIC-MRCC
   Dagmar Lenk            : GEPOL surface, SMD
   Dimitrios Liakos       : Extrapolation schemes; Compound Job, initial MDCI parallelization
   Dimitrios Manganas     : Further ROCIS development; embedding schemes
   Dimitrios Pantazis     : SARC Basis sets
   Anastasios Papadopoulos: AUTO-CI, single reference methods and gradients
   Taras Petrenko         : DFT Hessian,TD-DFT gradient, ASA, ECA, R-Raman, ABS, FL, XAS/XES, NRVS
   Peter Pinski           : DLPNO-MP2, DLPNO-MP2 Gradient
   Christoph Reimann      : Effective Core Potentials
   Marius Retegan         : Local ZFS, SOC
   Christoph Riplinger    : Optimizer, TS searches, QM/MM, DLPNO-CCSD(T), (RO)-DLPNO pert. Triples
   Tobias Risthaus        : Range-separated hybrids, TD-DFT gradient, RPA, STAB
   Michael Roemelt        : Original ROCIS implementation
   Masaaki Saitow         : Open-shell DLPNO-CCSD energy and density
   Barbara Sandhoefer     : DKH picture change effects
   Avijit Sen             : IP-ROCIS
   Kantharuban Sivalingam : CASSCF convergence, NEVPT2, FIC-MRCI
   Bernardo de Souza      : ESD, SOC TD-DFT
   Georgi Stoychev        : AutoAux, RI-MP2 NMR, DLPNO-MP2 response
   Willem Van den Heuvel  : Paramagnetic NMR
   Boris Wezisla          : Elementary symmetry handling
   Frank Wennmohs         : Technical directorship


 We gratefully acknowledge several colleagues who have allowed us to
 interface, adapt or use parts of their codes:
   Stefan Grimme, W. Hujo, H. Kruse, P. Pracht,  : VdW corrections, initial TS optimization,
                  C. Bannwarth, S. Ehlert          DFT functionals, gCP, sTDA/sTD-DF
   Ed Valeev, F. Pavosevic, A. Kumar             : LibInt (2-el integral package), F12 methods
   Garnet Chan, S. Sharma, J. Yang, R. Olivares  : DMRG
   Ulf Ekstrom                                   : XCFun DFT Library
   Mihaly Kallay                                 : mrcc  (arbitrary order and MRCC methods)
   Jiri Pittner, Ondrej Demel                    : Mk-CCSD
   Frank Weinhold                                : gennbo (NPA and NBO analysis)
   Christopher J. Cramer and Donald G. Truhlar   : smd solvation model
   Lars Goerigk                                  : TD-DFT with DH, B97 family of functionals
   V. Asgeirsson, H. Jonsson                     : NEB implementation
   FAccTs GmbH                                   : IRC, NEB, NEB-TS, DLPNO-Multilevel, CI-OPT
                                                   MM, QMMM, 2- and 3-layer-ONIOM, Crystal-QMMM,
                                                   LR-CPCM, SF, NACMEs, symmetry and pop. for TD-DFT,
                                                   nearIR, NL-DFT gradient (VV10), updates on ESD,
                                                   ML-optimized integration grids
   S Lehtola, MJT Oliveira, MAL Marques          : LibXC Library
   Liviu Ungur et al                             : ANISO software


 Your calculation uses the libint2 library for the computation of 2-el integrals
 For citations please refer to: http://libint.valeyev.net

 Your ORCA version has been built with support for libXC version: 5.1.0
 For citations please refer to: https://tddft.org/programs/libxc/

 This ORCA versions uses:
   CBLAS   interface :  Fast vector & matrix operations
   LAPACKE interface :  Fast linear algebra routines
   SCALAPACK package :  Parallel linear algebra routines
   Shared memory     :  Shared parallel matrices
   BLAS/LAPACK       :  OpenBLAS 0.3.15  USE64BITINT DYNAMIC_ARCH NO_AFFINITY SkylakeX SINGLE_THREADED
        Core in use  :  SkylakeX
   Copyright (c) 2011-2014, The OpenBLAS Project



Information: The global flag for chemical shieldings has been found
             ==>> will calculate the chemical shieldings for all atoms in the system

================================================================================

----- Orbital basis set information -----
Your calculation utilizes the basis: def2-TZVP
   F. Weigend and R. Ahlrichs, Phys. Chem. Chem. Phys. 7, 3297 (2005).

----- AuxJ basis set information -----
Your calculation utilizes the auxiliary basis: def2/J
   F. Weigend, Phys. Chem. Chem. Phys. 8, 1057 (2006).

================================================================================
                                        WARNINGS
                       Please study these warnings very carefully!
================================================================================


INFO   : the flag for use of the SHARK integral package has been found!

================================================================================
                                       INPUT FILE
================================================================================
NAME = arbr_18_r2scan3c_nmr.inp
|  1> %PAL NPROCS 16 END
|  2> %maxcore 4000
|  3> # arbr_18_r2scan3c.out
|  4> ! NMR B3LYP def2-tzvp 
|  5> * xyz 0 1
|  6>    C       -4.15021        -0.69730         0.00001
|  7>    O       -3.34515         0.46379        -0.00001
|  8>    C       -2.00558         0.29427        -0.00000
|  9>    C       -1.22357         1.44959        -0.00000
| 10>    C        0.14760         1.33402         0.00000
| 11>    C        0.68642         0.04840        -0.00000
| 12>   Br        2.58067        -0.14730         0.00000
| 13>    N       -0.02765        -1.04363        -0.00000
| 14>    C       -1.35854        -0.93628        -0.00000
| 15>    H       -5.17977        -0.35157         0.00001
| 16>    H       -3.96776        -1.30189         0.89212
| 17>    H       -3.96778        -1.30190        -0.89211
| 18>    H       -1.71194         2.41529         0.00000
| 19>    H        0.78963         2.20252         0.00000
| 20>    H       -1.90782        -1.86821        -0.00001
| 21> *
| 22> 
| 23>                          ****END OF INPUT****
================================================================================

                       ****************************
                       * Single Point Calculation *
                       ****************************

---------------------------------
CARTESIAN COORDINATES (ANGSTROEM)
---------------------------------
  C     -4.150210   -0.697300    0.000010
  O     -3.345150    0.463790   -0.000010
  C     -2.005580    0.294270   -0.000000
  C     -1.223570    1.449590   -0.000000
  C      0.147600    1.334020    0.000000
  C      0.686420    0.048400   -0.000000
  Br     2.580670   -0.147300    0.000000
  N     -0.027650   -1.043630   -0.000000
  C     -1.358540   -0.936280   -0.000000
  H     -5.179770   -0.351570    0.000010
  H     -3.967760   -1.301890    0.892120
  H     -3.967780   -1.301900   -0.892110
  H     -1.711940    2.415290    0.000000
  H      0.789630    2.202520    0.000000
  H     -1.907820   -1.868210   -0.000010

----------------------------
CARTESIAN COORDINATES (A.U.)
----------------------------
  NO LB      ZA    FRAG     MASS         X           Y           Z
   0 C     6.0000    0    12.011   -7.842760   -1.317706    0.000019
   1 O     8.0000    0    15.999   -6.321417    0.876436   -0.000019
   2 C     6.0000    0    12.011   -3.789997    0.556090   -0.000000
   3 C     6.0000    0    12.011   -2.312212    2.739328   -0.000000
   4 C     6.0000    0    12.011    0.278924    2.520932    0.000000
   5 C     6.0000    0    12.011    1.297146    0.091463   -0.000000
   6 Br   35.0000    0    79.900    4.876760   -0.278357    0.000000
   7 N     7.0000    0    14.007   -0.052251   -1.972175   -0.000000
   8 C     6.0000    0    12.011   -2.567269   -1.769313   -0.000000
   9 H     1.0000    0     1.008   -9.788347   -0.664371    0.000019
  10 H     1.0000    0     1.008   -7.497980   -2.460216    1.685862
  11 H     1.0000    0     1.008   -7.498018   -2.460234   -1.685844
  12 H     1.0000    0     1.008   -3.235098    4.564237    0.000000
  13 H     1.0000    0     1.008    1.492184    4.162160    0.000000
  14 H     1.0000    0     1.008   -3.605257   -3.530405   -0.000019

--------------------------------
INTERNAL COORDINATES (ANGSTROEM)
--------------------------------
 C      0   0   0     0.000000000000     0.00000000     0.00000000
 O      1   0   0     1.412887678515     0.00000000     0.00000000
 C      2   1   0     1.350253611512   117.52377956     0.00000000
 C      3   2   1     1.395099975808   116.88085026   180.00092058
 C      4   3   2     1.376031828774   119.27535657   180.00047574
 C      5   4   3     1.393967638362   117.55701593     0.00000000
 Br     6   5   4     1.904332311468   118.63764210   180.00000000
 N      6   5   4     1.304770280854   124.08044731     0.00000000
 C      8   6   5     1.335212423025   118.56885180     0.00000000
 H      1   2   3     1.086058482081   106.17387375   179.99933411
 H      1   2   3     1.093012956328   111.06712948    61.00268310
 H      1   2   3     1.093023311417   111.06660341   298.99441189
 H      4   3   2     1.082165304794   119.08036011     0.00000000
 H      5   4   3     1.080043874525   121.65546976   180.00000085
 H      9   8   6     1.081758773202   115.90360670   179.99941119

---------------------------
INTERNAL COORDINATES (A.U.)
---------------------------
 C      0   0   0     0.000000000000     0.00000000     0.00000000
 O      1   0   0     2.669970770385     0.00000000     0.00000000
 C      2   1   0     2.551609537095   117.52377956     0.00000000
 C      3   2   1     2.636356883718   116.88085026   180.00092058
 C      4   3   2     2.600323307942   119.27535657   180.00047574
 C      5   4   3     2.634217076053   117.55701593     0.00000000
 Br     6   5   4     3.598666536651   118.63764210   180.00000000
 N      6   5   4     2.465658498494   124.08044731     0.00000000
 C      8   6   5     2.523185810126   118.56885180     0.00000000
 H      1   2   3     2.052353096555   106.17387375   179.99933411
 H      1   2   3     2.065495148287   111.06712948    61.00268310
 H      1   2   3     2.065514716569   111.06660341   298.99441189
 H      4   3   2     2.044996057692   119.08036011     0.00000000
 H      5   4   3     2.040987135472   121.65546976   180.00000085
 H      9   8   6     2.044227824319   115.90360670   179.99941119

---------------------
BASIS SET INFORMATION
---------------------
There are 5 groups of distinct atoms

 Group   1 Type C   : 11s6p2d1f contracted to 5s3p2d1f pattern {62111/411/11/1}
 Group   2 Type O   : 11s6p2d1f contracted to 5s3p2d1f pattern {62111/411/11/1}
 Group   3 Type Br  : 17s13p8d1f contracted to 6s5p4d1f pattern {842111/64111/5111/1}
 Group   4 Type N   : 11s6p2d1f contracted to 5s3p2d1f pattern {62111/411/11/1}
 Group   5 Type H   : 5s1p contracted to 3s1p pattern {311/1}

Atom   0C    basis set group =>   1
Atom   1O    basis set group =>   2
Atom   2C    basis set group =>   1
Atom   3C    basis set group =>   1
Atom   4C    basis set group =>   1
Atom   5C    basis set group =>   1
Atom   6Br   basis set group =>   3
Atom   7N    basis set group =>   4
Atom   8C    basis set group =>   1
Atom   9H    basis set group =>   5
Atom  10H    basis set group =>   5
Atom  11H    basis set group =>   5
Atom  12H    basis set group =>   5
Atom  13H    basis set group =>   5
Atom  14H    basis set group =>   5
---------------------------------
AUXILIARY/J BASIS SET INFORMATION
---------------------------------
There are 5 groups of distinct atoms

 Group   1 Type C   : 12s5p4d2f1g contracted to 6s4p3d1f1g pattern {711111/2111/211/2/1}
 Group   2 Type O   : 12s5p4d2f1g contracted to 6s4p3d1f1g pattern {711111/2111/211/2/1}
 Group   3 Type Br  : 19s5p5d3f1g contracted to 8s4p3d2f1g pattern {121111111/2111/311/21/1}
 Group   4 Type N   : 12s5p4d2f1g contracted to 6s4p3d1f1g pattern {711111/2111/211/2/1}
 Group   5 Type H   : 5s2p1d contracted to 3s1p1d pattern {311/2/1}

Atom   0C    basis set group =>   1
Atom   1O    basis set group =>   2
Atom   2C    basis set group =>   1
Atom   3C    basis set group =>   1
Atom   4C    basis set group =>   1
Atom   5C    basis set group =>   1
Atom   6Br   basis set group =>   3
Atom   7N    basis set group =>   4
Atom   8C    basis set group =>   1
Atom   9H    basis set group =>   5
Atom  10H    basis set group =>   5
Atom  11H    basis set group =>   5
Atom  12H    basis set group =>   5
Atom  13H    basis set group =>   5
Atom  14H    basis set group =>   5


           ************************************************************
           *        Program running with 16 parallel MPI-processes    *
           *              working on a common directory               *
           ************************************************************
------------------------------------------------------------------------------
                           ORCA GTO INTEGRAL CALCULATION
                           -- RI-GTO INTEGRALS CHOSEN --
------------------------------------------------------------------------------
------------------------------------------------------------------------------
                   ___                                                        
                  /   \      - P O W E R E D   B Y -                         
                 /     \                                                     
                 |  |  |   _    _      __       _____    __    __             
                 |  |  |  | |  | |    /  \     |  _  \  |  |  /  |          
                  \  \/   | |  | |   /    \    | | | |  |  | /  /          
                 / \  \   | |__| |  /  /\  \   | |_| |  |  |/  /          
                |  |  |   |  __  | /  /__\  \  |    /   |      \           
                |  |  |   | |  | | |   __   |  |    \   |  |\   \          
                \     /   | |  | | |  |  |  |  | |\  \  |  | \   \       
                 \___/    |_|  |_| |__|  |__|  |_| \__\ |__|  \__/        
                                                                              
                      - O R C A' S   B I G   F R I E N D -                    
                                      &                                       
                       - I N T E G R A L  F E E D E R -                       
                                                                              
 v1 FN, 2020, v2 2021                                                         
------------------------------------------------------------------------------


Reading SHARK input file arbr_18_r2scan3c_nmr.SHARKINP.tmp ... ok
----------------------
SHARK INTEGRAL PACKAGE
----------------------

Number of atoms                             ...     15
Number of basis functions                   ...    332
Number of shells                            ...    128
Maximum angular momentum                    ...      3
Integral batch strategy                     ... SHARK/LIBINT Hybrid
RI-J (if used) integral strategy            ... SPLIT-RIJ (Revised 2003 algorithm where possible)
Printlevel                                  ...      1
Contraction scheme used                     ... SEGMENTED contraction
Coulomb Range Separation                    ... NOT USED
Exchange Range Separation                   ... NOT USED
Finite Nucleus Model                        ... NOT USED
Auxiliary Coulomb fitting basis             ... AVAILABLE
   # of basis functions in Aux-J            ...    516
   # of shells in Aux-J                     ...    168
   Maximum angular momentum in Aux-J        ...      4
Auxiliary J/K fitting basis                 ... NOT available
Auxiliary Correlation fitting basis         ... NOT available
Auxiliary 'external' fitting basis          ... NOT available
Integral threshold                          ...     1.000000e-10
Primitive cut-off                           ...     1.000000e-11
Primitive pair pre-selection threshold      ...     1.000000e-11

Calculating pre-screening integrals         ... done (  0.1 sec) Dimension = 128
Organizing shell pair data                  ... done (  0.1 sec)
Shell pair information
Total number of shell pairs                 ...      8256
Shell pairs after pre-screening             ...      7112
Total number of primitive shell pairs       ...     27990
Primitive shell pairs kept                  ...     17108
          la=0 lb=0:   1705 shell pairs
          la=1 lb=0:   1952 shell pairs
          la=1 lb=1:    573 shell pairs
          la=2 lb=0:   1089 shell pairs
          la=2 lb=1:    625 shell pairs
          la=2 lb=2:    187 shell pairs
          la=3 lb=0:    496 shell pairs
          la=3 lb=1:    283 shell pairs
          la=3 lb=2:    159 shell pairs
          la=3 lb=3:     43 shell pairs

Calculating one electron integrals          ... done (  0.0 sec)
Calculating RI/J V-Matrix + Cholesky decomp.... done (  0.0 sec)
Calculating Nuclear repulsion               ... done (  0.0 sec) ENN=    626.424571270933 Eh

SHARK setup successfully completed in   0.5 seconds

Maximum memory used throughout the entire GTOINT-calculation: 24.3 MB


           ************************************************************
           *        Program running with 16 parallel MPI-processes    *
           *              working on a common directory               *
           ************************************************************
-------------------------------------------------------------------------------
                                 ORCA SCF
-------------------------------------------------------------------------------

------------
SCF SETTINGS
------------
Hamiltonian:
 Density Functional     Method          .... DFT(GTOs)
 Exchange Functional    Exchange        .... B88
   X-Alpha parameter    XAlpha          ....  0.666667
   Becke's b parameter  XBeta           ....  0.004200
 Correlation Functional Correlation     .... LYP
 LDA part of GGA corr.  LDAOpt          .... VWN-5
 Gradients option       PostSCFGGA      .... off
 Hybrid DFT is turned on
   Fraction HF Exchange ScalHFX         ....  0.200000
   Scaling of DF-GGA-X  ScalDFX         ....  0.720000
   Scaling of DF-GGA-C  ScalDFC         ....  0.810000
   Scaling of DF-LDA-C  ScalLDAC        ....  1.000000
   Perturbative correction              ....  0.000000
   Density functional embedding theory  .... OFF
   NL short-range parameter             ....  4.800000
 RI-approximation to the Coulomb term is turned on
   Number of AuxJ basis functions       .... 516
   RIJ-COSX (HFX calculated with COS-X)).... on


General Settings:
 Integral files         IntName         .... arbr_18_r2scan3c_nmr
 Hartree-Fock type      HFTyp           .... RHF
 Total Charge           Charge          ....    0
 Multiplicity           Mult            ....    1
 Number of Electrons    NEL             ....   92
 Basis Dimension        Dim             ....  332
 Nuclear Repulsion      ENuc            ....    626.4245712709 Eh

Convergence Acceleration:
 DIIS                   CNVDIIS         .... on
   Start iteration      DIISMaxIt       ....    12
   Startup error        DIISStart       ....  0.200000
   # of expansion vecs  DIISMaxEq       ....     5
   Bias factor          DIISBfac        ....   1.050
   Max. coefficient     DIISMaxC        ....  10.000
 Trust-Rad. Augm. Hess. CNVTRAH         .... auto
   Auto Start mean grad. ratio tolernc. ....  1.125000
   Auto Start start iteration           ....    20
   Auto Start num. interpolation iter.  ....    10
   Max. Number of Micro iterations      ....    16
   Max. Number of Macro iterations      .... Maxiter - #DIIS iter
   Number of Davidson start vectors     ....     2
   Converg. threshold I  (grad. norm)   ....   5.000e-05
   Converg. threshold II (energy diff.) ....   1.000e-06
   Grad. Scal. Fac. for Micro threshold ....   0.100
   Minimum threshold for Micro iter.    ....   0.010
   NR start threshold (gradient norm)   ....   0.001
   Initial trust radius                 ....   0.400
   Minimum AH scaling param. (alpha)    ....   1.000
   Maximum AH scaling param. (alpha)    .... 1000.000
   Orbital update algorithm             .... Taylor
   White noise on init. David. guess    .... on
   Maximum white noise                  ....   0.010
   Quad. conv. algorithm                .... NR
 SOSCF                  CNVSOSCF        .... on
   Start iteration      SOSCFMaxIt      ....   150
   Startup grad/error   SOSCFStart      ....  0.003300
 Level Shifting         CNVShift        .... on
   Level shift para.    LevelShift      ....    0.2500
   Turn off err/grad.   ShiftErr        ....    0.0010
 Zerner damping         CNVZerner       .... off
 Static damping         CNVDamp         .... on
   Fraction old density DampFac         ....    0.7000
   Max. Damping (<1)    DampMax         ....    0.9800
   Min. Damping (>=0)   DampMin         ....    0.0000
   Turn off err/grad.   DampErr         ....    0.1000
 Fernandez-Rico         CNVRico         .... off

SCF Procedure:
 Maximum # iterations   MaxIter         ....   125
 SCF integral mode      SCFMode         .... Direct
   Integral package                     .... SHARK and LIBINT hybrid scheme
 Reset frequency        DirectResetFreq ....    20
 Integral Threshold     Thresh          ....  1.000e-10 Eh
 Primitive CutOff       TCut            ....  1.000e-11 Eh

Convergence Tolerance:
 Convergence Check Mode ConvCheckMode   .... Total+1el-Energy
 Convergence forced     ConvForced      .... 0
 Energy Change          TolE            ....  1.000e-06 Eh
 1-El. energy change                    ....  1.000e-03 Eh
 Orbital Gradient       TolG            ....  5.000e-05
 Orbital Rotation angle TolX            ....  5.000e-05
 DIIS Error             TolErr          ....  1.000e-06


Diagonalization of the overlap matrix:
Smallest eigenvalue                        ... 2.853e-05
Time for diagonalization                   ...    0.023 sec
Threshold for overlap eigenvalues          ... 1.000e-08
Number of eigenvalues below threshold      ... 0
Time for construction of square roots      ...    0.011 sec
Total time needed                          ...    0.035 sec

Time for model grid setup =    0.127 sec

------------------------------
INITIAL GUESS: MODEL POTENTIAL
------------------------------
Loading Hartree-Fock densities                     ... done
Calculating cut-offs                               ... done
Initializing the effective Hamiltonian             ... done
Setting up the integral package (SHARK)            ... done
Starting the Coulomb interaction                   ... done (   0.1 sec)
Reading the grid                                   ... done
Mapping shells                                     ... done
Starting the XC term evaluation                    ... done (   0.1 sec)
  promolecular density results
     # of electrons  =     91.996940225
     EX              =   -137.142320658
     EC              =     -3.650021857
     EX+EC           =   -140.792342515
Transforming the Hamiltonian                       ... done (   0.0 sec)
Diagonalizing the Hamiltonian                      ... done (   0.0 sec)
Back transforming the eigenvectors                 ... done (   0.0 sec)
Now organizing SCF variables                       ... done
                      ------------------
                      INITIAL GUESS DONE (   0.3 sec)
                      ------------------
-------------------
DFT GRID GENERATION
-------------------

General Integration Accuracy     IntAcc      ... 4.388
Radial Grid Type                 RadialGrid  ... OptM3 with GC (2021)
Angular Grid (max. ang.)         AngularGrid ... 4 (Lebedev-302)
Angular grid pruning method      GridPruning ... 4 (adaptive)
Weight generation scheme         WeightScheme... Becke
Basis function cutoff            BFCut       ... 1.0000e-10
Integration weight cutoff        WCut        ... 1.0000e-14
Angular grids for H and He will be reduced by one unit
Partially contracted basis set               ... off
Rotationally invariant grid construction     ... off

Total number of grid points                  ...    78791
Total number of batches                      ...     1241
Average number of points per batch           ...       63
Average number of grid points per atom       ...     5253
Time for grid setup =    0.643 sec

--------------------
COSX GRID GENERATION
--------------------

GRIDX 1
-------
General Integration Accuracy     IntAcc      ... 3.816
Radial Grid Type                 RadialGrid  ... OptM3 with GC (2021)
Angular Grid (max. ang.)         AngularGrid ... 1 (Lebedev-50)
Angular grid pruning method      GridPruning ... 4 (adaptive)
Weight generation scheme         WeightScheme... Becke
Basis function cutoff            BFCut       ... 1.0000e-10
Integration weight cutoff        WCut        ... 1.0000e-14
Angular grids for H and He will be reduced by one unit
Partially contracted basis set               ... on
Rotationally invariant grid construction     ... off

Total number of grid points                  ...     9863
Total number of batches                      ...      161
Average number of points per batch           ...       61
Average number of grid points per atom       ...      658
UseSFitting                                  ... on

GRIDX 2
-------
General Integration Accuracy     IntAcc      ... 4.020
Radial Grid Type                 RadialGrid  ... OptM3 with GC (2021)
Angular Grid (max. ang.)         AngularGrid ... 2 (Lebedev-110)
Angular grid pruning method      GridPruning ... 4 (adaptive)
Weight generation scheme         WeightScheme... Becke
Basis function cutoff            BFCut       ... 1.0000e-10
Integration weight cutoff        WCut        ... 1.0000e-14
Angular grids for H and He will be reduced by one unit
Partially contracted basis set               ... on
Rotationally invariant grid construction     ... off

Total number of grid points                  ...    21673
Total number of batches                      ...      346
Average number of points per batch           ...       62
Average number of grid points per atom       ...     1445
UseSFitting                                  ... on

GRIDX 3
-------
General Integration Accuracy     IntAcc      ... 4.338
Radial Grid Type                 RadialGrid  ... OptM3 with GC (2021)
Angular Grid (max. ang.)         AngularGrid ... 3 (Lebedev-194)
Angular grid pruning method      GridPruning ... 4 (adaptive)
Weight generation scheme         WeightScheme... Becke
Basis function cutoff            BFCut       ... 1.0000e-10
Integration weight cutoff        WCut        ... 1.0000e-14
Angular grids for H and He will be reduced by one unit
Partially contracted basis set               ... on
Rotationally invariant grid construction     ... off

Total number of grid points                  ...    47943
Total number of batches                      ...      756
Average number of points per batch           ...       63
Average number of grid points per atom       ...     3196
UseSFitting                                  ... on

Time for X-Grid setup             =    0.485 sec

--------------
SCF ITERATIONS
--------------
ITER       Energy         Delta-E        Max-DP      RMS-DP      [F,P]     Damp
               ***  Starting incremental Fock matrix formation  ***
  0  -2935.9772706850   0.000000000000 0.04201566  0.00092356  0.2220780 0.7000
  1  -2936.0707065694  -0.093435884382 0.03190850  0.00076804  0.0998996 0.7000
                               ***Turning on DIIS***
  2  -2936.1077240524  -0.037017483034 0.06610021  0.00137098  0.0328215 0.0000
  3  -2936.1641628378  -0.056438785345 0.03125795  0.00059887  0.0501889 0.0000
  4  -2936.1782046468  -0.014041809077 0.01163439  0.00022596  0.0098620 0.0000
  5  -2936.1788507381  -0.000646091290 0.00796868  0.00010574  0.0046366 0.0000
                      *** Initiating the SOSCF procedure ***
                           *** Shutting down DIIS ***
                      *** Re-Reading the Fockian *** 
                      *** Removing any level shift *** 
ITER      Energy       Delta-E        Grad      Rot      Max-DP    RMS-DP
  6  -2936.17892682  -0.0000760867  0.000457  0.000457  0.005275  0.000066
               *** Restarting incremental Fock matrix formation ***
  7  -2936.17893643  -0.0000096012  0.000146  0.000561  0.000437  0.000013
  8  -2936.17893448   0.0000019445  0.000324  0.000416  0.000400  0.000008
  9  -2936.17893729  -0.0000028116  0.000041  0.000143  0.000216  0.000003
 10  -2936.17893722   0.0000000693  0.000053  0.000085  0.000113  0.000002
                 **** Energy Check signals convergence ****
              ***Rediagonalizing the Fockian in SOSCF/NRSCF***

               *****************************************************
               *                     SUCCESS                       *
               *           SCF CONVERGED AFTER  11 CYCLES          *
               *****************************************************

Old exchange energy                            =    -27.536926177 Eh
New exchange energy                            =    -27.536931061 Eh
Exchange energy change after final integration =     -0.000004884 Eh
Total energy after final integration           =  -2936.178942225 Eh
Final COS-X integration done in                =     3.320 sec

----------------
TOTAL SCF ENERGY
----------------

Total Energy       :        -2936.17894223 Eh          -79897.49093 eV

Components:
Nuclear Repulsion  :          626.42457127 Eh           17045.87918 eV
Electronic Energy  :        -3562.60351350 Eh          -96943.37011 eV
One Electron Energy:        -5318.15923760 Eh         -144714.47000 eV
Two Electron Energy:         1755.55572411 Eh           47771.09989 eV
Max COSX asymmetry :            0.00000213 Eh               0.00006 eV

Virial components:
Potential Energy   :        -5867.24963208 Eh         -159655.97924 eV
Kinetic Energy     :         2931.07068985 Eh           79758.48831 eV
Virial Ratio       :            2.00174279


DFT components:
N(Alpha)           :       46.000036071193 electrons
N(Beta)            :       46.000036071193 electrons
N(Total)           :       92.000072142386 electrons
E(X)               :     -109.578272354460 Eh       
E(C)               :       -4.278852478052 Eh       
E(XC)              :     -113.857124832512 Eh       
DFET-embed. en.    :        0.000000000000 Eh       

---------------
SCF CONVERGENCE
---------------

  Last Energy change         ...   -1.1707e-07  Tolerance :   1.0000e-06
  Last MAX-Density change    ...    4.8850e-15  Tolerance :   1.0000e-05
  Last RMS-Density change    ...    3.4275e-17  Tolerance :   1.0000e-06
  Last Orbital Gradient      ...    5.0924e-06  Tolerance :   5.0000e-05
  Last Orbital Rotation      ...    1.6820e-05  Tolerance :   5.0000e-05

             **** THE GBW FILE WAS UPDATED (arbr_18_r2scan3c_nmr.gbw) ****
             **** DENSITY arbr_18_r2scan3c_nmr.scfp WAS UPDATED ****
             **** ENERGY FILE WAS UPDATED (arbr_18_r2scan3c_nmr.en.tmp) ****
             **** THE GBW FILE WAS UPDATED (arbr_18_r2scan3c_nmr.gbw) ****
             **** DENSITY arbr_18_r2scan3c_nmr.scfp WAS UPDATED ****
----------------
ORBITAL ENERGIES
----------------

  NO   OCC          E(Eh)            E(eV) 
   0   2.0000    -482.848986    -13138.9889 
   1   2.0000     -62.496695     -1700.6215 
   2   2.0000     -56.312098     -1532.3301 
   3   2.0000     -56.309733     -1532.2657 
   4   2.0000     -56.309653     -1532.2636 
   5   2.0000     -19.176453      -521.8178 
   6   2.0000     -14.327510      -389.8714 
   7   2.0000     -10.255790      -279.0742 
   8   2.0000     -10.252007      -278.9713 
   9   2.0000     -10.237403      -278.5739 
  10   2.0000     -10.217616      -278.0355 
  11   2.0000     -10.200182      -277.5611 
  12   2.0000     -10.198960      -277.5278 
  13   2.0000      -8.687843      -236.4082 
  14   2.0000      -6.517066      -177.3384 
  15   2.0000      -6.506684      -177.0559 
  16   2.0000      -6.506115      -177.0404 
  17   2.0000      -2.631794       -71.6147 
  18   2.0000      -2.628916       -71.5365 
  19   2.0000      -2.628486       -71.5247 
  20   2.0000      -2.619898       -71.2910 
  21   2.0000      -2.619892       -71.2909 
  22   2.0000      -1.092564       -29.7302 
  23   2.0000      -0.969946       -26.3936 
  24   2.0000      -0.824981       -22.4489 
  25   2.0000      -0.813394       -22.1336 
  26   2.0000      -0.753368       -20.5002 
  27   2.0000      -0.717977       -19.5371 
  28   2.0000      -0.650708       -17.7067 
  29   2.0000      -0.621542       -16.9130 
  30   2.0000      -0.555312       -15.1108 
  31   2.0000      -0.531099       -14.4519 
  32   2.0000      -0.492285       -13.3957 
  33   2.0000      -0.491838       -13.3836 
  34   2.0000      -0.467925       -12.7329 
  35   2.0000      -0.445216       -12.1150 
  36   2.0000      -0.428047       -11.6478 
  37   2.0000      -0.417315       -11.3557 
  38   2.0000      -0.388121       -10.5613 
  39   2.0000      -0.367587       -10.0026 
  40   2.0000      -0.367438        -9.9985 
  41   2.0000      -0.306243        -8.3333 
  42   2.0000      -0.295439        -8.0393 
  43   2.0000      -0.287789        -7.8311 
  44   2.0000      -0.273767        -7.4496 
  45   2.0000      -0.238713        -6.4957 
  46   0.0000      -0.045542        -1.2393 
  47   0.0000      -0.018673        -0.5081 
  48   0.0000       0.006393         0.1740 
  49   0.0000       0.034518         0.9393 
  50   0.0000       0.057278         1.5586 
  51   0.0000       0.066465         1.8086 
  52   0.0000       0.088387         2.4051 
  53   0.0000       0.097094         2.6421 
  54   0.0000       0.103379         2.8131 
  55   0.0000       0.110786         3.0146 
  56   0.0000       0.115225         3.1354 
  57   0.0000       0.125975         3.4279 
  58   0.0000       0.154233         4.1969 
  59   0.0000       0.180554         4.9131 
  60   0.0000       0.187738         5.1086 
  61   0.0000       0.188422         5.1272 
  62   0.0000       0.203874         5.5477 
  63   0.0000       0.212084         5.7711 
  64   0.0000       0.215801         5.8723 
  65   0.0000       0.228521         6.2184 
  66   0.0000       0.237673         6.4674 
  67   0.0000       0.247067         6.7230 
  68   0.0000       0.258731         7.0404 
  69   0.0000       0.264488         7.1971 
  70   0.0000       0.272039         7.4026 
  71   0.0000       0.281134         7.6501 
  72   0.0000       0.284257         7.7350 
  73   0.0000       0.297993         8.1088 
  74   0.0000       0.304468         8.2850 
  75   0.0000       0.330243         8.9864 
  76   0.0000       0.338183         9.2024 
  77   0.0000       0.338552         9.2125 
  78   0.0000       0.343422         9.3450 
  79   0.0000       0.370442        10.0802 
  80   0.0000       0.373717        10.1694 
  81   0.0000       0.381937        10.3930 
  82   0.0000       0.385244        10.4830 
  83   0.0000       0.395166        10.7530 
  84   0.0000       0.400842        10.9075 
  85   0.0000       0.419563        11.4169 
  86   0.0000       0.428840        11.6693 
  87   0.0000       0.435330        11.8459 
  88   0.0000       0.443268        12.0619 
  89   0.0000       0.444227        12.0880 
  90   0.0000       0.463327        12.6078 
  91   0.0000       0.482875        13.1397 
  92   0.0000       0.492064        13.3897 
  93   0.0000       0.513138        13.9632 
  94   0.0000       0.534829        14.5534 
  95   0.0000       0.550676        14.9847 
  96   0.0000       0.552481        15.0338 
  97   0.0000       0.574654        15.6371 
  98   0.0000       0.589109        16.0305 
  99   0.0000       0.598319        16.2811 
 100   0.0000       0.616750        16.7826 
 101   0.0000       0.622841        16.9484 
 102   0.0000       0.625523        17.0213 
 103   0.0000       0.636385        17.3169 
 104   0.0000       0.644428        17.5358 
 105   0.0000       0.664702        18.0875 
 106   0.0000       0.675689        18.3864 
 107   0.0000       0.707516        19.2525 
 108   0.0000       0.729521        19.8513 
 109   0.0000       0.731116        19.8947 
 110   0.0000       0.733949        19.9718 
 111   0.0000       0.757789        20.6205 
 112   0.0000       0.759146        20.6574 
 113   0.0000       0.806586        21.9483 
 114   0.0000       0.836823        22.7711 
 115   0.0000       0.840717        22.8771 
 116   0.0000       0.878091        23.8941 
 117   0.0000       0.884497        24.0684 
 118   0.0000       0.907643        24.6982 
 119   0.0000       0.912869        24.8404 
 120   0.0000       0.940221        25.5847 
 121   0.0000       0.951923        25.9032 
 122   0.0000       0.961704        26.1693 
 123   0.0000       1.026560        27.9341 
 124   0.0000       1.044220        28.4147 
 125   0.0000       1.050223        28.5780 
 126   0.0000       1.055869        28.7316 
 127   0.0000       1.081269        29.4228 
 128   0.0000       1.112829        30.2816 
 129   0.0000       1.115578        30.3564 
 130   0.0000       1.178527        32.0693 
 131   0.0000       1.185093        32.2480 
 132   0.0000       1.193049        32.4645 
 133   0.0000       1.206107        32.8198 
 134   0.0000       1.240593        33.7582 
 135   0.0000       1.268301        34.5122 
 136   0.0000       1.276319        34.7304 
 137   0.0000       1.298699        35.3394 
 138   0.0000       1.328407        36.1478 
 139   0.0000       1.335916        36.3521 
 140   0.0000       1.357172        36.9305 
 141   0.0000       1.364232        37.1226 
 142   0.0000       1.373501        37.3749 
 143   0.0000       1.400599        38.1122 
 144   0.0000       1.423694        38.7407 
 145   0.0000       1.423732        38.7417 
 146   0.0000       1.458533        39.6887 
 147   0.0000       1.463101        39.8130 
 148   0.0000       1.474645        40.1271 
 149   0.0000       1.482735        40.3473 
 150   0.0000       1.499350        40.7994 
 151   0.0000       1.500217        40.8230 
 152   0.0000       1.515934        41.2507 
 153   0.0000       1.532201        41.6933 
 154   0.0000       1.538209        41.8568 
 155   0.0000       1.540280        41.9132 
 156   0.0000       1.555963        42.3399 
 157   0.0000       1.558748        42.4157 
 158   0.0000       1.575413        42.8692 
 159   0.0000       1.590556        43.2812 
 160   0.0000       1.605038        43.6753 
 161   0.0000       1.612001        43.8648 
 162   0.0000       1.631348        44.3912 
 163   0.0000       1.647802        44.8390 
 164   0.0000       1.655415        45.0461 
 165   0.0000       1.663849        45.2756 
 166   0.0000       1.681052        45.7437 
 167   0.0000       1.701976        46.3131 
 168   0.0000       1.729597        47.0647 
 169   0.0000       1.738113        47.2965 
 170   0.0000       1.760022        47.8926 
 171   0.0000       1.773275        48.2533 
 172   0.0000       1.797610        48.9155 
 173   0.0000       1.830211        49.8026 
 174   0.0000       1.854626        50.4669 
 175   0.0000       1.870607        50.9018 
 176   0.0000       1.893414        51.5224 
 177   0.0000       1.894964        51.5646 
 178   0.0000       1.927088        52.4387 
 179   0.0000       1.944591        52.9150 
 180   0.0000       1.947094        52.9831 
 181   0.0000       1.961124        53.3649 
 182   0.0000       1.981748        53.9261 
 183   0.0000       2.019064        54.9415 
 184   0.0000       2.059450        56.0405 
 185   0.0000       2.095828        57.0304 
 186   0.0000       2.099767        57.1376 
 187   0.0000       2.105341        57.2892 
 188   0.0000       2.156729        58.6876 
 189   0.0000       2.173438        59.1422 
 190   0.0000       2.191910        59.6449 
 191   0.0000       2.234194        60.7955 
 192   0.0000       2.240670        60.9717 
 193   0.0000       2.276871        61.9568 
 194   0.0000       2.316979        63.0482 
 195   0.0000       2.332861        63.4804 
 196   0.0000       2.360908        64.2436 
 197   0.0000       2.373027        64.5733 
 198   0.0000       2.406000        65.4706 
 199   0.0000       2.416969        65.7691 
 200   0.0000       2.437100        66.3169 
 201   0.0000       2.470284        67.2198 
 202   0.0000       2.506882        68.2157 
 203   0.0000       2.517071        68.4930 
 204   0.0000       2.532832        68.9219 
 205   0.0000       2.562083        69.7178 
 206   0.0000       2.583093        70.2895 
 207   0.0000       2.619233        71.2730 
 208   0.0000       2.626864        71.4806 
 209   0.0000       2.649401        72.0939 
 210   0.0000       2.663568        72.4794 
 211   0.0000       2.665014        72.5187 
 212   0.0000       2.702057        73.5267 
 213   0.0000       2.710603        73.7593 
 214   0.0000       2.743965        74.6671 
 215   0.0000       2.775527        75.5259 
 216   0.0000       2.787175        75.8429 
 217   0.0000       2.814916        76.5978 
 218   0.0000       2.818622        76.6986 
 219   0.0000       2.837528        77.2131 
 220   0.0000       2.851732        77.5996 
 221   0.0000       2.876848        78.2830 
 222   0.0000       2.888835        78.6092 
 223   0.0000       2.914124        79.2973 
 224   0.0000       2.917261        79.3827 
 225   0.0000       2.962937        80.6256 
 226   0.0000       2.971772        80.8660 
 227   0.0000       2.999336        81.6161 
 228   0.0000       3.021174        82.2103 
 229   0.0000       3.044414        82.8427 
 230   0.0000       3.070555        83.5540 
 231   0.0000       3.105332        84.5004 
 232   0.0000       3.105505        84.5051 
 233   0.0000       3.114045        84.7375 
 234   0.0000       3.116912        84.8155 
 235   0.0000       3.143606        85.5419 
 236   0.0000       3.170088        86.2625 
 237   0.0000       3.184629        86.6582 
 238   0.0000       3.209030        87.3222 
 239   0.0000       3.216839        87.5346 
 240   0.0000       3.224470        87.7423 
 241   0.0000       3.247896        88.3798 
 242   0.0000       3.263962        88.8169 
 243   0.0000       3.276110        89.1475 
 244   0.0000       3.289198        89.5036 
 245   0.0000       3.310055        90.0712 
 246   0.0000       3.322711        90.4156 
 247   0.0000       3.358735        91.3958 
 248   0.0000       3.367316        91.6293 
 249   0.0000       3.374386        91.8217 
 250   0.0000       3.380181        91.9794 
 251   0.0000       3.408246        92.7431 
 252   0.0000       3.444577        93.7317 
 253   0.0000       3.451357        93.9162 
 254   0.0000       3.487247        94.8928 
 255   0.0000       3.506410        95.4143 
 256   0.0000       3.510095        95.5146 
 257   0.0000       3.547641        96.5362 
 258   0.0000       3.553985        96.7088 
 259   0.0000       3.571447        97.1840 
 260   0.0000       3.593970        97.7969 
 261   0.0000       3.639707        99.0415 
 262   0.0000       3.708535       100.9144 
 263   0.0000       3.747342       101.9704 
 264   0.0000       3.772534       102.6559 
 265   0.0000       3.817452       103.8781 
 266   0.0000       3.857054       104.9558 
 267   0.0000       3.870037       105.3091 
 268   0.0000       3.907557       106.3300 
 269   0.0000       3.965946       107.9189 
 270   0.0000       3.998601       108.8075 
 271   0.0000       4.022373       109.4543 
 272   0.0000       4.030512       109.6758 
 273   0.0000       4.065109       110.6172 
 274   0.0000       4.079751       111.0157 
 275   0.0000       4.137496       112.5870 
 276   0.0000       4.139815       112.6501 
 277   0.0000       4.161306       113.2349 
 278   0.0000       4.171587       113.5146 
 279   0.0000       4.176480       113.6478 
 280   0.0000       4.235999       115.2674 
 281   0.0000       4.254753       115.7777 
 282   0.0000       4.281974       116.5184 
 283   0.0000       4.328589       117.7869 
 284   0.0000       4.365981       118.8044 
 285   0.0000       4.388162       119.4079 
 286   0.0000       4.392041       119.5135 
 287   0.0000       4.455335       121.2358 
 288   0.0000       4.488300       122.1328 
 289   0.0000       4.506127       122.6180 
 290   0.0000       4.513998       122.8321 
 291   0.0000       4.551973       123.8655 
 292   0.0000       4.616589       125.6238 
 293   0.0000       4.701776       127.9418 
 294   0.0000       4.756139       129.4211 
 295   0.0000       4.788158       130.2924 
 296   0.0000       4.866936       132.4361 
 297   0.0000       4.904415       133.4559 
 298   0.0000       4.928801       134.1195 
 299   0.0000       4.983467       135.6070 
 300   0.0000       5.027736       136.8116 
 301   0.0000       5.087226       138.4305 
 302   0.0000       5.098433       138.7354 
 303   0.0000       5.230738       142.3356 
 304   0.0000       5.282993       143.7575 
 305   0.0000       5.292535       144.0172 
 306   0.0000       5.363466       145.9473 
 307   0.0000       5.376798       146.3101 
 308   0.0000       5.529783       150.4730 
 309   0.0000       5.575155       151.7077 
 310   0.0000       5.684005       154.6696 
 311   0.0000       5.750562       156.4807 
 312   0.0000       5.795681       157.7085 
 313   0.0000       5.900954       160.5731 
 314   0.0000       5.927289       161.2897 
 315   0.0000       6.028261       164.0373 
 316   0.0000       6.348835       172.7606 
 317   0.0000       6.543632       178.0613 
 318   0.0000       6.620915       180.1643 
 319   0.0000       6.753639       183.7759 
 320   0.0000       6.836029       186.0178 
 321   0.0000       7.146467       194.4652 
 322   0.0000       7.374294       200.6647 
 323   0.0000       7.721694       210.1180 
 324   0.0000      22.315324       607.2308 
 325   0.0000      22.365976       608.6092 
 326   0.0000      22.666365       616.7832 
 327   0.0000      22.738423       618.7439 
 328   0.0000      22.861224       622.0855 
 329   0.0000      23.155503       630.0933 
 330   0.0000      32.461742       883.3289 
 331   0.0000      44.174370      1202.0457 

                    ********************************
                    * MULLIKEN POPULATION ANALYSIS *
                    ********************************

-----------------------
MULLIKEN ATOMIC CHARGES
-----------------------
   0 C :   -0.192998
   1 O :   -0.271523
   2 C :    0.289229
   3 C :   -0.159234
   4 C :   -0.148804
   5 C :    0.123685
   6 Br:   -0.085983
   7 N :   -0.179705
   8 C :   -0.146291
   9 H :    0.136036
  10 H :    0.123361
  11 H :    0.123360
  12 H :    0.127023
  13 H :    0.129471
  14 H :    0.132373
Sum of atomic charges:    0.0000000

--------------------------------
MULLIKEN REDUCED ORBITAL CHARGES
--------------------------------
  0 C s       :     3.269062  s :     3.269062
      pz      :     1.054658  p :     2.829515
      px      :     0.971315
      py      :     0.803542
      dz2     :     0.005054  d :     0.086383
      dxz     :     0.009637
      dyz     :     0.033642
      dx2y2   :     0.024562
      dxy     :     0.013487
      f0      :     0.001042  f :     0.008039
      f+1     :     0.000369
      f-1     :     0.001572
      f+2     :    -0.000007
      f-2     :     0.001653
      f+3     :     0.001366
      f-3     :     0.002044
  1 O s       :     3.760098  s :     3.760098
      pz      :     1.750695  p :     4.466953
      px      :     1.230544
      py      :     1.485714
      dz2     :     0.004700  d :     0.042326
      dxz     :     0.007310
      dyz     :     0.004309
      dx2y2   :     0.014016
      dxy     :     0.011991
      f0      :     0.000285  f :     0.002145
      f+1     :     0.000373
      f-1     :     0.000212
      f+2     :     0.000214
      f-2     :     0.000126
      f+3     :     0.000487
      f-3     :     0.000448
  2 C s       :     3.049903  s :     3.049903
      pz      :     0.937652  p :     2.482991
      px      :     0.674308
      py      :     0.871031
      dz2     :     0.006237  d :     0.162008
      dxz     :     0.048637
      dyz     :     0.021232
      dx2y2   :     0.040480
      dxy     :     0.045422
      f0      :     0.002449  f :     0.015869
      f+1     :     0.001302
      f-1     :     0.000622
      f+2     :     0.002539
      f-2     :     0.001186
      f+3     :     0.002488
      f-3     :     0.005284
  3 C s       :     3.245241  s :     3.245241
      pz      :     0.959422  p :     2.837851
      px      :     0.916146
      py      :     0.962283
      dz2     :     0.004581  d :     0.068595
      dxz     :     0.019338
      dyz     :     0.008550
      dx2y2   :     0.013832
      dxy     :     0.022293
      f0      :     0.001581  f :     0.007548
      f+1     :     0.000527
      f-1     :     0.000613
      f+2     :     0.000812
      f-2     :     0.000578
      f+3     :     0.001349
      f-3     :     0.002087
  4 C s       :     3.218097  s :     3.218097
      pz      :     0.970359  p :     2.840550
      px      :     0.940928
      py      :     0.929262
      dz2     :     0.005597  d :     0.082619
      dxz     :     0.017098
      dyz     :     0.010263
      dx2y2   :     0.014652
      dxy     :     0.035010
      f0      :     0.001563  f :     0.007539
      f+1     :     0.000535
      f-1     :     0.000620
      f+2     :     0.001103
      f-2     :     0.000248
      f+3     :     0.001332
      f-3     :     0.002137
  5 C s       :     3.160813  s :     3.160813
      pz      :     0.966674  p :     2.520875
      px      :     0.753592
      py      :     0.800609
      dz2     :     0.006096  d :     0.181231
      dxz     :     0.026851
      dyz     :     0.030355
      dx2y2   :     0.072823
      dxy     :     0.045106
      f0      :     0.002192  f :     0.013397
      f+1     :     0.001042
      f-1     :     0.000871
      f+2     :     0.000888
      f-2     :     0.001559
      f+3     :     0.002314
      f-3     :     0.004532
  6 Brs       :     7.915829  s :     7.915829
      pz      :     5.930978  p :    17.113087
      px      :     5.212531
      py      :     5.969578
      dz2     :     2.006707  d :    10.049737
      dxz     :     2.016364
      dyz     :     2.000715
      dx2y2   :     2.018449
      dxy     :     2.007502
      f0      :     0.000756  f :     0.007330
      f+1     :     0.001491
      f-1     :     0.000100
      f+2     :     0.001081
      f-2     :     0.000096
      f+3     :     0.002525
      f-3     :     0.001281
  7 N s       :     3.552976  s :     3.552976
      pz      :     1.099130  p :     3.555510
      px      :     1.069404
      py      :     1.386976
      dz2     :     0.005774  d :     0.067251
      dxz     :     0.015275
      dyz     :     0.011086
      dx2y2   :     0.017415
      dxy     :     0.017701
      f0      :     0.000667  f :     0.003967
      f+1     :     0.000303
      f-1     :     0.000214
      f+2     :     0.000545
      f-2     :     0.000479
      f+3     :     0.000692
      f-3     :     0.001067
  8 C s       :     3.233923  s :     3.233923
      pz      :     1.005437  p :     2.805669
      px      :     0.866570
      py      :     0.933663
      dz2     :     0.004232  d :     0.096101
      dxz     :     0.023842
      dyz     :     0.010186
      dx2y2   :     0.021089
      dxy     :     0.036752
      f0      :     0.001808  f :     0.010597
      f+1     :     0.001032
      f-1     :     0.000625
      f+2     :     0.001451
      f-2     :     0.000339
      f+3     :     0.002064
      f-3     :     0.003280
  9 H s       :     0.843055  s :     0.843055
      pz      :     0.004478  p :     0.020909
      px      :     0.012574
      py      :     0.003857
 10 H s       :     0.856432  s :     0.856432
      pz      :     0.010042  p :     0.020207
      px      :     0.003799
      py      :     0.006367
 11 H s       :     0.856433  s :     0.856433
      pz      :     0.010042  p :     0.020207
      px      :     0.003799
      py      :     0.006366
 12 H s       :     0.850600  s :     0.850600
      pz      :     0.004564  p :     0.022376
      px      :     0.005717
      py      :     0.012095
 13 H s       :     0.847880  s :     0.847880
      pz      :     0.004668  p :     0.022649
      px      :     0.007534
      py      :     0.010447
 14 H s       :     0.845037  s :     0.845037
      pz      :     0.005036  p :     0.022591
      px      :     0.005865
      py      :     0.011689


                     *******************************
                     * LOEWDIN POPULATION ANALYSIS *
                     *******************************

----------------------
LOEWDIN ATOMIC CHARGES
----------------------
   0 C :   -0.319645
   1 O :    0.249156
   2 C :   -0.265070
   3 C :   -0.087586
   4 C :   -0.146747
   5 C :   -0.482360
   6 Br:    0.324793
   7 N :    0.152797
   8 C :   -0.201771
   9 H :    0.115496
  10 H :    0.108652
  11 H :    0.108654
  12 H :    0.153543
  13 H :    0.149360
  14 H :    0.140729

-------------------------------
LOEWDIN REDUCED ORBITAL CHARGES
-------------------------------
  0 C s       :     2.857295  s :     2.857295
      pz      :     1.102660  p :     3.017567
      px      :     0.996113
      py      :     0.918794
      dz2     :     0.047462  d :     0.388060
      dxz     :     0.021381
      dyz     :     0.132342
      dx2y2   :     0.111754
      dxy     :     0.075121
      f0      :     0.006179  f :     0.056724
      f+1     :     0.004766
      f-1     :     0.006895
      f+2     :     0.002149
      f-2     :     0.010938
      f+3     :     0.011924
      f-3     :     0.013873
  1 O s       :     3.237482  s :     3.237482
      pz      :     1.617736  p :     4.392036
      px      :     1.292166
      py      :     1.482133
      dz2     :     0.010404  d :     0.114399
      dxz     :     0.019786
      dyz     :     0.010215
      dx2y2   :     0.037815
      dxy     :     0.036179
      f0      :     0.000745  f :     0.006927
      f+1     :     0.000846
      f-1     :     0.000326
      f+2     :     0.000744
      f-2     :     0.000587
      f+3     :     0.001484
      f-3     :     0.002194
  2 C s       :     2.712047  s :     2.712047
      pz      :     0.862136  p :     2.780028
      px      :     0.837301
      py      :     1.080591
      dz2     :     0.047787  d :     0.675034
      dxz     :     0.138549
      dyz     :     0.072229
      dx2y2   :     0.208758
      dxy     :     0.207710
      f0      :     0.006669  f :     0.097961
      f+1     :     0.009273
      f-1     :     0.004927
      f+2     :     0.017266
      f-2     :     0.007920
      f+3     :     0.017187
      f-3     :     0.034720
  3 C s       :     2.761560  s :     2.761560
      pz      :     0.870817  p :     2.908888
      px      :     1.046941
      py      :     0.991131
      dz2     :     0.026917  d :     0.372744
      dxz     :     0.065700
      dyz     :     0.024049
      dx2y2   :     0.113506
      dxy     :     0.142573
      f0      :     0.003273  f :     0.044394
      f+1     :     0.004362
      f-1     :     0.003618
      f+2     :     0.005509
      f-2     :     0.003995
      f+3     :     0.009184
      f-3     :     0.014453
  4 C s       :     2.768699  s :     2.768699
      pz      :     0.885786  p :     2.950210
      px      :     1.051257
      py      :     1.013167
      dz2     :     0.027569  d :     0.382867
      dxz     :     0.056002
      dyz     :     0.034589
      dx2y2   :     0.105542
      dxy     :     0.159165
      f0      :     0.003357  f :     0.044970
      f+1     :     0.004196
      f-1     :     0.003977
      f+2     :     0.007763
      f-2     :     0.002031
      f+3     :     0.009280
      f-3     :     0.014367
  5 C s       :     2.790437  s :     2.790437
      pz      :     0.912545  p :     2.947822
      px      :     0.963177
      py      :     1.072100
      dz2     :     0.045331  d :     0.667174
      dxz     :     0.075145
      dyz     :     0.093521
      dx2y2   :     0.279201
      dxy     :     0.173976
      f0      :     0.005011  f :     0.076927
      f+1     :     0.004813
      f-1     :     0.006460
      f+2     :     0.005064
      f-2     :     0.010647
      f+3     :     0.014438
      f-3     :     0.030495
  6 Brs       :     7.599607  s :     7.599607
      pz      :     5.866186  p :    16.946980
      px      :     5.204808
      py      :     5.875986
      dz2     :     2.016104  d :    10.114148
      dxz     :     2.033203
      dyz     :     2.000884
      dx2y2   :     2.041690
      dxy     :     2.022267
      f0      :     0.001432  f :     0.014473
      f+1     :     0.002837
      f-1     :     0.000214
      f+2     :     0.002113
      f-2     :     0.000115
      f+3     :     0.004897
      f-3     :     0.002865
  7 N s       :     3.028614  s :     3.028614
      pz      :     1.010099  p :     3.572268
      px      :     1.190480
      py      :     1.371689
      dz2     :     0.018337  d :     0.226808
      dxz     :     0.048966
      dyz     :     0.019859
      dx2y2   :     0.069483
      dxy     :     0.070162
      f0      :     0.001254  f :     0.019513
      f+1     :     0.002014
      f-1     :     0.001086
      f+2     :     0.002719
      f-2     :     0.002003
      f+3     :     0.004157
      f-3     :     0.006280
  8 C s       :     2.767867  s :     2.767867
      pz      :     0.917530  p :     2.899069
      px      :     0.966658
      py      :     1.014881
      dz2     :     0.032714  d :     0.473068
      dxz     :     0.073416
      dyz     :     0.030044
      dx2y2   :     0.126710
      dxy     :     0.210183
      f0      :     0.004288  f :     0.061767
      f+1     :     0.006340
      f-1     :     0.003900
      f+2     :     0.009838
      f-2     :     0.002497
      f+3     :     0.011710
      f-3     :     0.023195
  9 H s       :     0.824163  s :     0.824163
      pz      :     0.013513  p :     0.060341
      px      :     0.034467
      py      :     0.012361
 10 H s       :     0.830173  s :     0.830173
      pz      :     0.030507  p :     0.061174
      px      :     0.012086
      py      :     0.018581
 11 H s       :     0.830173  s :     0.830173
      pz      :     0.030506  p :     0.061173
      px      :     0.012086
      py      :     0.018581
 12 H s       :     0.787425  s :     0.787425
      pz      :     0.012921  p :     0.059032
      px      :     0.015580
      py      :     0.030531
 13 H s       :     0.790732  s :     0.790732
      pz      :     0.013403  p :     0.059908
      px      :     0.019477
      py      :     0.027028
 14 H s       :     0.798953  s :     0.798953
      pz      :     0.014478  p :     0.060318
      px      :     0.015585
      py      :     0.030255


                      *****************************
                      * MAYER POPULATION ANALYSIS *
                      *****************************

  NA   - Mulliken gross atomic population
  ZA   - Total nuclear charge
  QA   - Mulliken gross atomic charge
  VA   - Mayer's total valence
  BVA  - Mayer's bonded valence
  FA   - Mayer's free valence

  ATOM       NA         ZA         QA         VA         BVA        FA
  0 C      6.1930     6.0000    -0.1930     3.8563     3.8563     0.0000
  1 O      8.2715     8.0000    -0.2715     2.1078     2.1078     0.0000
  2 C      5.7108     6.0000     0.2892     3.8119     3.8119     0.0000
  3 C      6.1592     6.0000    -0.1592     3.9147     3.9147     0.0000
  4 C      6.1488     6.0000    -0.1488     3.8840     3.8840     0.0000
  5 C      5.8763     6.0000     0.1237     4.0665     4.0665     0.0000
  6 Br    35.0860    35.0000    -0.0860     1.1728     1.1728    -0.0000
  7 N      7.1797     7.0000    -0.1797     3.1272     3.1272     0.0000
  8 C      6.1463     6.0000    -0.1463     3.9843     3.9843     0.0000
  9 H      0.8640     1.0000     0.1360     0.9678     0.9678     0.0000
 10 H      0.8766     1.0000     0.1234     0.9580     0.9580     0.0000
 11 H      0.8766     1.0000     0.1234     0.9580     0.9580     0.0000
 12 H      0.8730     1.0000     0.1270     0.9841     0.9841     0.0000
 13 H      0.8705     1.0000     0.1295     0.9762     0.9762     0.0000
 14 H      0.8676     1.0000     0.1324     0.9777     0.9777     0.0000

  Mayer bond orders larger than 0.100000
B(  0-C ,  1-O ) :   0.9263 B(  0-C ,  9-H ) :   0.9729 B(  0-C , 10-H ) :   0.9656 
B(  0-C , 11-H ) :   0.9656 B(  1-O ,  2-C ) :   1.1244 B(  2-C ,  3-C ) :   1.3502 
B(  2-C ,  8-C ) :   1.3023 B(  3-C ,  4-C ) :   1.4437 B(  3-C , 12-H ) :   0.9649 
B(  4-C ,  5-C ) :   1.3379 B(  4-C , 13-H ) :   0.9622 B(  5-C ,  6-Br) :   1.0318 
B(  5-C ,  7-N ) :   1.5387 B(  7-N ,  8-C ) :   1.4498 B(  8-C , 14-H ) :   0.9878 


-------
TIMINGS
-------

Total SCF time: 0 days 0 hours 0 min 22 sec 

Total time                  ....      22.441 sec
Sum of individual times     ....      21.843 sec  ( 97.3%)

Fock matrix formation       ....      19.823 sec  ( 88.3%)
  Split-RI-J                ....       2.101 sec  ( 10.6% of F)
  Chain of spheres X        ....      14.994 sec  ( 75.6% of F)
  XC integration            ....       2.533 sec  ( 12.8% of F)
    Basis function eval.    ....       0.597 sec  ( 23.6% of XC)
    Density eval.           ....       0.568 sec  ( 22.4% of XC)
    XC-Functional eval.     ....       0.086 sec  (  3.4% of XC)
    XC-Potential eval.      ....       0.728 sec  ( 28.8% of XC)
Diagonalization             ....       0.237 sec  (  1.1%)
Density matrix formation    ....       0.017 sec  (  0.1%)
Population analysis         ....       0.029 sec  (  0.1%)
Initial guess               ....       0.187 sec  (  0.8%)
Orbital Transformation      ....       0.000 sec  (  0.0%)
Orbital Orthonormalization  ....       0.000 sec  (  0.0%)
DIIS solution               ....       0.138 sec  (  0.6%)
SOSCF solution              ....       0.157 sec  (  0.7%)
Grid generation             ....       1.254 sec  (  5.6%)

Maximum memory used throughout the entire SCF-calculation: 80.0 MB

-------------------------   --------------------
FINAL SINGLE POINT ENERGY     -2936.178942225138
-------------------------   --------------------


                            ***************************************
                            *     ORCA property calculations      *
                            ***************************************

                                    ---------------------
                                    Active property flags
                                    ---------------------
   (+) Dipole Moment
   (+) Chemical Shifts
   (+) Nuclear properties (Hyperfine,Quadrupole)


------------------------------------------------------------------------------
                       ORCA ELECTRIC PROPERTIES CALCULATION
------------------------------------------------------------------------------

Dipole Moment Calculation                       ... on
Quadrupole Moment Calculation                   ... off
Polarizability Calculation                      ... off
GBWName                                         ... arbr_18_r2scan3c_nmr.gbw
Electron density                                ... arbr_18_r2scan3c_nmr.scfp
The origin for moment calculation is the CENTER OF MASS  = ( 0.414918, -0.012521 -0.000000)

-------------
DIPOLE MOMENT
-------------
                                X             Y             Z
Electronic contribution:     36.76670      -0.81954      -0.00000
Nuclear contribution   :    -38.17253       1.15166       0.00001
                        -----------------------------------------
Total Dipole Moment    :     -1.40583       0.33213       0.00001
                        -----------------------------------------
Magnitude (a.u.)       :      1.44453
Magnitude (Debye)      :      3.67170



--------------------
Rotational spectrum 
--------------------
 
Rotational constants in cm-1:     0.162686     0.015736     0.014387 
Rotational constants in MHz :  4877.212839   471.749159   431.321503 

 Dipole components along the rotational axes: 
x,y,z [a.u.] :    -1.411346     0.307843     0.000007 
x,y,z [Debye]:    -3.587357     0.782473     0.000019 

 


           ************************************************************
           *        Program running with 16 parallel MPI-processes    *
           *              working on a common directory               *
           ************************************************************
------------------------------------------------------------------------------
                                ORCA EPR/NMR CALCULATION
------------------------------------------------------------------------------

GBWName                      ... arbr_18_r2scan3c_nmr.gbw
Electron density             ... arbr_18_r2scan3c_nmr.scfp
Spin density                 ... arbr_18_r2scan3c_nmr.scfr
Treatment of gauge           ... GIAO (approximations 1/2el = 0,0)
Details of the CP(SCF) procedure:
       Solver   = POPLE   
       MaxIter  =    64   
       Tolerance=    1.000e-03
       COSX Grid=     1   
       Op-0     =   0- 45 =>  46-331
Multiplicity                 ... 1
g-tensor                     ... 0
NMR chemical shifts          ... 1
NMR spin-spin couplings      ... 0
NMR spectrum                 ... 0
Number of nuclei for epr/nmr ... 15
   Nucleus:   0C 
       Hyperfine : Isotope=   13 I=   0.500 P= 134.188
       Quadrupole: Isotope=   13 I=   0.500 Q=   0.000
       Spin-Orbit: Zeff=   3.600
       Nuclear Spin-Spin: Gn=   0.000
       EPRNMR Input: 
       rho(0)=N f(grad)=N a(iso)=N a(dip)=N a(orb)=N sigma(nmr)=Y spin-spin(nmr)=all-N,DSO-N,PSO-N,FC-N,SD-N
   Nucleus:   1O 
       Hyperfine : Isotope=   17 I=   2.500 P= -72.357
       Quadrupole: Isotope=   17 I=   2.500 Q=  -0.026
       Spin-Orbit: Zeff=   5.600
       Nuclear Spin-Spin: Gn=   0.000
       EPRNMR Input: 
       rho(0)=N f(grad)=N a(iso)=N a(dip)=N a(orb)=N sigma(nmr)=Y spin-spin(nmr)=all-N,DSO-N,PSO-N,FC-N,SD-N
   Nucleus:   2C 
       Hyperfine : Isotope=   13 I=   0.500 P= 134.188
       Quadrupole: Isotope=   13 I=   0.500 Q=   0.000
       Spin-Orbit: Zeff=   3.600
       Nuclear Spin-Spin: Gn=   0.000
       EPRNMR Input: 
       rho(0)=N f(grad)=N a(iso)=N a(dip)=N a(orb)=N sigma(nmr)=Y spin-spin(nmr)=all-N,DSO-N,PSO-N,FC-N,SD-N
   Nucleus:   3C 
       Hyperfine : Isotope=   13 I=   0.500 P= 134.188
       Quadrupole: Isotope=   13 I=   0.500 Q=   0.000
       Spin-Orbit: Zeff=   3.600
       Nuclear Spin-Spin: Gn=   0.000
       EPRNMR Input: 
       rho(0)=N f(grad)=N a(iso)=N a(dip)=N a(orb)=N sigma(nmr)=Y spin-spin(nmr)=all-N,DSO-N,PSO-N,FC-N,SD-N
   Nucleus:   4C 
       Hyperfine : Isotope=   13 I=   0.500 P= 134.188
       Quadrupole: Isotope=   13 I=   0.500 Q=   0.000
       Spin-Orbit: Zeff=   3.600
       Nuclear Spin-Spin: Gn=   0.000
       EPRNMR Input: 
       rho(0)=N f(grad)=N a(iso)=N a(dip)=N a(orb)=N sigma(nmr)=Y spin-spin(nmr)=all-N,DSO-N,PSO-N,FC-N,SD-N
   Nucleus:   5C 
       Hyperfine : Isotope=   13 I=   0.500 P= 134.188
       Quadrupole: Isotope=   13 I=   0.500 Q=   0.000
       Spin-Orbit: Zeff=   3.600
       Nuclear Spin-Spin: Gn=   0.000
       EPRNMR Input: 
       rho(0)=N f(grad)=N a(iso)=N a(dip)=N a(orb)=N sigma(nmr)=Y spin-spin(nmr)=all-N,DSO-N,PSO-N,FC-N,SD-N
   Nucleus:   6Br
       Hyperfine : Isotope=   79 I=   1.500 P= 134.140
       Quadrupole: Isotope=   79 I=   1.500 Q=   0.313
       Spin-Orbit: Zeff=  30.100
       Nuclear Spin-Spin: Gn=   0.000
       EPRNMR Input: 
       rho(0)=N f(grad)=N a(iso)=N a(dip)=N a(orb)=N sigma(nmr)=Y spin-spin(nmr)=all-N,DSO-N,PSO-N,FC-N,SD-N
   Nucleus:   7N 
       Hyperfine : Isotope=   14 I=   1.000 P=  38.571
       Quadrupole: Isotope=   14 I=   1.000 Q=   0.020
       Spin-Orbit: Zeff=   4.550
       Nuclear Spin-Spin: Gn=   0.000
       EPRNMR Input: 
       rho(0)=N f(grad)=N a(iso)=N a(dip)=N a(orb)=N sigma(nmr)=Y spin-spin(nmr)=all-N,DSO-N,PSO-N,FC-N,SD-N
   Nucleus:   8C 
       Hyperfine : Isotope=   13 I=   0.500 P= 134.188
       Quadrupole: Isotope=   13 I=   0.500 Q=   0.000
       Spin-Orbit: Zeff=   3.600
       Nuclear Spin-Spin: Gn=   0.000
       EPRNMR Input: 
       rho(0)=N f(grad)=N a(iso)=N a(dip)=N a(orb)=N sigma(nmr)=Y spin-spin(nmr)=all-N,DSO-N,PSO-N,FC-N,SD-N
   Nucleus:   9H 
       Hyperfine : Isotope=    1 I=   0.500 P= 533.552
       Quadrupole: Isotope=    2 I=   1.000 Q=   0.003
       Spin-Orbit: Zeff=   1.000
       Nuclear Spin-Spin: Gn=   0.000
       EPRNMR Input: 
       rho(0)=N f(grad)=N a(iso)=N a(dip)=N a(orb)=N sigma(nmr)=Y spin-spin(nmr)=all-N,DSO-N,PSO-N,FC-N,SD-N
   Nucleus:  10H 
       Hyperfine : Isotope=    1 I=   0.500 P= 533.552
       Quadrupole: Isotope=    2 I=   1.000 Q=   0.003
       Spin-Orbit: Zeff=   1.000
       Nuclear Spin-Spin: Gn=   0.000
       EPRNMR Input: 
       rho(0)=N f(grad)=N a(iso)=N a(dip)=N a(orb)=N sigma(nmr)=Y spin-spin(nmr)=all-N,DSO-N,PSO-N,FC-N,SD-N
   Nucleus:  11H 
       Hyperfine : Isotope=    1 I=   0.500 P= 533.552
       Quadrupole: Isotope=    2 I=   1.000 Q=   0.003
       Spin-Orbit: Zeff=   1.000
       Nuclear Spin-Spin: Gn=   0.000
       EPRNMR Input: 
       rho(0)=N f(grad)=N a(iso)=N a(dip)=N a(orb)=N sigma(nmr)=Y spin-spin(nmr)=all-N,DSO-N,PSO-N,FC-N,SD-N
   Nucleus:  12H 
       Hyperfine : Isotope=    1 I=   0.500 P= 533.552
       Quadrupole: Isotope=    2 I=   1.000 Q=   0.003
       Spin-Orbit: Zeff=   1.000
       Nuclear Spin-Spin: Gn=   0.000
       EPRNMR Input: 
       rho(0)=N f(grad)=N a(iso)=N a(dip)=N a(orb)=N sigma(nmr)=Y spin-spin(nmr)=all-N,DSO-N,PSO-N,FC-N,SD-N
   Nucleus:  13H 
       Hyperfine : Isotope=    1 I=   0.500 P= 533.552
       Quadrupole: Isotope=    2 I=   1.000 Q=   0.003
       Spin-Orbit: Zeff=   1.000
       Nuclear Spin-Spin: Gn=   0.000
       EPRNMR Input: 
       rho(0)=N f(grad)=N a(iso)=N a(dip)=N a(orb)=N sigma(nmr)=Y spin-spin(nmr)=all-N,DSO-N,PSO-N,FC-N,SD-N
   Nucleus:  14H 
       Hyperfine : Isotope=    1 I=   0.500 P= 533.552
       Quadrupole: Isotope=    2 I=   1.000 Q=   0.003
       Spin-Orbit: Zeff=   1.000
       Nuclear Spin-Spin: Gn=   0.000
       EPRNMR Input: 
       rho(0)=N f(grad)=N a(iso)=N a(dip)=N a(orb)=N sigma(nmr)=Y spin-spin(nmr)=all-N,DSO-N,PSO-N,FC-N,SD-N
Forming RHS of the CP-SCF equations         ... 
Calculating right hand sides for GIAO treatment        ... 
  Entering RightHandSide GIAO. ScalHFX=    0.2000 NeedHFX=1
     -> 1-electron GIAO integrals will be done analytically
     -> RIJCOSX used in SCF. Same chosen for GIAO calculation.
     Making grid for GIAO integrations   ...

GRID GIAO
---------

General Integration Accuracy     IntAcc      ... 4.388
Radial Grid Type                 RadialGrid  ... OptM3 with GC (2021)
Angular Grid (max. ang.)         AngularGrid ... 4 (Lebedev-302)
Angular grid pruning method      GridPruning ... 4 (adaptive)
Weight generation scheme         WeightScheme... Becke
Basis function cutoff            BFCut       ... 1.0000e-10
Integration weight cutoff        WCut        ... 1.0000e-14
Angular grids for H and He will be reduced by one unit
Partially contracted basis set               ... off
Rotationally invariant grid construction     ... off

Total number of grid points                  ...    78791
Total number of batches                      ...     1241
Average number of points per batch           ...       63
Average number of grid points per atom       ...     5253

  One-electron GIAO integrals (SHARK)     ... done
  Calculating G(B)[P]                     ... (RI-J: SHARK-ok) (COSX-ok) (add-J+K:ok) => dG/dB done
  DFT XC-terms                            ... done
  Extracting occupied and virtual blocks  ... 
  Operator  0  NO=  46 NV= 286 
  Transforming and RHS contribution       ... done
  Adding eps_i * S(B)_ai terms            ... done
  Projecting overlap derivatives          ... done
  Building G[dS/dB_ij] (COSX)             ... done
  Transforming to MO basis                ... done
  Summing G[dS/dB_ij] into RHS contribs.  ... done

  GIAO profiling information: 
    Total GIAO time               ...       7.5 sec
       GIAO 1-electron integrals  ...       0.0 sec (  0.5%)
       GIAO G(dS/dB) terms        ...       0.7 sec (  9.2%)
       GIAO RI-J                  ...       1.0 sec ( 13.9%)
       GIAO COSX                  ...       2.1 sec ( 28.5%)
       GIAO XC-terms              ...       2.9 sec ( 38.6%)
       Right hand side assembly   ...       0.0 sec (  0.5%)

  GIAO right hand side done


------------------------------------------------------------------------------
                           ORCA CP-SCF CALCULATION
------------------------------------------------------------------------------

Input orbitals are from        ... arbr_18_r2scan3c_nmr.gbw
Input Perturbation             ... arbr_18_r2scan3c_nmr.pin.tmp
Wavefunction output            ... arbr_18_r2scan3c_nmr.pout.tmp
Perturbation mode              ... Imaginary perturbation
Solver                         ... POPLE
Max. number of iterations      ... 64
Convergence tolerance          ... 1.000e-03
Integral handling              ... Direct
DFT GridXC                     ... 1
COSX GridX                     ... 1
COSX IntAccX                   ... 3.067
COSX Algorithm                 ... Auto
Number of perturbations        ... 3
Number of operators            ... 1
Orbital ranges used for CP-SCF:
 Operator 0:  Orbitals   0... 45  to  46...331
Variables per perturbation     ... 13156
DFT calculation                         ... on
XC functional terms                     ... off
Hybrid DFT                              ... on
   Exchange mixing (SCF)                ...  0.200
   Exchange mixing (CP-SCF)             ...  0.200
   GGA exch. scaling(SCF)               ...  0.720
   GGA exch. scaling (CP-SCF)           ...  0.720
   GGA corr. scaling (SCF)              ...  0.810
   GGA corr. scaling (CP-SCF)           ...  0.810

CP-SCF GRID
-----------

General Integration Accuracy     IntAcc      ... 3.467
Radial Grid Type                 RadialGrid  ... OptM3 with GC (2021)
Angular Grid (max. ang.)         AngularGrid ... 1 (Lebedev-50)
Angular grid pruning method      GridPruning ... 4 (adaptive)
Weight generation scheme         WeightScheme... Becke
Basis function cutoff            BFCut       ... 1.0000e-10
Integration weight cutoff        WCut        ... 1.0000e-14
Angular grids for H and He will be reduced by one unit
Partially contracted basis set               ... off
Rotationally invariant grid construction     ... off

Total number of grid points                  ...    14291
Total number of batches                      ...      231
Average number of points per batch           ...       61
Average number of grid points per atom       ...      953

CP-SCF GRIDX
------------

General Integration Accuracy     IntAcc      ... 3.067
Radial Grid Type                 RadialGrid  ... OptM3 with GC (2021)
Angular Grid (max. ang.)         AngularGrid ... 1 (Lebedev-50)
Angular grid pruning method      GridPruning ... 4 (adaptive)
Weight generation scheme         WeightScheme... Becke
Basis function cutoff            BFCut       ... 1.0000e-10
Integration weight cutoff        WCut        ... 1.0000e-14
Angular grids for H and He will be reduced by one unit
Partially contracted basis set               ... on
Rotationally invariant grid construction     ... off

Total number of grid points                  ...     5390
Total number of batches                      ...       94
Average number of points per batch           ...       57
Average number of grid points per atom       ...      359

Memory available               ... 3971.6 MB
Memory needed per perturbation ...   3.4 MB
Perturbations treated per batch... 3
Number of batches              ... 1
     CP-SCF ITERATION   0:   5.0152e-01 (   0.7 sec   0/  3 done)
     CP-SCF ITERATION   1:   1.8758e-02 (   0.6 sec   0/  3 done)
     CP-SCF ITERATION   2:   1.5183e-03 (   0.5 sec   1/  3 done)
     CP-SCF ITERATION   3:   1.1984e-04 (   0.3 sec   3/  3 done)
                    *** THE CP-SCF HAS CONVERGED ***

Forming final perturbed densities           ... done
Transforming perturbed density to AO basis  ... done

Magnetic field perturbation calculated in 10.014 sec

---------------
CHEMICAL SHIFTS
---------------

Note: using conversion factor for au to ppm alpha^2/2 =   26.625677252 
GIAO: Analytic para- and diamagnetic shielding integrals (SHARK)       ...done
 --------------
 Nucleus   0C :
 --------------

Diamagnetic contribution to the shielding tensor (ppm) : 
           244.499          8.569        -0.000
            18.361        245.468        -0.000
             0.001         -0.000       241.459

Paramagnetic contribution to the shielding tensor (ppm): 
          -117.054         31.484        -0.001
            16.614        -98.690        -0.001
            -0.001         -0.001      -134.474

Total shielding tensor (ppm): 
           127.445         40.053        -0.001
            34.975        146.779        -0.001
            -0.000         -0.001       106.985


 Diagonalized sT*s matrix:
 
 sDSO           231.880          241.459          258.088  iso=     243.809
 sPSO          -133.501         -134.474          -82.243  iso=    -116.739
        ---------------  ---------------  ---------------
 Total           98.379          106.985          175.844  iso=     127.069

 --------------
 Nucleus   1O :
 --------------

Diamagnetic contribution to the shielding tensor (ppm) : 
           411.481         10.662        -0.000
             2.181        400.798        -0.001
             0.001         -0.002       354.989

Paramagnetic contribution to the shielding tensor (ppm): 
          -169.141        -42.873         0.001
           -60.133       -229.830         0.001
            -0.003         -0.001       -66.528

Total shielding tensor (ppm): 
           242.340        -32.211         0.001
           -57.952        170.968         0.000
            -0.001         -0.002       288.460


 Diagonalized sT*s matrix:
 
 sDSO           407.348          404.931          354.989  iso=     389.089
 sPSO          -258.079         -140.892          -66.528  iso=    -155.167
        ---------------  ---------------  ---------------
 Total          149.269          264.039          288.460  iso=     233.923

 --------------
 Nucleus   2C :
 --------------

Diamagnetic contribution to the shielding tensor (ppm) : 
           270.020         -0.979         0.000
            -2.970        258.431         0.000
             0.000         -0.001       217.730

Paramagnetic contribution to the shielding tensor (ppm): 
          -328.527         -3.808        -0.001
            22.853       -252.648         0.000
            -0.001          0.000       -98.374

Total shielding tensor (ppm): 
           -58.506         -4.787        -0.001
            19.884          5.783         0.000
            -0.001         -0.001       119.356


 Diagonalized sT*s matrix:
 
 sDSO           258.961          269.491          217.730  iso=     248.727
 sPSO          -255.415         -325.759          -98.374  iso=    -226.516
        ---------------  ---------------  ---------------
 Total            3.546          -56.269          119.356  iso=      22.211

 --------------
 Nucleus   3C :
 --------------

Diamagnetic contribution to the shielding tensor (ppm) : 
           268.677          3.831        -0.000
             1.850        260.345         0.000
            -0.000          0.000       232.829

Paramagnetic contribution to the shielding tensor (ppm): 
          -243.892         21.204         0.000
            25.383       -288.276        -0.000
            -0.000          0.000       -71.577

Total shielding tensor (ppm): 
            24.785         25.035        -0.000
            27.233        -27.931        -0.000
            -0.001          0.000       161.252


 Diagonalized sT*s matrix:
 
 sDSO           268.051          260.971          232.829  iso=     253.950
 sPSO          -239.195         -292.972          -71.577  iso=    -201.248
        ---------------  ---------------  ---------------
 Total           28.856          -32.001          161.252  iso=      52.702

 --------------
 Nucleus   4C :
 --------------

Diamagnetic contribution to the shielding tensor (ppm) : 
           271.256         -4.181        -0.000
            -2.119        261.957        -0.000
            -0.001         -0.001       235.803

Paramagnetic contribution to the shielding tensor (ppm): 
          -236.424        -30.767         0.000
           -54.864       -290.971         0.000
             0.001          0.001       -89.686

Total shielding tensor (ppm): 
            34.833        -34.947         0.000
           -56.982        -29.014         0.000
             0.000          0.000       146.117


 Diagonalized sT*s matrix:
 
 sDSO           263.314          269.900          235.803  iso=     256.339
 sPSO          -274.693         -252.701          -89.686  iso=    -205.693
        ---------------  ---------------  ---------------
 Total          -11.380           17.199          146.117  iso=      50.645

 --------------
 Nucleus   5C :
 --------------

Diamagnetic contribution to the shielding tensor (ppm) : 
           265.413         -2.979         0.000
            -4.178        258.653         0.000
             0.001          0.000       229.364

Paramagnetic contribution to the shielding tensor (ppm): 
          -324.510         42.270         0.000
            -1.773       -204.048        -0.000
             0.001         -0.001      -149.607

Total shielding tensor (ppm): 
           -59.097         39.291         0.000
            -5.951         54.605         0.000
             0.001         -0.001        79.757


 Diagonalized sT*s matrix:
 
 sDSO           259.142          229.364          264.923  iso=     251.143
 sPSO          -255.535         -149.607         -273.023  iso=    -226.055
        ---------------  ---------------  ---------------
 Total            3.608           79.757           -8.100  iso=      25.088

 --------------
 Nucleus   6Br:
 --------------

Diamagnetic contribution to the shielding tensor (ppm) : 
          3129.622         -0.848        -0.000
            -2.100       3120.719         0.000
            -0.000         -0.000      3125.683

Paramagnetic contribution to the shielding tensor (ppm): 
          -216.831       -273.845         0.000
          -134.258      -1627.883         0.001
             0.002          0.005     -1753.884

Total shielding tensor (ppm): 
          2912.791       -274.693         0.000
          -136.358       1492.835         0.001
             0.002          0.004      1371.799


 Diagonalized sT*s matrix:
 
 sDSO          3125.683         3120.481         3129.859  iso=    3125.341
 sPSO         -1753.884        -1656.431         -188.283  iso=   -1199.533
        ---------------  ---------------  ---------------
 Total         1371.799         1464.050         2941.576  iso=    1925.808

 --------------
 Nucleus   7N :
 --------------

Diamagnetic contribution to the shielding tensor (ppm) : 
           343.771         14.382         0.000
            20.080        321.242        -0.000
            -0.000          0.000       304.125

Paramagnetic contribution to the shielding tensor (ppm): 
          -678.652        -90.352        -0.000
           -91.363       -514.170        -0.001
             0.001         -0.002       -58.777

Total shielding tensor (ppm): 
          -334.881        -75.970        -0.000
           -71.282       -192.928        -0.001
             0.001         -0.002       245.349


 Diagonalized sT*s matrix:
 
 sDSO           312.250          304.125          352.763  iso=     323.046
 sPSO          -473.892          -58.777         -718.930  iso=    -417.200
        ---------------  ---------------  ---------------
 Total         -161.642          245.349         -366.167  iso=     -94.153

 --------------
 Nucleus   8C :
 --------------

Diamagnetic contribution to the shielding tensor (ppm) : 
           265.941         -5.386         0.000
            -6.502        263.452         0.000
             0.000          0.001       234.255

Paramagnetic contribution to the shielding tensor (ppm): 
          -256.251        -47.180        -0.001
           -10.887       -269.820        -0.001
            -0.002         -0.002       -90.989

Total shielding tensor (ppm): 
             9.689        -52.567        -0.001
           -17.389         -6.368        -0.001
            -0.002         -0.001       143.266


 Diagonalized sT*s matrix:
 
 sDSO           264.009          265.384          234.255  iso=     254.549
 sPSO          -265.722         -260.350          -90.989  iso=    -205.687
        ---------------  ---------------  ---------------
 Total           -1.713            5.034          143.266  iso=      48.862

 --------------
 Nucleus   9H :
 --------------

Diamagnetic contribution to the shielding tensor (ppm) : 
            39.933         -1.142        -0.000
            -0.207         22.895         0.000
             0.000         -0.000        20.627

Paramagnetic contribution to the shielding tensor (ppm): 
            -7.271          1.749         0.000
             2.865          4.272        -0.000
            -0.000          0.000         3.242

Total shielding tensor (ppm): 
            32.663          0.607        -0.000
             2.658         27.167        -0.000
            -0.000         -0.000        23.870


 Diagonalized sT*s matrix:
 
 sDSO            20.627           24.270           38.558  iso=      27.819
 sPSO             3.242            2.450           -5.449  iso=       0.081
        ---------------  ---------------  ---------------
 Total           23.870           26.721           33.109  iso=      27.900

 --------------
 Nucleus  10H :
 --------------

Diamagnetic contribution to the shielding tensor (ppm) : 
            27.103          2.331        -0.736
             4.238         29.464        -7.527
            -0.196         -7.097        30.396

Paramagnetic contribution to the shielding tensor (ppm): 
             0.324          0.950        -1.188
            -3.117          0.512         4.094
            -1.709          4.426        -3.076

Total shielding tensor (ppm): 
            27.427          3.281        -1.924
             1.121         29.976        -3.433
            -1.905         -2.672        27.320


 Diagonalized sT*s matrix:
 
 sDSO            25.543           24.245           37.174  iso=      28.987
 sPSO            -0.374            1.926           -3.792  iso=      -0.746
        ---------------  ---------------  ---------------
 Total           25.169           26.172           33.382  iso=      28.241

 --------------
 Nucleus  11H :
 --------------

Diamagnetic contribution to the shielding tensor (ppm) : 
            27.102          2.331         0.736
             4.238         29.464         7.526
             0.197          7.097        30.395

Paramagnetic contribution to the shielding tensor (ppm): 
             0.324          0.950         1.187
            -3.117          0.512        -4.093
             1.708         -4.426        -3.076

Total shielding tensor (ppm): 
            27.427          3.281         1.924
             1.121         29.976         3.433
             1.905          2.672        27.320


 Diagonalized sT*s matrix:
 
 sDSO            25.542           24.246           37.174  iso=      28.987
 sPSO            -0.374            1.926           -3.792  iso=      -0.747
        ---------------  ---------------  ---------------
 Total           25.169           26.172           33.382  iso=      28.241

 --------------
 Nucleus  12H :
 --------------

Diamagnetic contribution to the shielding tensor (ppm) : 
            30.960         -5.711        -0.000
            -7.180         41.013         0.000
            -0.000          0.000        21.224

Paramagnetic contribution to the shielding tensor (ppm): 
            -2.966          7.723         0.000
             8.876        -16.568        -0.000
             0.000         -0.000         0.479

Total shielding tensor (ppm): 
            27.994          2.012         0.000
             1.696         24.446        -0.000
            -0.000          0.000        21.704


 Diagonalized sT*s matrix:
 
 sDSO            21.224           44.124           27.850  iso=      31.066
 sPSO             0.479          -20.470            0.936  iso=      -6.352
        ---------------  ---------------  ---------------
 Total           21.704           23.654           28.786  iso=      24.714

 --------------
 Nucleus  13H :
 --------------

Diamagnetic contribution to the shielding tensor (ppm) : 
            34.005          5.774        -0.000
             5.642         39.495         0.000
             0.000         -0.000        21.907

Paramagnetic contribution to the shielding tensor (ppm): 
            -5.713         -9.555        -0.000
            -9.593        -14.438        -0.000
            -0.000          0.000        -1.679

Total shielding tensor (ppm): 
            28.292         -3.781        -0.000
            -3.951         25.057        -0.000
            -0.000          0.000        20.228


 Diagonalized sT*s matrix:
 
 sDSO            21.907           43.076           30.424  iso=      31.802
 sPSO            -1.679          -20.592            0.442  iso=      -7.277
        ---------------  ---------------  ---------------
 Total           20.228           22.484           30.865  iso=      24.526

 --------------
 Nucleus  14H :
 --------------

Diamagnetic contribution to the shielding tensor (ppm) : 
            33.096          5.848         0.000
            10.174         43.732         0.000
             0.000          0.000        22.192

Paramagnetic contribution to the shielding tensor (ppm): 
            -5.867         -8.761        -0.000
           -13.584        -19.110        -0.000
            -0.000         -0.000        -2.638

Total shielding tensor (ppm): 
            27.228         -2.913        -0.000
            -3.410         24.622         0.000
             0.000          0.000        19.554


 Diagonalized sT*s matrix:
 
 sDSO            22.192           47.865           28.964  iso=      33.007
 sPSO            -2.638          -25.359            0.381  iso=      -9.205
        ---------------  ---------------  ---------------
 Total           19.554           22.506           29.345  iso=      23.802



--------------------------------
CHEMICAL SHIELDING SUMMARY (ppm)
--------------------------------


  Nucleus  Element    Isotropic     Anisotropy
  -------  -------  ------------   ------------
      0       C          127.069         73.163 
      1       O          233.923         81.806 
      2       C           22.211        145.717 
      3       C           52.702        162.825 
      4       C           50.645        143.208 
      5       C           25.088        -49.782 
      6       Br        1925.808       1523.652 
      7       N          -94.153       -408.020 
      8       C           48.862        141.605 
      9       H           27.900          7.814 
     10       H           28.241          7.712 
     11       H           28.241          7.712 
     12       H           24.714          6.107 
     13       H           24.526          9.509 
     14       H           23.802          8.315 



Maximum memory used throughout the entire EPRNMR-calculation: 46.8 MB

Timings for individual modules:

Sum of individual times         ...       34.729 sec (=   0.579 min)
GTO integral calculation        ...        0.849 sec (=   0.014 min)   2.4 %
SCF iterations                  ...       22.835 sec (=   0.381 min)  65.8 %
EPR/NMR calculation             ...       11.045 sec (=   0.184 min)  31.8 %
                             ****ORCA TERMINATED NORMALLY****
TOTAL RUN TIME: 0 days 0 hours 0 minutes 35 seconds 262 msec
