
                                 *****************
                                 * O   R   C   A *
                                 *****************

                                            #,                                       
                                            ###                                      
                                            ####                                     
                                            #####                                    
                                            ######                                   
                                           ########,                                 
                                     ,,################,,,,,                         
                               ,,#################################,,                 
                          ,,##########################################,,             
                       ,#########################################, ''#####,          
                    ,#############################################,,   '####,        
                  ,##################################################,,,,####,       
                ,###########''''           ''''###############################       
              ,#####''   ,,,,##########,,,,          '''####'''          '####       
            ,##' ,,,,###########################,,,                        '##       
           ' ,,###''''                  '''############,,,                           
         ,,##''                                '''############,,,,        ,,,,,,###''
      ,#''                                            '''#######################'''  
     '                                                          ''''####''''         
             ,#######,   #######,   ,#######,      ##                                
            ,#'     '#,  ##    ##  ,#'     '#,    #''#        ######   ,####,        
            ##       ##  ##   ,#'  ##            #'  '#       #        #'  '#        
            ##       ##  #######   ##           ,######,      #####,   #    #        
            '#,     ,#'  ##    ##  '#,     ,#' ,#      #,         ##   #,  ,#        
             '#######'   ##     ##  '#######'  #'      '#     #####' # '####'        



                  #######################################################
                  #                        -***-                        #
                  #          Department of theory and spectroscopy      #
                  #    Directorship and core code : Frank Neese         #
                  #        Max Planck Institute fuer Kohlenforschung    #
                  #                Kaiser Wilhelm Platz 1               #
                  #                 D-45470 Muelheim/Ruhr               #
                  #                      Germany                        #
                  #                                                     #
                  #                  All rights reserved                #
                  #                        -***-                        #
                  #######################################################


                         Program Version 5.0.4 -  RELEASE  -


 With contributions from (in alphabetic order):
   Daniel Aravena         : Magnetic Suceptibility
   Michael Atanasov       : Ab Initio Ligand Field Theory (pilot matlab implementation)
   Alexander A. Auer      : GIAO ZORA, VPT2 properties, NMR spectrum
   Ute Becker             : Parallelization
   Giovanni Bistoni       : ED, misc. LED, open-shell LED, HFLD
   Martin Brehm           : Molecular dynamics
   Dmytro Bykov           : SCF Hessian
   Vijay G. Chilkuri      : MRCI spin determinant printing, contributions to CSF-ICE
   Dipayan Datta          : RHF DLPNO-CCSD density
   Achintya Kumar Dutta   : EOM-CC, STEOM-CC
   Dmitry Ganyushin       : Spin-Orbit,Spin-Spin,Magnetic field MRCI
   Miquel Garcia          : C-PCM and meta-GGA Hessian, CC/C-PCM, Gaussian charge scheme
   Yang Guo               : DLPNO-NEVPT2, F12-NEVPT2, CIM, IAO-localization
   Andreas Hansen         : Spin unrestricted coupled pair/coupled cluster methods
   Benjamin Helmich-Paris : MC-RPA, TRAH-SCF, COSX integrals
   Lee Huntington         : MR-EOM, pCC
   Robert Izsak           : Overlap fitted RIJCOSX, COSX-SCS-MP3, EOM
   Marcus Kettner         : VPT2
   Christian Kollmar      : KDIIS, OOCD, Brueckner-CCSD(T), CCSD density, CASPT2, CASPT2-K
   Simone Kossmann        : Meta GGA functionals, TD-DFT gradient, OOMP2, MP2 Hessian
   Martin Krupicka        : Initial AUTO-CI
   Lucas Lang             : DCDCAS
   Marvin Lechner         : AUTO-CI (C++ implementation), FIC-MRCC
   Dagmar Lenk            : GEPOL surface, SMD
   Dimitrios Liakos       : Extrapolation schemes; Compound Job, initial MDCI parallelization
   Dimitrios Manganas     : Further ROCIS development; embedding schemes
   Dimitrios Pantazis     : SARC Basis sets
   Anastasios Papadopoulos: AUTO-CI, single reference methods and gradients
   Taras Petrenko         : DFT Hessian,TD-DFT gradient, ASA, ECA, R-Raman, ABS, FL, XAS/XES, NRVS
   Peter Pinski           : DLPNO-MP2, DLPNO-MP2 Gradient
   Christoph Reimann      : Effective Core Potentials
   Marius Retegan         : Local ZFS, SOC
   Christoph Riplinger    : Optimizer, TS searches, QM/MM, DLPNO-CCSD(T), (RO)-DLPNO pert. Triples
   Tobias Risthaus        : Range-separated hybrids, TD-DFT gradient, RPA, STAB
   Michael Roemelt        : Original ROCIS implementation
   Masaaki Saitow         : Open-shell DLPNO-CCSD energy and density
   Barbara Sandhoefer     : DKH picture change effects
   Avijit Sen             : IP-ROCIS
   Kantharuban Sivalingam : CASSCF convergence, NEVPT2, FIC-MRCI
   Bernardo de Souza      : ESD, SOC TD-DFT
   Georgi Stoychev        : AutoAux, RI-MP2 NMR, DLPNO-MP2 response
   Willem Van den Heuvel  : Paramagnetic NMR
   Boris Wezisla          : Elementary symmetry handling
   Frank Wennmohs         : Technical directorship


 We gratefully acknowledge several colleagues who have allowed us to
 interface, adapt or use parts of their codes:
   Stefan Grimme, W. Hujo, H. Kruse, P. Pracht,  : VdW corrections, initial TS optimization,
                  C. Bannwarth, S. Ehlert          DFT functionals, gCP, sTDA/sTD-DF
   Ed Valeev, F. Pavosevic, A. Kumar             : LibInt (2-el integral package), F12 methods
   Garnet Chan, S. Sharma, J. Yang, R. Olivares  : DMRG
   Ulf Ekstrom                                   : XCFun DFT Library
   Mihaly Kallay                                 : mrcc  (arbitrary order and MRCC methods)
   Jiri Pittner, Ondrej Demel                    : Mk-CCSD
   Frank Weinhold                                : gennbo (NPA and NBO analysis)
   Christopher J. Cramer and Donald G. Truhlar   : smd solvation model
   Lars Goerigk                                  : TD-DFT with DH, B97 family of functionals
   V. Asgeirsson, H. Jonsson                     : NEB implementation
   FAccTs GmbH                                   : IRC, NEB, NEB-TS, DLPNO-Multilevel, CI-OPT
                                                   MM, QMMM, 2- and 3-layer-ONIOM, Crystal-QMMM,
                                                   LR-CPCM, SF, NACMEs, symmetry and pop. for TD-DFT,
                                                   nearIR, NL-DFT gradient (VV10), updates on ESD,
                                                   ML-optimized integration grids
   S Lehtola, MJT Oliveira, MAL Marques          : LibXC Library
   Liviu Ungur et al                             : ANISO software


 Your calculation uses the libint2 library for the computation of 2-el integrals
 For citations please refer to: http://libint.valeyev.net

 Your ORCA version has been built with support for libXC version: 5.1.0
 For citations please refer to: https://tddft.org/programs/libxc/

 This ORCA versions uses:
   CBLAS   interface :  Fast vector & matrix operations
   LAPACKE interface :  Fast linear algebra routines
   SCALAPACK package :  Parallel linear algebra routines
   Shared memory     :  Shared parallel matrices
   BLAS/LAPACK       :  OpenBLAS 0.3.15  USE64BITINT DYNAMIC_ARCH NO_AFFINITY SkylakeX SINGLE_THREADED
        Core in use  :  SkylakeX
   Copyright (c) 2011-2014, The OpenBLAS Project



Information: The global flag for chemical shieldings has been found
             ==>> will calculate the chemical shieldings for all atoms in the system

================================================================================

----- Orbital basis set information -----
Your calculation utilizes the basis: def2-TZVP
   F. Weigend and R. Ahlrichs, Phys. Chem. Chem. Phys. 7, 3297 (2005).

----- AuxJ basis set information -----
Your calculation utilizes the auxiliary basis: def2/J
   F. Weigend, Phys. Chem. Chem. Phys. 8, 1057 (2006).

================================================================================
                                        WARNINGS
                       Please study these warnings very carefully!
================================================================================


INFO   : the flag for use of the SHARK integral package has been found!

================================================================================
                                       INPUT FILE
================================================================================
NAME = arbr_06_r2scan3c_nmr.inp
|  1> %PAL NPROCS 16 END
|  2> %maxcore 4000
|  3> # arbr_06_r2scan3c.out
|  4> ! NMR B3LYP def2-tzvp 
|  5> * xyz 0 1
|  6>    O       -4.32090        -0.63610         0.00003
|  7>    C       -3.57899         0.30852        -0.00002
|  8>    C       -2.10139         0.20742        -0.00001
|  9>    C       -1.48285        -1.04063        -0.00001
| 10>    C       -0.10379        -1.13196        -0.00001
| 11>    C        0.64993         0.03698         0.00000
| 12>   Br        2.53689        -0.08398         0.00000
| 13>    C        0.05243         1.28786         0.00000
| 14>    C       -1.33197         1.36418        -0.00001
| 15>    H       -3.97599         1.34230         0.00000
| 16>    H       -2.10120        -1.92928        -0.00002
| 17>    H        0.39047        -2.09329        -0.00001
| 18>    H        0.66101         2.18094         0.00001
| 19>    H       -1.81841         2.33313        -0.00000
| 20> *
| 21> 
| 22>                          ****END OF INPUT****
================================================================================

                       ****************************
                       * Single Point Calculation *
                       ****************************

---------------------------------
CARTESIAN COORDINATES (ANGSTROEM)
---------------------------------
  O     -4.320900   -0.636100    0.000030
  C     -3.578990    0.308520   -0.000020
  C     -2.101390    0.207420   -0.000010
  C     -1.482850   -1.040630   -0.000010
  C     -0.103790   -1.131960   -0.000010
  C      0.649930    0.036980    0.000000
  Br     2.536890   -0.083980    0.000000
  C      0.052430    1.287860    0.000000
  C     -1.331970    1.364180   -0.000010
  H     -3.975990    1.342300    0.000000
  H     -2.101200   -1.929280   -0.000020
  H      0.390470   -2.093290   -0.000010
  H      0.661010    2.180940    0.000010
  H     -1.818410    2.333130   -0.000000

----------------------------
CARTESIAN COORDINATES (A.U.)
----------------------------
  NO LB      ZA    FRAG     MASS         X           Y           Z
   0 O     8.0000    0    15.999   -8.165318   -1.202055    0.000057
   1 C     6.0000    0    12.011   -6.763311    0.583018   -0.000038
   2 C     6.0000    0    12.011   -3.971052    0.391967   -0.000019
   3 C     6.0000    0    12.011   -2.802180   -1.966506   -0.000019
   4 C     6.0000    0    12.011   -0.196135   -2.139094   -0.000019
   5 C     6.0000    0    12.011    1.228190    0.069882    0.000000
   6 Br   35.0000    0    79.900    4.794027   -0.158699    0.000000
   7 C     6.0000    0    12.011    0.099078    2.433703    0.000000
   8 C     6.0000    0    12.011   -2.517059    2.577927   -0.000019
   9 H     1.0000    0     1.008   -7.513532    2.536579    0.000000
  10 H     1.0000    0     1.008   -3.970693   -3.645811   -0.000038
  11 H     1.0000    0     1.008    0.737881   -3.955745   -0.000019
  12 H     1.0000    0     1.008    1.249128    4.121379    0.000019
  13 H     1.0000    0     1.008   -3.436297    4.408977   -0.000000

--------------------------------
INTERNAL COORDINATES (ANGSTROEM)
--------------------------------
 O      0   0   0     0.000000000000     0.00000000     0.00000000
 C      1   0   0     1.201140039712     0.00000000     0.00000000
 C      2   1   0     1.481054681671   124.23211770     0.00000000
 C      3   2   1     1.392917992597   120.27742974     0.00000000
 C      4   3   2     1.382080913876   120.15220478   179.99955204
 C      5   4   3     1.390868276330   119.02453679     0.00000000
 Br     6   5   4     1.890832981307   119.14567061   180.00000085
 C      6   5   4     1.386256478578   121.65439645     0.00000000
 C      8   6   5     1.386502110529   118.68755453     0.00000000
 H      2   1   3     1.107388860699   120.84553928   180.00472038
 H      4   3   2     1.082615141729   118.80536438     0.00000000
 H      5   4   3     1.080947878716   120.99854609   180.00000000
 H      8   6   5     1.080722676222   120.19582267   179.99987055
 H      9   8   6     1.084199232706   119.81337164   179.99938026

---------------------------
INTERNAL COORDINATES (A.U.)
---------------------------
 O      0   0   0     0.000000000000     0.00000000     0.00000000
 C      1   0   0     2.269825723543     0.00000000     0.00000000
 C      2   1   0     2.798787737720   124.23211770     0.00000000
 C      3   2   1     2.632233533019   120.27742974     0.00000000
 C      4   3   2     2.611754422145   120.15220478   179.99955204
 C      5   4   3     2.628360130622   119.02453679     0.00000000
 Br     6   5   4     3.573156499657   119.14567061   180.00000085
 C      6   5   4     2.619645095887   121.65439645     0.00000000
 C      8   6   5     2.620109273003   118.68755453     0.00000000
 H      2   1   3     2.092661670476   120.84553928   180.00472038
 H      4   3   2     2.045846126303   118.80536438     0.00000000
 H      5   4   3     2.042695455816   120.99854609   180.00000000
 H      8   6   5     2.042269884778   120.19582267   179.99987055
 H      9   8   6     2.048839624422   119.81337164   179.99938026

---------------------
BASIS SET INFORMATION
---------------------
There are 4 groups of distinct atoms

 Group   1 Type O   : 11s6p2d1f contracted to 5s3p2d1f pattern {62111/411/11/1}
 Group   2 Type C   : 11s6p2d1f contracted to 5s3p2d1f pattern {62111/411/11/1}
 Group   3 Type Br  : 17s13p8d1f contracted to 6s5p4d1f pattern {842111/64111/5111/1}
 Group   4 Type H   : 5s1p contracted to 3s1p pattern {311/1}

Atom   0O    basis set group =>   1
Atom   1C    basis set group =>   2
Atom   2C    basis set group =>   2
Atom   3C    basis set group =>   2
Atom   4C    basis set group =>   2
Atom   5C    basis set group =>   2
Atom   6Br   basis set group =>   3
Atom   7C    basis set group =>   2
Atom   8C    basis set group =>   2
Atom   9H    basis set group =>   4
Atom  10H    basis set group =>   4
Atom  11H    basis set group =>   4
Atom  12H    basis set group =>   4
Atom  13H    basis set group =>   4
---------------------------------
AUXILIARY/J BASIS SET INFORMATION
---------------------------------
There are 4 groups of distinct atoms

 Group   1 Type O   : 12s5p4d2f1g contracted to 6s4p3d1f1g pattern {711111/2111/211/2/1}
 Group   2 Type C   : 12s5p4d2f1g contracted to 6s4p3d1f1g pattern {711111/2111/211/2/1}
 Group   3 Type Br  : 19s5p5d3f1g contracted to 8s4p3d2f1g pattern {121111111/2111/311/21/1}
 Group   4 Type H   : 5s2p1d contracted to 3s1p1d pattern {311/2/1}

Atom   0O    basis set group =>   1
Atom   1C    basis set group =>   2
Atom   2C    basis set group =>   2
Atom   3C    basis set group =>   2
Atom   4C    basis set group =>   2
Atom   5C    basis set group =>   2
Atom   6Br   basis set group =>   3
Atom   7C    basis set group =>   2
Atom   8C    basis set group =>   2
Atom   9H    basis set group =>   4
Atom  10H    basis set group =>   4
Atom  11H    basis set group =>   4
Atom  12H    basis set group =>   4
Atom  13H    basis set group =>   4


           ************************************************************
           *        Program running with 16 parallel MPI-processes    *
           *              working on a common directory               *
           ************************************************************
------------------------------------------------------------------------------
                           ORCA GTO INTEGRAL CALCULATION
                           -- RI-GTO INTEGRALS CHOSEN --
------------------------------------------------------------------------------
------------------------------------------------------------------------------
                   ___                                                        
                  /   \      - P O W E R E D   B Y -                         
                 /     \                                                     
                 |  |  |   _    _      __       _____    __    __             
                 |  |  |  | |  | |    /  \     |  _  \  |  |  /  |          
                  \  \/   | |  | |   /    \    | | | |  |  | /  /          
                 / \  \   | |__| |  /  /\  \   | |_| |  |  |/  /          
                |  |  |   |  __  | /  /__\  \  |    /   |      \           
                |  |  |   | |  | | |   __   |  |    \   |  |\   \          
                \     /   | |  | | |  |  |  |  | |\  \  |  | \   \       
                 \___/    |_|  |_| |__|  |__|  |_| \__\ |__|  \__/        
                                                                              
                      - O R C A' S   B I G   F R I E N D -                    
                                      &                                       
                       - I N T E G R A L  F E E D E R -                       
                                                                              
 v1 FN, 2020, v2 2021                                                         
------------------------------------------------------------------------------


Reading SHARK input file arbr_06_r2scan3c_nmr.SHARKINP.tmp ... ok
----------------------
SHARK INTEGRAL PACKAGE
----------------------

Number of atoms                             ...     14
Number of basis functions                   ...    326
Number of shells                            ...    124
Maximum angular momentum                    ...      3
Integral batch strategy                     ... SHARK/LIBINT Hybrid
RI-J (if used) integral strategy            ... SPLIT-RIJ (Revised 2003 algorithm where possible)
Printlevel                                  ...      1
Contraction scheme used                     ... SEGMENTED contraction
Coulomb Range Separation                    ... NOT USED
Exchange Range Separation                   ... NOT USED
Finite Nucleus Model                        ... NOT USED
Auxiliary Coulomb fitting basis             ... AVAILABLE
   # of basis functions in Aux-J            ...    505
   # of shells in Aux-J                     ...    163
   Maximum angular momentum in Aux-J        ...      4
Auxiliary J/K fitting basis                 ... NOT available
Auxiliary Correlation fitting basis         ... NOT available
Auxiliary 'external' fitting basis          ... NOT available
Integral threshold                          ...     1.000000e-10
Primitive cut-off                           ...     1.000000e-11
Primitive pair pre-selection threshold      ...     1.000000e-11

Calculating pre-screening integrals         ... done (  0.1 sec) Dimension = 124
Organizing shell pair data                  ... done (  0.1 sec)
Shell pair information
Total number of shell pairs                 ...      7750
Shell pairs after pre-screening             ...      6754
Total number of primitive shell pairs       ...     26592
Primitive shell pairs kept                  ...     16472
          la=0 lb=0:   1560 shell pairs
          la=1 lb=0:   1841 shell pairs
          la=1 lb=1:    551 shell pairs
          la=2 lb=0:   1048 shell pairs
          la=2 lb=1:    617 shell pairs
          la=2 lb=2:    185 shell pairs
          la=3 lb=0:    471 shell pairs
          la=3 lb=1:    280 shell pairs
          la=3 lb=2:    160 shell pairs
          la=3 lb=3:     41 shell pairs

Calculating one electron integrals          ... done (  0.0 sec)
Calculating RI/J V-Matrix + Cholesky decomp.... done (  0.0 sec)
Calculating Nuclear repulsion               ... done (  0.0 sec) ENN=    589.212369708903 Eh

SHARK setup successfully completed in   0.5 seconds

Maximum memory used throughout the entire GTOINT-calculation: 24.0 MB


           ************************************************************
           *        Program running with 16 parallel MPI-processes    *
           *              working on a common directory               *
           ************************************************************
-------------------------------------------------------------------------------
                                 ORCA SCF
-------------------------------------------------------------------------------

------------
SCF SETTINGS
------------
Hamiltonian:
 Density Functional     Method          .... DFT(GTOs)
 Exchange Functional    Exchange        .... B88
   X-Alpha parameter    XAlpha          ....  0.666667
   Becke's b parameter  XBeta           ....  0.004200
 Correlation Functional Correlation     .... LYP
 LDA part of GGA corr.  LDAOpt          .... VWN-5
 Gradients option       PostSCFGGA      .... off
 Hybrid DFT is turned on
   Fraction HF Exchange ScalHFX         ....  0.200000
   Scaling of DF-GGA-X  ScalDFX         ....  0.720000
   Scaling of DF-GGA-C  ScalDFC         ....  0.810000
   Scaling of DF-LDA-C  ScalLDAC        ....  1.000000
   Perturbative correction              ....  0.000000
   Density functional embedding theory  .... OFF
   NL short-range parameter             ....  4.800000
 RI-approximation to the Coulomb term is turned on
   Number of AuxJ basis functions       .... 505
   RIJ-COSX (HFX calculated with COS-X)).... on


General Settings:
 Integral files         IntName         .... arbr_06_r2scan3c_nmr
 Hartree-Fock type      HFTyp           .... RHF
 Total Charge           Charge          ....    0
 Multiplicity           Mult            ....    1
 Number of Electrons    NEL             ....   90
 Basis Dimension        Dim             ....  326
 Nuclear Repulsion      ENuc            ....    589.2123697089 Eh

Convergence Acceleration:
 DIIS                   CNVDIIS         .... on
   Start iteration      DIISMaxIt       ....    12
   Startup error        DIISStart       ....  0.200000
   # of expansion vecs  DIISMaxEq       ....     5
   Bias factor          DIISBfac        ....   1.050
   Max. coefficient     DIISMaxC        ....  10.000
 Trust-Rad. Augm. Hess. CNVTRAH         .... auto
   Auto Start mean grad. ratio tolernc. ....  1.125000
   Auto Start start iteration           ....    20
   Auto Start num. interpolation iter.  ....    10
   Max. Number of Micro iterations      ....    16
   Max. Number of Macro iterations      .... Maxiter - #DIIS iter
   Number of Davidson start vectors     ....     2
   Converg. threshold I  (grad. norm)   ....   5.000e-05
   Converg. threshold II (energy diff.) ....   1.000e-06
   Grad. Scal. Fac. for Micro threshold ....   0.100
   Minimum threshold for Micro iter.    ....   0.010
   NR start threshold (gradient norm)   ....   0.001
   Initial trust radius                 ....   0.400
   Minimum AH scaling param. (alpha)    ....   1.000
   Maximum AH scaling param. (alpha)    .... 1000.000
   Orbital update algorithm             .... Taylor
   White noise on init. David. guess    .... on
   Maximum white noise                  ....   0.010
   Quad. conv. algorithm                .... NR
 SOSCF                  CNVSOSCF        .... on
   Start iteration      SOSCFMaxIt      ....   150
   Startup grad/error   SOSCFStart      ....  0.003300
 Level Shifting         CNVShift        .... on
   Level shift para.    LevelShift      ....    0.2500
   Turn off err/grad.   ShiftErr        ....    0.0010
 Zerner damping         CNVZerner       .... off
 Static damping         CNVDamp         .... on
   Fraction old density DampFac         ....    0.7000
   Max. Damping (<1)    DampMax         ....    0.9800
   Min. Damping (>=0)   DampMin         ....    0.0000
   Turn off err/grad.   DampErr         ....    0.1000
 Fernandez-Rico         CNVRico         .... off

SCF Procedure:
 Maximum # iterations   MaxIter         ....   125
 SCF integral mode      SCFMode         .... Direct
   Integral package                     .... SHARK and LIBINT hybrid scheme
 Reset frequency        DirectResetFreq ....    20
 Integral Threshold     Thresh          ....  1.000e-10 Eh
 Primitive CutOff       TCut            ....  1.000e-11 Eh

Convergence Tolerance:
 Convergence Check Mode ConvCheckMode   .... Total+1el-Energy
 Convergence forced     ConvForced      .... 0
 Energy Change          TolE            ....  1.000e-06 Eh
 1-El. energy change                    ....  1.000e-03 Eh
 Orbital Gradient       TolG            ....  5.000e-05
 Orbital Rotation angle TolX            ....  5.000e-05
 DIIS Error             TolErr          ....  1.000e-06


Diagonalization of the overlap matrix:
Smallest eigenvalue                        ... 7.784e-06
Time for diagonalization                   ...    0.024 sec
Threshold for overlap eigenvalues          ... 1.000e-08
Number of eigenvalues below threshold      ... 0
Time for construction of square roots      ...    0.017 sec
Total time needed                          ...    0.042 sec

Time for model grid setup =    0.133 sec

------------------------------
INITIAL GUESS: MODEL POTENTIAL
------------------------------
Loading Hartree-Fock densities                     ... done
Calculating cut-offs                               ... done
Initializing the effective Hamiltonian             ... done
Setting up the integral package (SHARK)            ... done
Starting the Coulomb interaction                   ... done (   0.1 sec)
Reading the grid                                   ... done
Mapping shells                                     ... done
Starting the XC term evaluation                    ... done (   0.1 sec)
  promolecular density results
     # of electrons  =     89.997076005
     EX              =   -135.377791215
     EC              =     -3.572022517
     EX+EC           =   -138.949813732
Transforming the Hamiltonian                       ... done (   0.0 sec)
Diagonalizing the Hamiltonian                      ... done (   0.0 sec)
Back transforming the eigenvectors                 ... done (   0.0 sec)
Now organizing SCF variables                       ... done
                      ------------------
                      INITIAL GUESS DONE (   0.3 sec)
                      ------------------
-------------------
DFT GRID GENERATION
-------------------

General Integration Accuracy     IntAcc      ... 4.388
Radial Grid Type                 RadialGrid  ... OptM3 with GC (2021)
Angular Grid (max. ang.)         AngularGrid ... 4 (Lebedev-302)
Angular grid pruning method      GridPruning ... 4 (adaptive)
Weight generation scheme         WeightScheme... Becke
Basis function cutoff            BFCut       ... 1.0000e-10
Integration weight cutoff        WCut        ... 1.0000e-14
Angular grids for H and He will be reduced by one unit
Partially contracted basis set               ... off
Rotationally invariant grid construction     ... off

Total number of grid points                  ...    75517
Total number of batches                      ...     1186
Average number of points per batch           ...       63
Average number of grid points per atom       ...     5394
Time for grid setup =    0.660 sec

--------------------
COSX GRID GENERATION
--------------------

GRIDX 1
-------
General Integration Accuracy     IntAcc      ... 3.816
Radial Grid Type                 RadialGrid  ... OptM3 with GC (2021)
Angular Grid (max. ang.)         AngularGrid ... 1 (Lebedev-50)
Angular grid pruning method      GridPruning ... 4 (adaptive)
Weight generation scheme         WeightScheme... Becke
Basis function cutoff            BFCut       ... 1.0000e-10
Integration weight cutoff        WCut        ... 1.0000e-14
Angular grids for H and He will be reduced by one unit
Partially contracted basis set               ... on
Rotationally invariant grid construction     ... off

Total number of grid points                  ...     9434
Total number of batches                      ...      155
Average number of points per batch           ...       60
Average number of grid points per atom       ...      674
UseSFitting                                  ... on

GRIDX 2
-------
General Integration Accuracy     IntAcc      ... 4.020
Radial Grid Type                 RadialGrid  ... OptM3 with GC (2021)
Angular Grid (max. ang.)         AngularGrid ... 2 (Lebedev-110)
Angular grid pruning method      GridPruning ... 4 (adaptive)
Weight generation scheme         WeightScheme... Becke
Basis function cutoff            BFCut       ... 1.0000e-10
Integration weight cutoff        WCut        ... 1.0000e-14
Angular grids for H and He will be reduced by one unit
Partially contracted basis set               ... on
Rotationally invariant grid construction     ... off

Total number of grid points                  ...    20906
Total number of batches                      ...      335
Average number of points per batch           ...       62
Average number of grid points per atom       ...     1493
UseSFitting                                  ... on

GRIDX 3
-------
General Integration Accuracy     IntAcc      ... 4.338
Radial Grid Type                 RadialGrid  ... OptM3 with GC (2021)
Angular Grid (max. ang.)         AngularGrid ... 3 (Lebedev-194)
Angular grid pruning method      GridPruning ... 4 (adaptive)
Weight generation scheme         WeightScheme... Becke
Basis function cutoff            BFCut       ... 1.0000e-10
Integration weight cutoff        WCut        ... 1.0000e-14
Angular grids for H and He will be reduced by one unit
Partially contracted basis set               ... on
Rotationally invariant grid construction     ... off

Total number of grid points                  ...    46332
Total number of batches                      ...      731
Average number of points per batch           ...       63
Average number of grid points per atom       ...     3309
UseSFitting                                  ... on

Time for X-Grid setup             =    0.497 sec

--------------
SCF ITERATIONS
--------------
ITER       Energy         Delta-E        Max-DP      RMS-DP      [F,P]     Damp
               ***  Starting incremental Fock matrix formation  ***
  0  -2918.7076362135   0.000000000000 0.32673152  0.00207066  0.2914638 0.7000
  1  -2918.8203038092  -0.112667595758 0.26298941  0.00156880  0.1100106 0.7000
                               ***Turning on DIIS***
  2  -2918.8611143561  -0.040810546926 0.22868037  0.00177914  0.0333666 0.0000
  3  -2918.9276134800  -0.066499123845 0.25268977  0.00143425  0.0502131 0.0000
  4  -2918.9428356373  -0.015222157282 0.05352835  0.00035748  0.0211398 0.0000
  5  -2918.9439662664  -0.001130629081 0.03358700  0.00019092  0.0089891 0.0000
                      *** Initiating the SOSCF procedure ***
                           *** Shutting down DIIS ***
                      *** Re-Reading the Fockian *** 
                      *** Removing any level shift *** 
ITER      Energy       Delta-E        Grad      Rot      Max-DP    RMS-DP
  6  -2918.94410221  -0.0001359416  0.000242  0.000242  0.009146  0.000061
               *** Restarting incremental Fock matrix formation ***
  7  -2918.94406189   0.0000403228  0.000178  0.000708  0.006225  0.000044
  8  -2918.94406230  -0.0000004191  0.000146  0.000458  0.000978  0.000011
  9  -2918.94406302  -0.0000007178  0.000059  0.000157  0.000844  0.000011
 10  -2918.94406304  -0.0000000182  0.000062  0.000108  0.000215  0.000004
 11  -2918.94406312  -0.0000000803  0.000017  0.000048  0.000350  0.000005
 12  -2918.94406308   0.0000000384  0.000015  0.000023  0.000237  0.000003
                 **** Energy Check signals convergence ****
              ***Rediagonalizing the Fockian in SOSCF/NRSCF***

               *****************************************************
               *                     SUCCESS                       *
               *           SCF CONVERGED AFTER  13 CYCLES          *
               *****************************************************

Old exchange energy                            =    -27.176651163 Eh
New exchange energy                            =    -27.176647012 Eh
Exchange energy change after final integration =      0.000004151 Eh
Total energy after final integration           =  -2918.944058929 Eh
Final COS-X integration done in                =     3.285 sec

----------------
TOTAL SCF ENERGY
----------------

Total Energy       :        -2918.94405893 Eh          -79428.50591 eV

Components:
Nuclear Repulsion  :          589.21236971 Eh           16033.28370 eV
Electronic Energy  :        -3508.15642864 Eh          -95461.78961 eV
One Electron Energy:        -5219.51045543 Eh         -142030.10016 eV
Two Electron Energy:         1711.35402679 Eh           46568.31056 eV
Max COSX asymmetry :            0.00000801 Eh               0.00022 eV

Virial components:
Potential Energy   :        -5832.83499279 Eh         -158719.50930 eV
Kinetic Energy     :         2913.89093387 Eh           79291.00339 eV
Virial Ratio       :            2.00173415


DFT components:
N(Alpha)           :       45.000038244914 electrons
N(Beta)            :       45.000038244914 electrons
N(Total)           :       90.000076489828 electrons
E(X)               :     -108.138167265051 Eh       
E(C)               :       -4.191188996577 Eh       
E(XC)              :     -112.329356261628 Eh       
DFET-embed. en.    :        0.000000000000 Eh       

---------------
SCF CONVERGENCE
---------------

  Last Energy change         ...    1.5048e-09  Tolerance :   1.0000e-06
  Last MAX-Density change    ...    6.6613e-15  Tolerance :   1.0000e-05
  Last RMS-Density change    ...    3.9569e-17  Tolerance :   1.0000e-06
  Last Orbital Gradient      ...    3.4409e-06  Tolerance :   5.0000e-05
  Last Orbital Rotation      ...    1.0749e-05  Tolerance :   5.0000e-05

             **** THE GBW FILE WAS UPDATED (arbr_06_r2scan3c_nmr.gbw) ****
             **** DENSITY arbr_06_r2scan3c_nmr.scfp WAS UPDATED ****
             **** ENERGY FILE WAS UPDATED (arbr_06_r2scan3c_nmr.en.tmp) ****
             **** THE GBW FILE WAS UPDATED (arbr_06_r2scan3c_nmr.gbw) ****
             **** DENSITY arbr_06_r2scan3c_nmr.scfp WAS UPDATED ****
----------------
ORBITAL ENERGIES
----------------

  NO   OCC          E(Eh)            E(eV) 
   0   2.0000    -482.870584    -13139.5766 
   1   2.0000     -62.518052     -1701.2027 
   2   2.0000     -56.333462     -1532.9114 
   3   2.0000     -56.331072     -1532.8464 
   4   2.0000     -56.331063     -1532.8462 
   5   2.0000     -19.129352      -520.5361 
   6   2.0000     -10.265908      -279.3496 
   7   2.0000     -10.251733      -278.9638 
   8   2.0000     -10.207319      -277.7553 
   9   2.0000     -10.204248      -277.6717 
  10   2.0000     -10.203373      -277.6479 
  11   2.0000     -10.201777      -277.6045 
  12   2.0000     -10.200596      -277.5723 
  13   2.0000      -8.709116      -236.9871 
  14   2.0000      -6.538471      -177.9208 
  15   2.0000      -6.527893      -177.6330 
  16   2.0000      -6.527299      -177.6168 
  17   2.0000      -2.653170       -72.1964 
  18   2.0000      -2.650226       -72.1163 
  19   2.0000      -2.649801       -72.1048 
  20   2.0000      -2.641046       -71.8665 
  21   2.0000      -2.641043       -71.8664 
  22   2.0000      -1.059744       -28.8371 
  23   2.0000      -0.900045       -24.4915 
  24   2.0000      -0.830422       -22.5969 
  25   2.0000      -0.781294       -21.2601 
  26   2.0000      -0.758291       -20.6341 
  27   2.0000      -0.655085       -17.8258 
  28   2.0000      -0.640569       -17.4308 
  29   2.0000      -0.591227       -16.0881 
  30   2.0000      -0.532733       -14.4964 
  31   2.0000      -0.497725       -13.5438 
  32   2.0000      -0.480537       -13.0761 
  33   2.0000      -0.457965       -12.4619 
  34   2.0000      -0.451638       -12.2897 
  35   2.0000      -0.442371       -12.0375 
  36   2.0000      -0.428427       -11.6581 
  37   2.0000      -0.396789       -10.7972 
  38   2.0000      -0.382886       -10.4189 
  39   2.0000      -0.377092       -10.2612 
  40   2.0000      -0.331241        -9.0135 
  41   2.0000      -0.304638        -8.2896 
  42   2.0000      -0.287820        -7.8320 
  43   2.0000      -0.270822        -7.3694 
  44   2.0000      -0.264356        -7.1935 
  45   0.0000      -0.080447        -2.1891 
  46   0.0000      -0.040455        -1.1008 
  47   0.0000      -0.012711        -0.3459 
  48   0.0000       0.014057         0.3825 
  49   0.0000       0.051859         1.4112 
  50   0.0000       0.062399         1.6980 
  51   0.0000       0.079997         2.1768 
  52   0.0000       0.096367         2.6223 
  53   0.0000       0.101345         2.7577 
  54   0.0000       0.117017         3.1842 
  55   0.0000       0.119052         3.2396 
  56   0.0000       0.144960         3.9446 
  57   0.0000       0.152502         4.1498 
  58   0.0000       0.173802         4.7294 
  59   0.0000       0.181311         4.9337 
  60   0.0000       0.197945         5.3864 
  61   0.0000       0.206062         5.6072 
  62   0.0000       0.215997         5.8776 
  63   0.0000       0.219872         5.9830 
  64   0.0000       0.221146         6.0177 
  65   0.0000       0.224473         6.1082 
  66   0.0000       0.236380         6.4322 
  67   0.0000       0.258508         7.0344 
  68   0.0000       0.260002         7.0750 
  69   0.0000       0.270801         7.3689 
  70   0.0000       0.281082         7.6486 
  71   0.0000       0.285365         7.7652 
  72   0.0000       0.288722         7.8565 
  73   0.0000       0.304080         8.2744 
  74   0.0000       0.321992         8.7618 
  75   0.0000       0.328399         8.9362 
  76   0.0000       0.332449         9.0464 
  77   0.0000       0.349383         9.5072 
  78   0.0000       0.349926         9.5220 
  79   0.0000       0.355905         9.6847 
  80   0.0000       0.379424        10.3247 
  81   0.0000       0.389100        10.5880 
  82   0.0000       0.398098        10.8328 
  83   0.0000       0.413301        11.2465 
  84   0.0000       0.414111        11.2685 
  85   0.0000       0.423569        11.5259 
  86   0.0000       0.430308        11.7093 
  87   0.0000       0.448192        12.1959 
  88   0.0000       0.470391        12.8000 
  89   0.0000       0.496754        13.5174 
  90   0.0000       0.499835        13.6012 
  91   0.0000       0.506502        13.7826 
  92   0.0000       0.527137        14.3441 
  93   0.0000       0.528265        14.3748 
  94   0.0000       0.532937        14.5020 
  95   0.0000       0.537991        14.6395 
  96   0.0000       0.544023        14.8036 
  97   0.0000       0.553169        15.0525 
  98   0.0000       0.615819        16.7573 
  99   0.0000       0.622692        16.9443 
 100   0.0000       0.652691        17.7606 
 101   0.0000       0.655995        17.8505 
 102   0.0000       0.666732        18.1427 
 103   0.0000       0.672367        18.2960 
 104   0.0000       0.714247        19.4357 
 105   0.0000       0.715535        19.4707 
 106   0.0000       0.731921        19.9166 
 107   0.0000       0.738088        20.0844 
 108   0.0000       0.753472        20.5030 
 109   0.0000       0.762013        20.7354 
 110   0.0000       0.775122        21.0921 
 111   0.0000       0.790004        21.4971 
 112   0.0000       0.820833        22.3360 
 113   0.0000       0.848423        23.0868 
 114   0.0000       0.863556        23.4986 
 115   0.0000       0.867323        23.6011 
 116   0.0000       0.874957        23.8088 
 117   0.0000       0.888095        24.1663 
 118   0.0000       0.928592        25.2683 
 119   0.0000       0.945184        25.7198 
 120   0.0000       0.972779        26.4707 
 121   0.0000       0.974582        26.5197 
 122   0.0000       0.989848        26.9351 
 123   0.0000       1.030003        28.0278 
 124   0.0000       1.032007        28.0823 
 125   0.0000       1.055147        28.7120 
 126   0.0000       1.071053        29.1448 
 127   0.0000       1.102302        29.9952 
 128   0.0000       1.152088        31.3499 
 129   0.0000       1.168492        31.7963 
 130   0.0000       1.176707        32.0198 
 131   0.0000       1.189745        32.3746 
 132   0.0000       1.190562        32.3968 
 133   0.0000       1.203064        32.7370 
 134   0.0000       1.226817        33.3834 
 135   0.0000       1.229034        33.4437 
 136   0.0000       1.274898        34.6917 
 137   0.0000       1.310751        35.6673 
 138   0.0000       1.328368        36.1467 
 139   0.0000       1.330826        36.2136 
 140   0.0000       1.338341        36.4181 
 141   0.0000       1.344182        36.5771 
 142   0.0000       1.355389        36.8820 
 143   0.0000       1.379604        37.5409 
 144   0.0000       1.402651        38.1681 
 145   0.0000       1.420031        38.6410 
 146   0.0000       1.430464        38.9249 
 147   0.0000       1.433690        39.0127 
 148   0.0000       1.458806        39.6961 
 149   0.0000       1.469152        39.9777 
 150   0.0000       1.497300        40.7436 
 151   0.0000       1.504573        40.9415 
 152   0.0000       1.519491        41.3475 
 153   0.0000       1.527974        41.5783 
 154   0.0000       1.529192        41.6114 
 155   0.0000       1.549659        42.1684 
 156   0.0000       1.574294        42.8387 
 157   0.0000       1.587739        43.2046 
 158   0.0000       1.589385        43.2494 
 159   0.0000       1.606099        43.7042 
 160   0.0000       1.608289        43.7638 
 161   0.0000       1.623247        44.1708 
 162   0.0000       1.624198        44.1967 
 163   0.0000       1.661591        45.2142 
 164   0.0000       1.679063        45.6896 
 165   0.0000       1.683214        45.8026 
 166   0.0000       1.691489        46.0278 
 167   0.0000       1.727099        46.9967 
 168   0.0000       1.737016        47.2666 
 169   0.0000       1.773197        48.2512 
 170   0.0000       1.776671        48.3457 
 171   0.0000       1.808635        49.2155 
 172   0.0000       1.833501        49.8921 
 173   0.0000       1.835493        49.9463 
 174   0.0000       1.891102        51.4595 
 175   0.0000       1.895674        51.5839 
 176   0.0000       1.908421        51.9308 
 177   0.0000       1.909253        51.9534 
 178   0.0000       1.935036        52.6550 
 179   0.0000       1.972969        53.6872 
 180   0.0000       1.982199        53.9384 
 181   0.0000       2.028154        55.1889 
 182   0.0000       2.033230        55.3270 
 183   0.0000       2.078750        56.5657 
 184   0.0000       2.121225        57.7215 
 185   0.0000       2.134862        58.0926 
 186   0.0000       2.139101        58.2079 
 187   0.0000       2.165249        58.9194 
 188   0.0000       2.197985        59.8102 
 189   0.0000       2.252147        61.2840 
 190   0.0000       2.274329        61.8876 
 191   0.0000       2.304778        62.7162 
 192   0.0000       2.317230        63.0550 
 193   0.0000       2.345573        63.8263 
 194   0.0000       2.349902        63.9441 
 195   0.0000       2.398619        65.2697 
 196   0.0000       2.428169        66.0739 
 197   0.0000       2.505536        68.1791 
 198   0.0000       2.532050        68.9006 
 199   0.0000       2.539650        69.1074 
 200   0.0000       2.554911        69.5227 
 201   0.0000       2.577216        70.1296 
 202   0.0000       2.598822        70.7175 
 203   0.0000       2.613885        71.1274 
 204   0.0000       2.630189        71.5711 
 205   0.0000       2.648332        72.0648 
 206   0.0000       2.659786        72.3765 
 207   0.0000       2.675008        72.7907 
 208   0.0000       2.683798        73.0299 
 209   0.0000       2.712752        73.8177 
 210   0.0000       2.734473        74.4088 
 211   0.0000       2.738896        74.5292 
 212   0.0000       2.768468        75.3338 
 213   0.0000       2.771108        75.4057 
 214   0.0000       2.776858        75.5622 
 215   0.0000       2.809439        76.4487 
 216   0.0000       2.828683        76.9724 
 217   0.0000       2.828890        76.9780 
 218   0.0000       2.855152        77.6926 
 219   0.0000       2.877313        78.2957 
 220   0.0000       2.880140        78.3726 
 221   0.0000       2.889225        78.6198 
 222   0.0000       2.923296        79.5469 
 223   0.0000       2.941569        80.0442 
 224   0.0000       2.953854        80.3785 
 225   0.0000       2.969202        80.7961 
 226   0.0000       2.993744        81.4639 
 227   0.0000       3.016467        82.0822 
 228   0.0000       3.048118        82.9435 
 229   0.0000       3.082988        83.8924 
 230   0.0000       3.092936        84.1631 
 231   0.0000       3.106328        84.5275 
 232   0.0000       3.116816        84.8129 
 233   0.0000       3.126381        85.0731 
 234   0.0000       3.152563        85.7856 
 235   0.0000       3.165356        86.1337 
 236   0.0000       3.181764        86.5802 
 237   0.0000       3.221285        87.6556 
 238   0.0000       3.233664        87.9925 
 239   0.0000       3.243105        88.2494 
 240   0.0000       3.262765        88.7844 
 241   0.0000       3.280319        89.2620 
 242   0.0000       3.284934        89.3876 
 243   0.0000       3.302870        89.8757 
 244   0.0000       3.335919        90.7750 
 245   0.0000       3.346315        91.0579 
 246   0.0000       3.358393        91.3865 
 247   0.0000       3.366065        91.5953 
 248   0.0000       3.367443        91.6328 
 249   0.0000       3.403408        92.6114 
 250   0.0000       3.421755        93.1107 
 251   0.0000       3.438224        93.5588 
 252   0.0000       3.447098        93.8003 
 253   0.0000       3.457001        94.0698 
 254   0.0000       3.478410        94.6523 
 255   0.0000       3.486991        94.8858 
 256   0.0000       3.532196        96.1160 
 257   0.0000       3.578913        97.3872 
 258   0.0000       3.593293        97.7785 
 259   0.0000       3.615007        98.3693 
 260   0.0000       3.647393        99.2506 
 261   0.0000       3.742527       101.8393 
 262   0.0000       3.754678       102.1700 
 263   0.0000       3.797409       103.3328 
 264   0.0000       3.807425       103.6053 
 265   0.0000       3.824895       104.0807 
 266   0.0000       3.831638       104.2642 
 267   0.0000       3.870166       105.3126 
 268   0.0000       3.939724       107.2054 
 269   0.0000       3.986000       108.4646 
 270   0.0000       3.995988       108.7363 
 271   0.0000       4.026912       109.5779 
 272   0.0000       4.038935       109.9050 
 273   0.0000       4.076092       110.9161 
 274   0.0000       4.127143       112.3053 
 275   0.0000       4.130138       112.3868 
 276   0.0000       4.154915       113.0610 
 277   0.0000       4.179822       113.7387 
 278   0.0000       4.193711       114.1167 
 279   0.0000       4.201275       114.3225 
 280   0.0000       4.209156       114.5370 
 281   0.0000       4.221651       114.8770 
 282   0.0000       4.249395       115.6319 
 283   0.0000       4.296913       116.9250 
 284   0.0000       4.315270       117.4245 
 285   0.0000       4.352722       118.4436 
 286   0.0000       4.386150       119.3532 
 287   0.0000       4.435623       120.6994 
 288   0.0000       4.445653       120.9724 
 289   0.0000       4.529456       123.2528 
 290   0.0000       4.610547       125.4594 
 291   0.0000       4.629185       125.9665 
 292   0.0000       4.640102       126.2636 
 293   0.0000       4.692806       127.6977 
 294   0.0000       4.750116       129.2572 
 295   0.0000       4.855795       132.1329 
 296   0.0000       4.886778       132.9760 
 297   0.0000       4.937573       134.3582 
 298   0.0000       4.964049       135.0786 
 299   0.0000       5.127349       139.5223 
 300   0.0000       5.176235       140.8525 
 301   0.0000       5.196790       141.4119 
 302   0.0000       5.205508       141.6491 
 303   0.0000       5.343996       145.4175 
 304   0.0000       5.375964       146.2874 
 305   0.0000       5.453891       148.4079 
 306   0.0000       5.564116       151.4073 
 307   0.0000       5.574476       151.6892 
 308   0.0000       5.709046       155.3510 
 309   0.0000       6.095902       165.8779 
 310   0.0000       6.331470       172.2881 
 311   0.0000       6.380694       173.6275 
 312   0.0000       6.469127       176.0339 
 313   0.0000       6.515630       177.2993 
 314   0.0000       6.781598       184.5367 
 315   0.0000       6.985399       190.0824 
 316   0.0000       7.059663       192.1032 
 317   0.0000       7.738850       210.5848 
 318   0.0000      21.945665       597.1719 
 319   0.0000      22.611931       615.3019 
 320   0.0000      22.621987       615.5756 
 321   0.0000      22.702839       617.7757 
 322   0.0000      22.788715       620.1125 
 323   0.0000      22.903025       623.2230 
 324   0.0000      23.229939       632.1188 
 325   0.0000      43.800821      1191.8809 

                    ********************************
                    * MULLIKEN POPULATION ANALYSIS *
                    ********************************

-----------------------
MULLIKEN ATOMIC CHARGES
-----------------------
   0 O :   -0.265771
   1 C :    0.091213
   2 C :    0.136950
   3 C :   -0.175151
   4 C :   -0.112579
   5 C :    0.097612
   6 Br:   -0.060367
   7 C :   -0.141438
   8 C :   -0.159499
   9 H :    0.062686
  10 H :    0.140755
  11 H :    0.134061
  12 H :    0.131579
  13 H :    0.119949
Sum of atomic charges:    0.0000000

--------------------------------
MULLIKEN REDUCED ORBITAL CHARGES
--------------------------------
  0 O s       :     3.812900  s :     3.812900
      pz      :     1.298981  p :     4.420759
      px      :     1.628901
      py      :     1.492877
      dz2     :     0.002341  d :     0.030341
      dxz     :     0.004770
      dyz     :     0.007026
      dx2y2   :     0.008505
      dxy     :     0.007698
      f0      :     0.000169  f :     0.001771
      f+1     :     0.000061
      f-1     :     0.000076
      f+2     :     0.000028
      f-2     :     0.000460
      f+3     :     0.000418
      f-3     :     0.000560
  1 C s       :     3.263885  s :     3.263885
      pz      :     0.744632  p :     2.469380
      px      :     0.834448
      py      :     0.890301
      dz2     :     0.006363  d :     0.160240
      dxz     :     0.030174
      dyz     :     0.016747
      dx2y2   :     0.072578
      dxy     :     0.034378
      f0      :     0.002025  f :     0.015282
      f+1     :     0.000882
      f-1     :     0.000966
      f+2     :     0.000686
      f-2     :     0.002043
      f+3     :     0.003393
      f-3     :     0.005287
  2 C s       :     3.110769  s :     3.110769
      pz      :     0.956325  p :     2.639282
      px      :     0.821957
      py      :     0.861000
      dz2     :     0.006902  d :     0.103229
      dxz     :     0.013786
      dyz     :     0.022967
      dx2y2   :     0.034034
      dxy     :     0.025540
      f0      :     0.001750  f :     0.009769
      f+1     :     0.000742
      f-1     :     0.000504
      f+2     :     0.000491
      f-2     :     0.001092
      f+3     :     0.001682
      f-3     :     0.003508
  3 C s       :     3.268122  s :     3.268122
      pz      :     0.910262  p :     2.816959
      px      :     0.931438
      py      :     0.975258
      dz2     :     0.004286  d :     0.082638
      dxz     :     0.018081
      dyz     :     0.010213
      dx2y2   :     0.018324
      dxy     :     0.031734
      f0      :     0.001489  f :     0.007432
      f+1     :     0.000509
      f-1     :     0.000549
      f+2     :     0.000988
      f-2     :     0.000359
      f+3     :     0.001277
      f-3     :     0.002262
  4 C s       :     3.193203  s :     3.193203
      pz      :     0.970124  p :     2.829055
      px      :     0.937560
      py      :     0.921371
      dz2     :     0.005282  d :     0.082900
      dxz     :     0.017568
      dyz     :     0.009156
      dx2y2   :     0.018157
      dxy     :     0.032737
      f0      :     0.001562  f :     0.007422
      f+1     :     0.000514
      f-1     :     0.000617
      f+2     :     0.000750
      f-2     :     0.000511
      f+3     :     0.001348
      f-3     :     0.002121
  5 C s       :     3.225481  s :     3.225481
      pz      :     0.953956  p :     2.516214
      px      :     0.744285
      py      :     0.817972
      dz2     :     0.007701  d :     0.151030
      dxz     :     0.024422
      dyz     :     0.025986
      dx2y2   :     0.055088
      dxy     :     0.037833
      f0      :     0.001826  f :     0.009663
      f+1     :     0.000867
      f-1     :     0.000471
      f+2     :     0.000756
      f-2     :     0.001129
      f+3     :     0.001469
      f-3     :     0.003144
  6 Brs       :     7.909618  s :     7.909618
      pz      :     5.923602  p :    17.088274
      px      :     5.190928
      py      :     5.973743
      dz2     :     2.006503  d :    10.054779
      dxz     :     2.019037
      dyz     :     2.000569
      dx2y2   :     2.019353
      dxy     :     2.009316
      f0      :     0.000818  f :     0.007696
      f+1     :     0.001505
      f-1     :     0.000107
      f+2     :     0.001175
      f-2     :     0.000062
      f+3     :     0.002620
      f-3     :     0.001409
  7 C s       :     3.204106  s :     3.204106
      pz      :     0.973953  p :     2.847390
      px      :     0.953679
      py      :     0.919758
      dz2     :     0.005015  d :     0.082452
      dxz     :     0.016464
      dyz     :     0.010973
      dx2y2   :     0.016397
      dxy     :     0.033604
      f0      :     0.001578  f :     0.007490
      f+1     :     0.000548
      f-1     :     0.000600
      f+2     :     0.001006
      f-2     :     0.000312
      f+3     :     0.001300
      f-3     :     0.002147
  8 C s       :     3.226012  s :     3.226012
      pz      :     0.943426  p :     2.842798
      px      :     0.937613
      py      :     0.961758
      dz2     :     0.004982  d :     0.083185
      dxz     :     0.021729
      dyz     :     0.008211
      dx2y2   :     0.019490
      dxy     :     0.028772
      f0      :     0.001501  f :     0.007505
      f+1     :     0.000491
      f-1     :     0.000563
      f+2     :     0.000800
      f-2     :     0.000565
      f+3     :     0.001314
      f-3     :     0.002270
  9 H s       :     0.917209  s :     0.917209
      pz      :     0.002600  p :     0.020105
      px      :     0.004646
      py      :     0.012860
 10 H s       :     0.836474  s :     0.836474
      pz      :     0.004287  p :     0.022772
      px      :     0.007783
      py      :     0.010702
 11 H s       :     0.843271  s :     0.843271
      pz      :     0.004696  p :     0.022668
      px      :     0.005885
      py      :     0.012088
 12 H s       :     0.845722  s :     0.845722
      pz      :     0.004761  p :     0.022699
      px      :     0.007098
      py      :     0.010840
 13 H s       :     0.857578  s :     0.857578
      pz      :     0.004587  p :     0.022473
      px      :     0.005772
      py      :     0.012114


                     *******************************
                     * LOEWDIN POPULATION ANALYSIS *
                     *******************************

----------------------
LOEWDIN ATOMIC CHARGES
----------------------
   0 O :    0.124418
   1 C :   -0.263868
   2 C :   -0.157990
   3 C :   -0.066255
   4 C :   -0.131313
   5 C :   -0.366204
   6 Br:    0.362135
   7 C :   -0.136263
   8 C :   -0.087215
   9 H :    0.113913
  10 H :    0.158357
  11 H :    0.149890
  12 H :    0.149180
  13 H :    0.151216

-------------------------------
LOEWDIN REDUCED ORBITAL CHARGES
-------------------------------
  0 O s       :     3.402812  s :     3.402812
      pz      :     1.229326  p :     4.394864
      px      :     1.590622
      py      :     1.574916
      dz2     :     0.007930  d :     0.071501
      dxz     :     0.005639
      dyz     :     0.008300
      dx2y2   :     0.024962
      dxy     :     0.024669
      f0      :     0.000409  f :     0.006406
      f+1     :     0.000450
      f-1     :     0.000642
      f+2     :     0.000042
      f-2     :     0.000757
      f+3     :     0.001950
      f-3     :     0.002157
  1 C s       :     2.815624  s :     2.815624
      pz      :     0.716880  p :     2.707744
      px      :     1.000183
      py      :     0.990680
      dz2     :     0.041754  d :     0.646388
      dxz     :     0.088170
      dyz     :     0.041640
      dx2y2   :     0.296607
      dxy     :     0.178217
      f0      :     0.006778  f :     0.094112
      f+1     :     0.006137
      f-1     :     0.007004
      f+2     :     0.004530
      f-2     :     0.012950
      f+3     :     0.019963
      f-3     :     0.036750
  2 C s       :     2.712186  s :     2.712186
      pz      :     0.858129  p :     2.894649
      px      :     0.992757
      py      :     1.043763
      dz2     :     0.036852  d :     0.494515
      dxz     :     0.043093
      dyz     :     0.077052
      dx2y2   :     0.185912
      dxy     :     0.151605
      f0      :     0.003999  f :     0.056639
      f+1     :     0.004355
      f-1     :     0.004569
      f+2     :     0.003656
      f-2     :     0.007346
      f+3     :     0.010443
      f-3     :     0.022270
  3 C s       :     2.756704  s :     2.756704
      pz      :     0.837430  p :     2.883862
      px      :     1.035008
      py      :     1.011424
      dz2     :     0.025851  d :     0.381610
      dxz     :     0.057917
      dyz     :     0.031861
      dx2y2   :     0.109646
      dxy     :     0.156336
      f0      :     0.003126  f :     0.044079
      f+1     :     0.004084
      f-1     :     0.003542
      f+2     :     0.006798
      f-2     :     0.002351
      f+3     :     0.008667
      f-3     :     0.015512
  4 C s       :     2.764082  s :     2.764082
      pz      :     0.884586  p :     2.941614
      px      :     1.058539
      py      :     0.998488
      dz2     :     0.027030  d :     0.381679
      dxz     :     0.058813
      dyz     :     0.025844
      dx2y2   :     0.119658
      dxy     :     0.150334
      f0      :     0.003265  f :     0.043938
      f+1     :     0.004383
      f-1     :     0.003686
      f+2     :     0.005201
      f-2     :     0.003745
      f+3     :     0.008935
      f-3     :     0.014723
  5 C s       :     2.785795  s :     2.785795
      pz      :     0.890548  p :     2.962824
      px      :     0.963322
      py      :     1.108955
      dz2     :     0.039506  d :     0.561718
      dxz     :     0.072719
      dyz     :     0.082622
      dx2y2   :     0.210141
      dxy     :     0.156729
      f0      :     0.003739  f :     0.055867
      f+1     :     0.004202
      f-1     :     0.004661
      f+2     :     0.004674
      f-2     :     0.007477
      f+3     :     0.010173
      f-3     :     0.020940
  6 Brs       :     7.583637  s :     7.583637
      pz      :     5.858028  p :    16.918437
      px      :     5.188391
      py      :     5.872018
      dz2     :     2.015521  d :    10.120423
      dxz     :     2.034829
      dyz     :     2.000756
      dx2y2   :     2.043764
      dxy     :     2.025553
      f0      :     0.001495  f :     0.015368
      f+1     :     0.002868
      f-1     :     0.000229
      f+2     :     0.002249
      f-2     :     0.000069
      f+3     :     0.005138
      f-3     :     0.003320
  7 C s       :     2.763804  s :     2.763804
      pz      :     0.890551  p :     2.947046
      px      :     1.049118
      py      :     1.007378
      dz2     :     0.027045  d :     0.381395
      dxz     :     0.053544
      dyz     :     0.032318
      dx2y2   :     0.110512
      dxy     :     0.157976
      f0      :     0.003287  f :     0.044018
      f+1     :     0.004237
      f-1     :     0.003860
      f+2     :     0.006639
      f-2     :     0.002381
      f+3     :     0.008896
      f-3     :     0.014719
  8 C s       :     2.755982  s :     2.755982
      pz      :     0.856350  p :     2.899004
      px      :     1.041909
      py      :     1.000745
      dz2     :     0.026201  d :     0.388120
      dxz     :     0.069333
      dyz     :     0.024697
      dx2y2   :     0.124335
      dxy     :     0.143554
      f0      :     0.003066  f :     0.044109
      f+1     :     0.004175
      f-1     :     0.003502
      f+2     :     0.005507
      f-2     :     0.003755
      f+3     :     0.008629
      f-3     :     0.015475
  9 H s       :     0.831051  s :     0.831051
      pz      :     0.007615  p :     0.055036
      px      :     0.012263
      py      :     0.035159
 10 H s       :     0.781363  s :     0.781363
      pz      :     0.012201  p :     0.060280
      px      :     0.020462
      py      :     0.027618
 11 H s       :     0.790606  s :     0.790606
      pz      :     0.013365  p :     0.059504
      px      :     0.015669
      py      :     0.030470
 12 H s       :     0.791173  s :     0.791173
      pz      :     0.013584  p :     0.059647
      px      :     0.018528
      py      :     0.027534
 13 H s       :     0.789998  s :     0.789998
      pz      :     0.012969  p :     0.058787
      px      :     0.015702
      py      :     0.030116


                      *****************************
                      * MAYER POPULATION ANALYSIS *
                      *****************************

  NA   - Mulliken gross atomic population
  ZA   - Total nuclear charge
  QA   - Mulliken gross atomic charge
  VA   - Mayer's total valence
  BVA  - Mayer's bonded valence
  FA   - Mayer's free valence

  ATOM       NA         ZA         QA         VA         BVA        FA
  0 O      8.2658     8.0000    -0.2658     2.1832     2.1832     0.0000
  1 C      5.9088     6.0000     0.0912     4.0826     4.0826     0.0000
  2 C      5.8630     6.0000     0.1370     3.4805     3.4805     0.0000
  3 C      6.1752     6.0000    -0.1752     3.9397     3.9397     0.0000
  4 C      6.1126     6.0000    -0.1126     3.8024     3.8024    -0.0000
  5 C      5.9024     6.0000     0.0976     3.8925     3.8925     0.0000
  6 Br    35.0604    35.0000    -0.0604     1.2152     1.2152    -0.0000
  7 C      6.1414     6.0000    -0.1414     3.8710     3.8710     0.0000
  8 C      6.1595     6.0000    -0.1595     3.9152     3.9152     0.0000
  9 H      0.9373     1.0000     0.0627     0.9628     0.9628     0.0000
 10 H      0.8592     1.0000     0.1408     0.9932     0.9932    -0.0000
 11 H      0.8659     1.0000     0.1341     0.9707     0.9707    -0.0000
 12 H      0.8684     1.0000     0.1316     0.9720     0.9720     0.0000
 13 H      0.8801     1.0000     0.1199     0.9772     0.9772     0.0000

  Mayer bond orders larger than 0.100000
B(  0-O ,  1-C ) :   2.1060 B(  0-O ,  2-C ) :  -0.1147 B(  1-C ,  2-C ) :   0.9182 
B(  1-C ,  9-H ) :   0.9937 B(  2-C ,  3-C ) :   1.3361 B(  2-C ,  8-C ) :   1.3434 
B(  3-C ,  4-C ) :   1.3946 B(  3-C , 10-H ) :   0.9573 B(  4-C ,  5-C ) :   1.3161 
B(  4-C , 11-H ) :   0.9753 B(  5-C ,  6-Br) :   1.0476 B(  5-C ,  7-C ) :   1.3583 
B(  7-C ,  8-C ) :   1.3943 B(  7-C , 12-H ) :   0.9707 B(  8-C , 13-H ) :   0.9572 


-------
TIMINGS
-------

Total SCF time: 0 days 0 hours 0 min 26 sec 

Total time                  ....      26.363 sec
Sum of individual times     ....      25.766 sec  ( 97.7%)

Fock matrix formation       ....      23.562 sec  ( 89.4%)
  Split-RI-J                ....       2.472 sec  ( 10.5% of F)
  Chain of spheres X        ....      17.768 sec  ( 75.4% of F)
  XC integration            ....       3.018 sec  ( 12.8% of F)
    Basis function eval.    ....       0.777 sec  ( 25.7% of XC)
    Density eval.           ....       0.749 sec  ( 24.8% of XC)
    XC-Functional eval.     ....       0.103 sec  (  3.4% of XC)
    XC-Potential eval.      ....       0.957 sec  ( 31.7% of XC)
Diagonalization             ....       0.270 sec  (  1.0%)
Density matrix formation    ....       0.023 sec  (  0.1%)
Population analysis         ....       0.029 sec  (  0.1%)
Initial guess               ....       0.202 sec  (  0.8%)
Orbital Transformation      ....       0.000 sec  (  0.0%)
Orbital Orthonormalization  ....       0.000 sec  (  0.0%)
DIIS solution               ....       0.155 sec  (  0.6%)
SOSCF solution              ....       0.234 sec  (  0.9%)
Grid generation             ....       1.291 sec  (  4.9%)

Maximum memory used throughout the entire SCF-calculation: 79.2 MB

-------------------------   --------------------
FINAL SINGLE POINT ENERGY     -2918.944058929453
-------------------------   --------------------


                            ***************************************
                            *     ORCA property calculations      *
                            ***************************************

                                    ---------------------
                                    Active property flags
                                    ---------------------
   (+) Dipole Moment
   (+) Chemical Shifts
   (+) Nuclear properties (Hyperfine,Quadrupole)


------------------------------------------------------------------------------
                       ORCA ELECTRIC PROPERTIES CALCULATION
------------------------------------------------------------------------------

Dipole Moment Calculation                       ... on
Quadrupole Moment Calculation                   ... off
Polarizability Calculation                      ... off
GBWName                                         ... arbr_06_r2scan3c_nmr.gbw
Electron density                                ... arbr_06_r2scan3c_nmr.scfp
The origin for moment calculation is the CENTER OF MASS  = ( 0.325027, -0.026951 -0.000003)

-------------
DIPOLE MOMENT
-------------
                                X             Y             Z
Electronic contribution:     29.81703      -1.78274      -0.00000
Nuclear contribution   :    -29.25230       2.42546      -0.00002
                        -----------------------------------------
Total Dipole Moment    :      0.56473       0.64272      -0.00003
                        -----------------------------------------
Magnitude (a.u.)       :      0.85558
Magnitude (Debye)      :      2.17471



--------------------
Rotational spectrum 
--------------------
 
Rotational constants in cm-1:     0.169249     0.015443     0.014152 
Rotational constants in MHz :  5073.952042   462.962825   424.252716 

 Dipole components along the rotational axes: 
x,y,z [a.u.] :     0.566796    -0.640903    -0.000024 
x,y,z [Debye]:     1.440680    -1.629046    -0.000061 

 


           ************************************************************
           *        Program running with 16 parallel MPI-processes    *
           *              working on a common directory               *
           ************************************************************
------------------------------------------------------------------------------
                                ORCA EPR/NMR CALCULATION
------------------------------------------------------------------------------

GBWName                      ... arbr_06_r2scan3c_nmr.gbw
Electron density             ... arbr_06_r2scan3c_nmr.scfp
Spin density                 ... arbr_06_r2scan3c_nmr.scfr
Treatment of gauge           ... GIAO (approximations 1/2el = 0,0)
Details of the CP(SCF) procedure:
       Solver   = POPLE   
       MaxIter  =    64   
       Tolerance=    1.000e-03
       COSX Grid=     1   
       Op-0     =   0- 44 =>  45-325
Multiplicity                 ... 1
g-tensor                     ... 0
NMR chemical shifts          ... 1
NMR spin-spin couplings      ... 0
NMR spectrum                 ... 0
Number of nuclei for epr/nmr ... 14
   Nucleus:   0O 
       Hyperfine : Isotope=   17 I=   2.500 P= -72.357
       Quadrupole: Isotope=   17 I=   2.500 Q=  -0.026
       Spin-Orbit: Zeff=   5.600
       Nuclear Spin-Spin: Gn=   0.000
       EPRNMR Input: 
       rho(0)=N f(grad)=N a(iso)=N a(dip)=N a(orb)=N sigma(nmr)=Y spin-spin(nmr)=all-N,DSO-N,PSO-N,FC-N,SD-N
   Nucleus:   1C 
       Hyperfine : Isotope=   13 I=   0.500 P= 134.188
       Quadrupole: Isotope=   13 I=   0.500 Q=   0.000
       Spin-Orbit: Zeff=   3.600
       Nuclear Spin-Spin: Gn=   0.000
       EPRNMR Input: 
       rho(0)=N f(grad)=N a(iso)=N a(dip)=N a(orb)=N sigma(nmr)=Y spin-spin(nmr)=all-N,DSO-N,PSO-N,FC-N,SD-N
   Nucleus:   2C 
       Hyperfine : Isotope=   13 I=   0.500 P= 134.188
       Quadrupole: Isotope=   13 I=   0.500 Q=   0.000
       Spin-Orbit: Zeff=   3.600
       Nuclear Spin-Spin: Gn=   0.000
       EPRNMR Input: 
       rho(0)=N f(grad)=N a(iso)=N a(dip)=N a(orb)=N sigma(nmr)=Y spin-spin(nmr)=all-N,DSO-N,PSO-N,FC-N,SD-N
   Nucleus:   3C 
       Hyperfine : Isotope=   13 I=   0.500 P= 134.188
       Quadrupole: Isotope=   13 I=   0.500 Q=   0.000
       Spin-Orbit: Zeff=   3.600
       Nuclear Spin-Spin: Gn=   0.000
       EPRNMR Input: 
       rho(0)=N f(grad)=N a(iso)=N a(dip)=N a(orb)=N sigma(nmr)=Y spin-spin(nmr)=all-N,DSO-N,PSO-N,FC-N,SD-N
   Nucleus:   4C 
       Hyperfine : Isotope=   13 I=   0.500 P= 134.188
       Quadrupole: Isotope=   13 I=   0.500 Q=   0.000
       Spin-Orbit: Zeff=   3.600
       Nuclear Spin-Spin: Gn=   0.000
       EPRNMR Input: 
       rho(0)=N f(grad)=N a(iso)=N a(dip)=N a(orb)=N sigma(nmr)=Y spin-spin(nmr)=all-N,DSO-N,PSO-N,FC-N,SD-N
   Nucleus:   5C 
       Hyperfine : Isotope=   13 I=   0.500 P= 134.188
       Quadrupole: Isotope=   13 I=   0.500 Q=   0.000
       Spin-Orbit: Zeff=   3.600
       Nuclear Spin-Spin: Gn=   0.000
       EPRNMR Input: 
       rho(0)=N f(grad)=N a(iso)=N a(dip)=N a(orb)=N sigma(nmr)=Y spin-spin(nmr)=all-N,DSO-N,PSO-N,FC-N,SD-N
   Nucleus:   6Br
       Hyperfine : Isotope=   79 I=   1.500 P= 134.140
       Quadrupole: Isotope=   79 I=   1.500 Q=   0.313
       Spin-Orbit: Zeff=  30.100
       Nuclear Spin-Spin: Gn=   0.000
       EPRNMR Input: 
       rho(0)=N f(grad)=N a(iso)=N a(dip)=N a(orb)=N sigma(nmr)=Y spin-spin(nmr)=all-N,DSO-N,PSO-N,FC-N,SD-N
   Nucleus:   7C 
       Hyperfine : Isotope=   13 I=   0.500 P= 134.188
       Quadrupole: Isotope=   13 I=   0.500 Q=   0.000
       Spin-Orbit: Zeff=   3.600
       Nuclear Spin-Spin: Gn=   0.000
       EPRNMR Input: 
       rho(0)=N f(grad)=N a(iso)=N a(dip)=N a(orb)=N sigma(nmr)=Y spin-spin(nmr)=all-N,DSO-N,PSO-N,FC-N,SD-N
   Nucleus:   8C 
       Hyperfine : Isotope=   13 I=   0.500 P= 134.188
       Quadrupole: Isotope=   13 I=   0.500 Q=   0.000
       Spin-Orbit: Zeff=   3.600
       Nuclear Spin-Spin: Gn=   0.000
       EPRNMR Input: 
       rho(0)=N f(grad)=N a(iso)=N a(dip)=N a(orb)=N sigma(nmr)=Y spin-spin(nmr)=all-N,DSO-N,PSO-N,FC-N,SD-N
   Nucleus:   9H 
       Hyperfine : Isotope=    1 I=   0.500 P= 533.552
       Quadrupole: Isotope=    2 I=   1.000 Q=   0.003
       Spin-Orbit: Zeff=   1.000
       Nuclear Spin-Spin: Gn=   0.000
       EPRNMR Input: 
       rho(0)=N f(grad)=N a(iso)=N a(dip)=N a(orb)=N sigma(nmr)=Y spin-spin(nmr)=all-N,DSO-N,PSO-N,FC-N,SD-N
   Nucleus:  10H 
       Hyperfine : Isotope=    1 I=   0.500 P= 533.552
       Quadrupole: Isotope=    2 I=   1.000 Q=   0.003
       Spin-Orbit: Zeff=   1.000
       Nuclear Spin-Spin: Gn=   0.000
       EPRNMR Input: 
       rho(0)=N f(grad)=N a(iso)=N a(dip)=N a(orb)=N sigma(nmr)=Y spin-spin(nmr)=all-N,DSO-N,PSO-N,FC-N,SD-N
   Nucleus:  11H 
       Hyperfine : Isotope=    1 I=   0.500 P= 533.552
       Quadrupole: Isotope=    2 I=   1.000 Q=   0.003
       Spin-Orbit: Zeff=   1.000
       Nuclear Spin-Spin: Gn=   0.000
       EPRNMR Input: 
       rho(0)=N f(grad)=N a(iso)=N a(dip)=N a(orb)=N sigma(nmr)=Y spin-spin(nmr)=all-N,DSO-N,PSO-N,FC-N,SD-N
   Nucleus:  12H 
       Hyperfine : Isotope=    1 I=   0.500 P= 533.552
       Quadrupole: Isotope=    2 I=   1.000 Q=   0.003
       Spin-Orbit: Zeff=   1.000
       Nuclear Spin-Spin: Gn=   0.000
       EPRNMR Input: 
       rho(0)=N f(grad)=N a(iso)=N a(dip)=N a(orb)=N sigma(nmr)=Y spin-spin(nmr)=all-N,DSO-N,PSO-N,FC-N,SD-N
   Nucleus:  13H 
       Hyperfine : Isotope=    1 I=   0.500 P= 533.552
       Quadrupole: Isotope=    2 I=   1.000 Q=   0.003
       Spin-Orbit: Zeff=   1.000
       Nuclear Spin-Spin: Gn=   0.000
       EPRNMR Input: 
       rho(0)=N f(grad)=N a(iso)=N a(dip)=N a(orb)=N sigma(nmr)=Y spin-spin(nmr)=all-N,DSO-N,PSO-N,FC-N,SD-N
Forming RHS of the CP-SCF equations         ... 
Calculating right hand sides for GIAO treatment        ... 
  Entering RightHandSide GIAO. ScalHFX=    0.2000 NeedHFX=1
     -> 1-electron GIAO integrals will be done analytically
     -> RIJCOSX used in SCF. Same chosen for GIAO calculation.
     Making grid for GIAO integrations   ...

GRID GIAO
---------

General Integration Accuracy     IntAcc      ... 4.388
Radial Grid Type                 RadialGrid  ... OptM3 with GC (2021)
Angular Grid (max. ang.)         AngularGrid ... 4 (Lebedev-302)
Angular grid pruning method      GridPruning ... 4 (adaptive)
Weight generation scheme         WeightScheme... Becke
Basis function cutoff            BFCut       ... 1.0000e-10
Integration weight cutoff        WCut        ... 1.0000e-14
Angular grids for H and He will be reduced by one unit
Partially contracted basis set               ... off
Rotationally invariant grid construction     ... off

Total number of grid points                  ...    75517
Total number of batches                      ...     1186
Average number of points per batch           ...       63
Average number of grid points per atom       ...     5394

  One-electron GIAO integrals (SHARK)     ... done
  Calculating G(B)[P]                     ... (RI-J: SHARK-ok) (COSX-ok) (add-J+K:ok) => dG/dB done
  DFT XC-terms                            ... done
  Extracting occupied and virtual blocks  ... 
  Operator  0  NO=  45 NV= 281 
  Transforming and RHS contribution       ... done
  Adding eps_i * S(B)_ai terms            ... done
  Projecting overlap derivatives          ... done
  Building G[dS/dB_ij] (COSX)             ... done
  Transforming to MO basis                ... done
  Summing G[dS/dB_ij] into RHS contribs.  ... done

  GIAO profiling information: 
    Total GIAO time               ...       7.0 sec
       GIAO 1-electron integrals  ...       0.0 sec (  0.5%)
       GIAO G(dS/dB) terms        ...       0.6 sec (  8.9%)
       GIAO RI-J                  ...       1.0 sec ( 14.0%)
       GIAO COSX                  ...       2.0 sec ( 28.4%)
       GIAO XC-terms              ...       2.7 sec ( 38.6%)
       Right hand side assembly   ...       0.0 sec (  0.4%)

  GIAO right hand side done


------------------------------------------------------------------------------
                           ORCA CP-SCF CALCULATION
------------------------------------------------------------------------------

Input orbitals are from        ... arbr_06_r2scan3c_nmr.gbw
Input Perturbation             ... arbr_06_r2scan3c_nmr.pin.tmp
Wavefunction output            ... arbr_06_r2scan3c_nmr.pout.tmp
Perturbation mode              ... Imaginary perturbation
Solver                         ... POPLE
Max. number of iterations      ... 64
Convergence tolerance          ... 1.000e-03
Integral handling              ... Direct
DFT GridXC                     ... 1
COSX GridX                     ... 1
COSX IntAccX                   ... 3.067
COSX Algorithm                 ... Auto
Number of perturbations        ... 3
Number of operators            ... 1
Orbital ranges used for CP-SCF:
 Operator 0:  Orbitals   0... 44  to  45...325
Variables per perturbation     ... 12645
DFT calculation                         ... on
XC functional terms                     ... off
Hybrid DFT                              ... on
   Exchange mixing (SCF)                ...  0.200
   Exchange mixing (CP-SCF)             ...  0.200
   GGA exch. scaling(SCF)               ...  0.720
   GGA exch. scaling (CP-SCF)           ...  0.720
   GGA corr. scaling (SCF)              ...  0.810
   GGA corr. scaling (CP-SCF)           ...  0.810

CP-SCF GRID
-----------

General Integration Accuracy     IntAcc      ... 3.467
Radial Grid Type                 RadialGrid  ... OptM3 with GC (2021)
Angular Grid (max. ang.)         AngularGrid ... 1 (Lebedev-50)
Angular grid pruning method      GridPruning ... 4 (adaptive)
Weight generation scheme         WeightScheme... Becke
Basis function cutoff            BFCut       ... 1.0000e-10
Integration weight cutoff        WCut        ... 1.0000e-14
Angular grids for H and He will be reduced by one unit
Partially contracted basis set               ... off
Rotationally invariant grid construction     ... off

Total number of grid points                  ...    13898
Total number of batches                      ...      223
Average number of points per batch           ...       62
Average number of grid points per atom       ...      993

CP-SCF GRIDX
------------

General Integration Accuracy     IntAcc      ... 3.067
Radial Grid Type                 RadialGrid  ... OptM3 with GC (2021)
Angular Grid (max. ang.)         AngularGrid ... 1 (Lebedev-50)
Angular grid pruning method      GridPruning ... 4 (adaptive)
Weight generation scheme         WeightScheme... Becke
Basis function cutoff            BFCut       ... 1.0000e-10
Integration weight cutoff        WCut        ... 1.0000e-14
Angular grids for H and He will be reduced by one unit
Partially contracted basis set               ... on
Rotationally invariant grid construction     ... off

Total number of grid points                  ...     5184
Total number of batches                      ...       90
Average number of points per batch           ...       57
Average number of grid points per atom       ...      370

Memory available               ... 3972.4 MB
Memory needed per perturbation ...   3.3 MB
Perturbations treated per batch... 3
Number of batches              ... 1
     CP-SCF ITERATION   0:   6.0373e-01 (   0.6 sec   0/  3 done)
     CP-SCF ITERATION   1:   3.7564e-02 (   0.5 sec   0/  3 done)
     CP-SCF ITERATION   2:   2.5532e-03 (   0.6 sec   1/  3 done)
     CP-SCF ITERATION   3:   2.1487e-04 (   0.5 sec   3/  3 done)
                    *** THE CP-SCF HAS CONVERGED ***

Forming final perturbed densities           ... done
Transforming perturbed density to AO basis  ... done

Magnetic field perturbation calculated in  9.496 sec

---------------
CHEMICAL SHIFTS
---------------

Note: using conversion factor for au to ppm alpha^2/2 =   26.625677252 
GIAO: Analytic para- and diamagnetic shielding integrals (SHARK)       ...done
 --------------
 Nucleus   0O :
 --------------

Diamagnetic contribution to the shielding tensor (ppm) : 
           396.657         14.957        -0.001
            22.929        409.657        -0.001
            -0.000         -0.002       390.372

Paramagnetic contribution to the shielding tensor (ppm): 
         -1024.185       -306.720         0.031
          -232.201      -1073.703         0.030
             0.041          0.043       -14.824

Total shielding tensor (ppm): 
          -627.528       -291.762         0.031
          -209.271       -664.046         0.028
             0.040          0.041       375.548


 Diagonalized sT*s matrix:
 
 sDSO           390.372          383.505          422.809  iso=     398.895
 sPSO           -14.824         -778.622        -1319.267  iso=    -704.238
        ---------------  ---------------  ---------------
 Total          375.548         -395.117         -896.458  iso=    -305.342

 --------------
 Nucleus   1C :
 --------------

Diamagnetic contribution to the shielding tensor (ppm) : 
           267.890          3.988        -0.000
             1.003        247.249        -0.001
            -0.004         -0.004       203.849

Paramagnetic contribution to the shielding tensor (ppm): 
          -320.089         35.942         0.002
            42.698       -301.848         0.002
             0.007          0.007      -125.173

Total shielding tensor (ppm): 
           -52.199         39.930         0.002
            43.700        -54.599         0.001
             0.003          0.003        78.676


 Diagonalized sT*s matrix:
 
 sDSO           259.997          203.849          255.142  iso=     239.663
 sPSO          -271.589         -125.173         -350.348  iso=    -249.037
        ---------------  ---------------  ---------------
 Total          -11.592           78.676          -95.206  iso=      -9.374

 --------------
 Nucleus   2C :
 --------------

Diamagnetic contribution to the shielding tensor (ppm) : 
           261.117         -0.710         0.000
             1.239        265.737         0.000
             0.002         -0.000       236.073

Paramagnetic contribution to the shielding tensor (ppm): 
          -305.453         -1.683        -0.002
            -1.235       -258.631         0.000
            -0.003         -0.001       -71.494

Total shielding tensor (ppm): 
           -44.336         -2.393        -0.002
             0.004          7.105         0.000
            -0.000         -0.002       164.580


 Diagonalized sT*s matrix:
 
 sDSO           265.693          261.160          236.073  iso=     254.309
 sPSO          -258.614         -305.471          -71.494  iso=    -211.859
        ---------------  ---------------  ---------------
 Total            7.080          -44.310          164.580  iso=      42.450

 --------------
 Nucleus   3C :
 --------------

Diamagnetic contribution to the shielding tensor (ppm) : 
           271.125         -5.652         0.000
            -1.322        259.203         0.000
             0.001          0.001       240.704

Paramagnetic contribution to the shielding tensor (ppm): 
          -264.210        -33.532        -0.001
           -26.597       -293.695        -0.001
            -0.003         -0.002       -60.389

Total shielding tensor (ppm): 
             6.915        -39.185        -0.001
           -27.919        -34.492        -0.001
            -0.002         -0.002       180.315


 Diagonalized sT*s matrix:
 
 sDSO           272.035          258.293          240.704  iso=     257.011
 sPSO          -249.326         -308.579          -60.389  iso=    -206.098
        ---------------  ---------------  ---------------
 Total           22.709          -50.286          180.315  iso=      50.913

 --------------
 Nucleus   4C :
 --------------

Diamagnetic contribution to the shielding tensor (ppm) : 
           270.021          3.463        -0.000
             1.941        260.271         0.000
             0.001         -0.000       235.007

Paramagnetic contribution to the shielding tensor (ppm): 
          -244.267         31.116        -0.000
            37.791       -299.105        -0.001
            -0.000         -0.002       -84.550

Total shielding tensor (ppm): 
            25.753         34.579        -0.000
            39.732        -38.834        -0.001
             0.000         -0.002       150.457


 Diagonalized sT*s matrix:
 
 sDSO           269.320          260.972          235.007  iso=     255.099
 sPSO          -230.058         -313.315          -84.550  iso=    -209.308
        ---------------  ---------------  ---------------
 Total           39.262          -52.343          150.457  iso=      45.792

 --------------
 Nucleus   5C :
 --------------

Diamagnetic contribution to the shielding tensor (ppm) : 
           264.580         -0.634        -0.000
            -0.549        253.822         0.000
            -0.001          0.000       224.402

Paramagnetic contribution to the shielding tensor (ppm): 
          -330.460          6.761        -0.000
             5.188       -221.804        -0.001
            -0.000         -0.000      -105.820

Total shielding tensor (ppm): 
           -65.879          6.127        -0.000
             4.639         32.018        -0.000
            -0.001         -0.000       118.582


 Diagonalized sT*s matrix:
 
 sDSO           253.795          264.608          224.402  iso=     247.601
 sPSO          -221.530         -330.735         -105.820  iso=    -219.361
        ---------------  ---------------  ---------------
 Total           32.265          -66.127          118.582  iso=      28.240

 --------------
 Nucleus   6Br:
 --------------

Diamagnetic contribution to the shielding tensor (ppm) : 
          3128.475         -0.640         0.000
            -0.581       3119.920         0.000
            -0.002          0.002      3129.994

Paramagnetic contribution to the shielding tensor (ppm): 
          -264.293        -77.968        -0.003
           -77.209      -1548.232        -0.001
             0.007         -0.004     -1608.073

Total shielding tensor (ppm): 
          2864.182        -78.607        -0.003
           -77.789       1571.688        -0.000
             0.005         -0.002      1521.921


 Diagonalized sT*s matrix:
 
 sDSO          3129.994         3119.877         3128.518  iso=    3126.130
 sPSO         -1608.073        -1552.904         -259.622  iso=   -1140.199
        ---------------  ---------------  ---------------
 Total         1521.921         1566.974         2868.896  iso=    1985.930

 --------------
 Nucleus   7C :
 --------------

Diamagnetic contribution to the shielding tensor (ppm) : 
           269.391         -4.312         0.000
            -2.964        260.898         0.000
            -0.001          0.001       232.811

Paramagnetic contribution to the shielding tensor (ppm): 
          -254.784        -38.971        -0.001
           -46.011       -286.617        -0.002
            -0.000         -0.002       -82.010

Total shielding tensor (ppm): 
            14.607        -43.284        -0.001
           -48.975        -25.719        -0.001
            -0.001         -0.001       150.801


 Diagonalized sT*s matrix:
 
 sDSO           268.515          261.773          232.811  iso=     254.367
 sPSO          -229.264         -312.137          -82.010  iso=    -207.803
        ---------------  ---------------  ---------------
 Total           39.252          -50.364          150.801  iso=      46.563

 --------------
 Nucleus   8C :
 --------------

Diamagnetic contribution to the shielding tensor (ppm) : 
           268.415          1.600        -0.000
             3.171        260.612        -0.000
            -0.001          0.002       234.522

Paramagnetic contribution to the shielding tensor (ppm): 
          -264.364         40.474        -0.001
            20.672       -299.218        -0.001
             0.000         -0.002       -65.726

Total shielding tensor (ppm): 
             4.051         42.074        -0.001
            23.843        -38.605        -0.001
            -0.001          0.001       168.796


 Diagonalized sT*s matrix:
 
 sDSO           269.083          259.944          234.522  iso=     254.516
 sPSO          -251.639         -311.942          -65.726  iso=    -209.769
        ---------------  ---------------  ---------------
 Total           17.444          -51.998          168.796  iso=      44.747

 --------------
 Nucleus   9H :
 --------------

Diamagnetic contribution to the shielding tensor (ppm) : 
            31.281         -5.436        -0.000
            -6.340         36.833        -0.000
            -0.001         -0.001         8.569

Paramagnetic contribution to the shielding tensor (ppm): 
            -7.523          7.196         0.000
             4.425        -15.073         0.000
             0.001          0.001        10.576

Total shielding tensor (ppm): 
            23.758          1.760         0.000
            -1.915         21.760        -0.000
             0.000          0.000        19.145


 Diagonalized sT*s matrix:
 
 sDSO             8.569           36.852           31.263  iso=      25.561
 sPSO            10.576          -15.092           -7.504  iso=      -4.007
        ---------------  ---------------  ---------------
 Total           19.145           21.760           23.758  iso=      21.555

 --------------
 Nucleus  10H :
 --------------

Diamagnetic contribution to the shielding tensor (ppm) : 
            33.311          6.890         0.000
             6.866         37.171         0.000
             0.001          0.000        24.301

Paramagnetic contribution to the shielding tensor (ppm): 
            -6.070         -8.468        -0.000
            -8.129        -13.712        -0.001
            -0.001         -0.001        -4.166

Total shielding tensor (ppm): 
            27.241         -1.578        -0.000
            -1.263         23.459        -0.000
            -0.000         -0.000        20.136


 Diagonalized sT*s matrix:
 
 sDSO            24.301           40.942           29.540  iso=      31.594
 sPSO            -4.166          -17.958           -1.824  iso=      -7.982
        ---------------  ---------------  ---------------
 Total           20.136           22.985           27.715  iso=      23.612

 --------------
 Nucleus  11H :
 --------------

Diamagnetic contribution to the shielding tensor (ppm) : 
            32.051         -4.631         0.000
            -4.717         40.098         0.000
             0.000         -0.000        24.550

Paramagnetic contribution to the shielding tensor (ppm): 
            -3.753          8.750         0.000
             8.306        -15.663        -0.000
            -0.000          0.000        -4.874

Total shielding tensor (ppm): 
            28.298          4.119         0.000
             3.589         24.435         0.000
             0.000         -0.000        19.677


 Diagonalized sT*s matrix:
 
 sDSO            24.550           42.041           30.109  iso=      32.233
 sPSO            -4.874          -19.985            0.568  iso=      -8.097
        ---------------  ---------------  ---------------
 Total           19.677           22.056           30.677  iso=      24.137

 --------------
 Nucleus  12H :
 --------------

Diamagnetic contribution to the shielding tensor (ppm) : 
            33.288          5.340         0.000
             5.602         39.065         0.000
            -0.000          0.000        23.024

Paramagnetic contribution to the shielding tensor (ppm): 
            -6.169         -9.836        -0.000
            -9.552        -13.694        -0.000
             0.000         -0.000        -3.200

Total shielding tensor (ppm): 
            27.119         -4.496        -0.000
            -3.951         25.371         0.000
             0.000          0.000        19.825


 Diagonalized sT*s matrix:
 
 sDSO            23.024           42.101           30.252  iso=      31.792
 sPSO            -3.200          -20.168            0.305  iso=      -7.688
        ---------------  ---------------  ---------------
 Total           19.825           21.933           30.558  iso=      24.105

 --------------
 Nucleus  13H :
 --------------

Diamagnetic contribution to the shielding tensor (ppm) : 
            31.775         -6.064        -0.000
            -6.928         39.745        -0.000
            -0.001          0.001        24.269

Paramagnetic contribution to the shielding tensor (ppm): 
            -4.723          7.690         0.000
             7.545        -16.150         0.000
             0.001         -0.000        -2.456

Total shielding tensor (ppm): 
            27.052          1.626         0.000
             0.617         23.595        -0.000
             0.000          0.000        21.813


 Diagonalized sT*s matrix:
 
 sDSO            24.269           42.703           28.817  iso=      31.930
 sPSO            -2.456          -19.440           -1.434  iso=      -7.777
        ---------------  ---------------  ---------------
 Total           21.813           23.263           27.383  iso=      24.153



--------------------------------
CHEMICAL SHIELDING SUMMARY (ppm)
--------------------------------


  Nucleus  Element    Isotropic     Anisotropy
  -------  -------  ------------   ------------
      0       O         -305.342       -886.674 
      1       C           -9.374       -128.748 
      2       C           42.450        183.195 
      3       C           50.913        194.104 
      4       C           45.792        156.997 
      5       C           28.240        135.513 
      6       Br        1985.930       1324.449 
      7       C           46.563        156.357 
      8       C           44.747        186.073 
      9       H           21.555          3.306 
     10       H           23.612          6.155 
     11       H           24.137          9.811 
     12       H           24.105          9.679 
     13       H           24.153          4.845 



Maximum memory used throughout the entire EPRNMR-calculation: 45.1 MB

Timings for individual modules:

Sum of individual times         ...       38.197 sec (=   0.637 min)
GTO integral calculation        ...        0.866 sec (=   0.014 min)   2.3 %
SCF iterations                  ...       26.765 sec (=   0.446 min)  70.1 %
EPR/NMR calculation             ...       10.567 sec (=   0.176 min)  27.7 %
                             ****ORCA TERMINATED NORMALLY****
TOTAL RUN TIME: 0 days 0 hours 0 minutes 38 seconds 792 msec
