
                                 *****************
                                 * O   R   C   A *
                                 *****************

                                            #,                                       
                                            ###                                      
                                            ####                                     
                                            #####                                    
                                            ######                                   
                                           ########,                                 
                                     ,,################,,,,,                         
                               ,,#################################,,                 
                          ,,##########################################,,             
                       ,#########################################, ''#####,          
                    ,#############################################,,   '####,        
                  ,##################################################,,,,####,       
                ,###########''''           ''''###############################       
              ,#####''   ,,,,##########,,,,          '''####'''          '####       
            ,##' ,,,,###########################,,,                        '##       
           ' ,,###''''                  '''############,,,                           
         ,,##''                                '''############,,,,        ,,,,,,###''
      ,#''                                            '''#######################'''  
     '                                                          ''''####''''         
             ,#######,   #######,   ,#######,      ##                                
            ,#'     '#,  ##    ##  ,#'     '#,    #''#        ######   ,####,        
            ##       ##  ##   ,#'  ##            #'  '#       #        #'  '#        
            ##       ##  #######   ##           ,######,      #####,   #    #        
            '#,     ,#'  ##    ##  '#,     ,#' ,#      #,         ##   #,  ,#        
             '#######'   ##     ##  '#######'  #'      '#     #####' # '####'        



                  #######################################################
                  #                        -***-                        #
                  #          Department of theory and spectroscopy      #
                  #    Directorship and core code : Frank Neese         #
                  #        Max Planck Institute fuer Kohlenforschung    #
                  #                Kaiser Wilhelm Platz 1               #
                  #                 D-45470 Muelheim/Ruhr               #
                  #                      Germany                        #
                  #                                                     #
                  #                  All rights reserved                #
                  #                        -***-                        #
                  #######################################################


                         Program Version 5.0.4 -  RELEASE  -


 With contributions from (in alphabetic order):
   Daniel Aravena         : Magnetic Suceptibility
   Michael Atanasov       : Ab Initio Ligand Field Theory (pilot matlab implementation)
   Alexander A. Auer      : GIAO ZORA, VPT2 properties, NMR spectrum
   Ute Becker             : Parallelization
   Giovanni Bistoni       : ED, misc. LED, open-shell LED, HFLD
   Martin Brehm           : Molecular dynamics
   Dmytro Bykov           : SCF Hessian
   Vijay G. Chilkuri      : MRCI spin determinant printing, contributions to CSF-ICE
   Dipayan Datta          : RHF DLPNO-CCSD density
   Achintya Kumar Dutta   : EOM-CC, STEOM-CC
   Dmitry Ganyushin       : Spin-Orbit,Spin-Spin,Magnetic field MRCI
   Miquel Garcia          : C-PCM and meta-GGA Hessian, CC/C-PCM, Gaussian charge scheme
   Yang Guo               : DLPNO-NEVPT2, F12-NEVPT2, CIM, IAO-localization
   Andreas Hansen         : Spin unrestricted coupled pair/coupled cluster methods
   Benjamin Helmich-Paris : MC-RPA, TRAH-SCF, COSX integrals
   Lee Huntington         : MR-EOM, pCC
   Robert Izsak           : Overlap fitted RIJCOSX, COSX-SCS-MP3, EOM
   Marcus Kettner         : VPT2
   Christian Kollmar      : KDIIS, OOCD, Brueckner-CCSD(T), CCSD density, CASPT2, CASPT2-K
   Simone Kossmann        : Meta GGA functionals, TD-DFT gradient, OOMP2, MP2 Hessian
   Martin Krupicka        : Initial AUTO-CI
   Lucas Lang             : DCDCAS
   Marvin Lechner         : AUTO-CI (C++ implementation), FIC-MRCC
   Dagmar Lenk            : GEPOL surface, SMD
   Dimitrios Liakos       : Extrapolation schemes; Compound Job, initial MDCI parallelization
   Dimitrios Manganas     : Further ROCIS development; embedding schemes
   Dimitrios Pantazis     : SARC Basis sets
   Anastasios Papadopoulos: AUTO-CI, single reference methods and gradients
   Taras Petrenko         : DFT Hessian,TD-DFT gradient, ASA, ECA, R-Raman, ABS, FL, XAS/XES, NRVS
   Peter Pinski           : DLPNO-MP2, DLPNO-MP2 Gradient
   Christoph Reimann      : Effective Core Potentials
   Marius Retegan         : Local ZFS, SOC
   Christoph Riplinger    : Optimizer, TS searches, QM/MM, DLPNO-CCSD(T), (RO)-DLPNO pert. Triples
   Tobias Risthaus        : Range-separated hybrids, TD-DFT gradient, RPA, STAB
   Michael Roemelt        : Original ROCIS implementation
   Masaaki Saitow         : Open-shell DLPNO-CCSD energy and density
   Barbara Sandhoefer     : DKH picture change effects
   Avijit Sen             : IP-ROCIS
   Kantharuban Sivalingam : CASSCF convergence, NEVPT2, FIC-MRCI
   Bernardo de Souza      : ESD, SOC TD-DFT
   Georgi Stoychev        : AutoAux, RI-MP2 NMR, DLPNO-MP2 response
   Willem Van den Heuvel  : Paramagnetic NMR
   Boris Wezisla          : Elementary symmetry handling
   Frank Wennmohs         : Technical directorship


 We gratefully acknowledge several colleagues who have allowed us to
 interface, adapt or use parts of their codes:
   Stefan Grimme, W. Hujo, H. Kruse, P. Pracht,  : VdW corrections, initial TS optimization,
                  C. Bannwarth, S. Ehlert          DFT functionals, gCP, sTDA/sTD-DF
   Ed Valeev, F. Pavosevic, A. Kumar             : LibInt (2-el integral package), F12 methods
   Garnet Chan, S. Sharma, J. Yang, R. Olivares  : DMRG
   Ulf Ekstrom                                   : XCFun DFT Library
   Mihaly Kallay                                 : mrcc  (arbitrary order and MRCC methods)
   Jiri Pittner, Ondrej Demel                    : Mk-CCSD
   Frank Weinhold                                : gennbo (NPA and NBO analysis)
   Christopher J. Cramer and Donald G. Truhlar   : smd solvation model
   Lars Goerigk                                  : TD-DFT with DH, B97 family of functionals
   V. Asgeirsson, H. Jonsson                     : NEB implementation
   FAccTs GmbH                                   : IRC, NEB, NEB-TS, DLPNO-Multilevel, CI-OPT
                                                   MM, QMMM, 2- and 3-layer-ONIOM, Crystal-QMMM,
                                                   LR-CPCM, SF, NACMEs, symmetry and pop. for TD-DFT,
                                                   nearIR, NL-DFT gradient (VV10), updates on ESD,
                                                   ML-optimized integration grids
   S Lehtola, MJT Oliveira, MAL Marques          : LibXC Library
   Liviu Ungur et al                             : ANISO software


 Your calculation uses the libint2 library for the computation of 2-el integrals
 For citations please refer to: http://libint.valeyev.net

 Your ORCA version has been built with support for libXC version: 5.1.0
 For citations please refer to: https://tddft.org/programs/libxc/

 This ORCA versions uses:
   CBLAS   interface :  Fast vector & matrix operations
   LAPACKE interface :  Fast linear algebra routines
   SCALAPACK package :  Parallel linear algebra routines
   Shared memory     :  Shared parallel matrices
   BLAS/LAPACK       :  OpenBLAS 0.3.15  USE64BITINT DYNAMIC_ARCH NO_AFFINITY SkylakeX SINGLE_THREADED
        Core in use  :  SkylakeX
   Copyright (c) 2011-2014, The OpenBLAS Project



Information: The global flag for chemical shieldings has been found
             ==>> will calculate the chemical shieldings for all atoms in the system

================================================================================

----- Orbital basis set information -----
Your calculation utilizes the basis: def2-TZVP
   F. Weigend and R. Ahlrichs, Phys. Chem. Chem. Phys. 7, 3297 (2005).

----- AuxJ basis set information -----
Your calculation utilizes the auxiliary basis: def2/J
   F. Weigend, Phys. Chem. Chem. Phys. 8, 1057 (2006).

================================================================================
                                        WARNINGS
                       Please study these warnings very carefully!
================================================================================


INFO   : the flag for use of the SHARK integral package has been found!

================================================================================
                                       INPUT FILE
================================================================================
NAME = arbr_25_r2scan3c_nmr.inp
|  1> %PAL NPROCS 16 END
|  2> %maxcore 4000
|  3> # arbr_25_r2scan3c.out
|  4> ! NMR B3LYP def2-tzvp 
|  5> * xyz 0 1
|  6>    C        4.13046        -1.21366         1.26421
|  7>    C        4.15994        -0.36640         0.00008
|  8>    C        5.37245         0.55124         0.00026
|  9>    C        4.13088        -1.21371        -1.26403
| 10>    O        3.04484         0.57506        -0.00013
| 11>    C        1.78171         0.13486        -0.00032
| 12>    O        1.42897        -1.01723        -0.00018
| 13>    N        0.94353         1.22026        -0.00019
| 14>    C       -0.44767         1.23457        -0.00009
| 15>    C       -1.22990         0.07583        -0.00009
| 16>    C       -2.59771         0.25673         0.00001
| 17>   Br       -3.72753        -1.25802         0.00003
| 18>    C       -3.15735         1.52490         0.00011
| 19>    C       -2.27624         2.59264         0.00009
| 20>    N       -0.95556         2.46342        -0.00000
| 21>    H        5.04955        -1.79844         1.32047
| 22>    H        3.28172        -1.89278         1.26730
| 23>    H        4.08007        -0.57131         2.14455
| 24>    H        6.28538        -0.04412         0.00042
| 25>    H        5.36850         1.18656        -0.88558
| 26>    H        5.36821         1.18659         0.88609
| 27>    H        5.05000        -1.79849        -1.31996
| 28>    H        3.28215        -1.89283        -1.26738
| 29>    H        4.08078        -0.57139        -2.14441
| 30>    H        1.36971         2.13474        -0.00017
| 31>    H       -0.77780        -0.90151        -0.00016
| 32>    H       -4.22622         1.67456         0.00018
| 33>    H       -2.65418         3.60884         0.00016
| 34> *
| 35> 
| 36>                          ****END OF INPUT****
================================================================================

                       ****************************
                       * Single Point Calculation *
                       ****************************

---------------------------------
CARTESIAN COORDINATES (ANGSTROEM)
---------------------------------
  C      4.130460   -1.213660    1.264210
  C      4.159940   -0.366400    0.000080
  C      5.372450    0.551240    0.000260
  C      4.130880   -1.213710   -1.264030
  O      3.044840    0.575060   -0.000130
  C      1.781710    0.134860   -0.000320
  O      1.428970   -1.017230   -0.000180
  N      0.943530    1.220260   -0.000190
  C     -0.447670    1.234570   -0.000090
  C     -1.229900    0.075830   -0.000090
  C     -2.597710    0.256730    0.000010
  Br    -3.727530   -1.258020    0.000030
  C     -3.157350    1.524900    0.000110
  C     -2.276240    2.592640    0.000090
  N     -0.955560    2.463420   -0.000000
  H      5.049550   -1.798440    1.320470
  H      3.281720   -1.892780    1.267300
  H      4.080070   -0.571310    2.144550
  H      6.285380   -0.044120    0.000420
  H      5.368500    1.186560   -0.885580
  H      5.368210    1.186590    0.886090
  H      5.050000   -1.798490   -1.319960
  H      3.282150   -1.892830   -1.267380
  H      4.080780   -0.571390   -2.144410
  H      1.369710    2.134740   -0.000170
  H     -0.777800   -0.901510   -0.000160
  H     -4.226220    1.674560    0.000180
  H     -2.654180    3.608840    0.000160

----------------------------
CARTESIAN COORDINATES (A.U.)
----------------------------
  NO LB      ZA    FRAG     MASS         X           Y           Z
   0 C     6.0000    0    12.011    7.805438   -2.293485    2.389011
   1 C     6.0000    0    12.011    7.861147   -0.692396    0.000151
   2 C     6.0000    0    12.011   10.152459    1.041693    0.000491
   3 C     6.0000    0    12.011    7.806232   -2.293580   -2.388671
   4 O     8.0000    0    15.999    5.753914    1.086706   -0.000246
   5 C     6.0000    0    12.011    3.366944    0.254848   -0.000605
   6 O     8.0000    0    15.999    2.700362   -1.922286   -0.000340
   7 N     7.0000    0    14.007    1.783013    2.305957   -0.000359
   8 C     6.0000    0    12.011   -0.845974    2.332999   -0.000170
   9 C     6.0000    0    12.011   -2.324174    0.143298   -0.000170
  10 C     6.0000    0    12.011   -4.908960    0.485149    0.000019
  11 Br   35.0000    0    79.900   -7.044011   -2.377313    0.000057
  12 C     6.0000    0    12.011   -5.966527    2.881643    0.000208
  13 C     6.0000    0    12.011   -4.301470    4.899380    0.000170
  14 N     7.0000    0    14.007   -1.805747    4.655189   -0.000000
  15 H     1.0000    0     1.008    9.542267   -3.398559    2.495327
  16 H     1.0000    0     1.008    6.201552   -3.576836    2.394850
  17 H     1.0000    0     1.008    7.710215   -1.079619    4.052612
  18 H     1.0000    0     1.008   11.877647   -0.083375    0.000794
  19 H     1.0000    0     1.008   10.144995    2.242273   -1.673504
  20 H     1.0000    0     1.008   10.144447    2.242330    1.674467
  21 H     1.0000    0     1.008    9.543117   -3.398654   -2.494363
  22 H     1.0000    0     1.008    6.202365   -3.576930   -2.395001
  23 H     1.0000    0     1.008    7.711557   -1.079771   -4.052348
  24 H     1.0000    0     1.008    2.588377    4.034074   -0.000321
  25 H     1.0000    0     1.008   -1.469829   -1.703607   -0.000302
  26 H     1.0000    0     1.008   -7.986398    3.164460    0.000340
  27 H     1.0000    0     1.008   -5.015673    6.819719    0.000302

--------------------------------
INTERNAL COORDINATES (ANGSTROEM)
--------------------------------
 C      0   0   0     0.000000000000     0.00000000     0.00000000
 C      1   0   0     1.522085160200     0.00000000     0.00000000
 C      2   1   0     1.520606360009   110.56462186     0.00000000
 C      2   1   3     1.522088306177   112.30391624   124.01453212
 O      2   1   3     1.459381713501   110.14618711   247.17671738
 C      5   2   1     1.337637272582   120.61275267   297.79332692
 O      6   5   2     1.204880448551   126.23663747     0.00000000
 N      6   5   2     1.371363879246   108.46303372   179.98679227
 C      8   6   5     1.391273598578   128.26577677   180.01135440
 C      9   8   6     1.398056565558   123.43275592     0.00000000
 C     10   9   8     1.379720629729   116.48814242   180.00029501
 Br    11  10   9     1.889698599063   119.18453711   180.00044457
 C     11  10   9     1.386164524326   121.34568056     0.00000000
 C     13  11  10     1.384349500704   116.65846279     0.00000000
 N     14  13  11     1.326986615946   123.94156439     0.00000000
 H      1   2   3     1.090806703362   108.96149388   301.48680504
 H      1   2   3     1.087001890569   111.42329082   181.38932350
 H      1   2   3     1.090940507177   110.08030044    60.03682434
 H      3   2   1     1.089905840016   109.77113182    62.50400327
 H      3   2   1     1.090119080881   110.40879594   182.38971645
 H      3   2   1     1.090129528542   110.40839992   302.61882385
 H      4   2   1     1.090815010760   108.96116109   294.49836060
 H      4   2   1     1.086994852702   111.42360572    54.59596829
 H      4   2   1     1.090941765999   110.08011058   175.94850392
 H      8   6   5     1.008911821320   117.33636897     0.00000000
 H     10   9   8     1.076841627399   121.15349870     0.00000000
 H     13  11  10     1.079296621601   121.78230584   179.99946573
 H     14  13  11     1.084205279686   120.06927959   179.99971308

---------------------------
INTERNAL COORDINATES (A.U.)
---------------------------
 C      0   0   0     0.000000000000     0.00000000     0.00000000
 C      1   0   0     2.876324105283     0.00000000     0.00000000
 C      2   1   0     2.873529577916   110.56462186     0.00000000
 C      2   1   3     2.876330050318   112.30391624   124.01453212
 O      2   1   3     2.757831763369   110.14618711   247.17671738
 C      5   2   1     2.527768111705   120.61275267   297.79332692
 O      6   5   2     2.276894071877   126.23663747     0.00000000
 N      6   5   2     2.591502161726   108.46303372   179.98679227
 C      8   6   5     2.629126078667   128.26577677   180.01135440
 C      9   8   6     2.641944028635   123.43275592     0.00000000
 C     10   9   8     2.607294131509   116.48814242   180.00029501
 Br    11  10   9     3.571012827883   119.18453711   180.00044457
 C     11  10   9     2.619471327533   121.34568056     0.00000000
 C     13  11  10     2.616041429962   116.65846279     0.00000000
 N     14  13  11     2.507641287517   123.94156439     0.00000000
 H      1   2   3     2.061325934400   108.96149388   301.48680504
 H      1   2   3     2.054135880230   111.42329082   181.38932350
 H      1   2   3     2.061578786966   110.08030044    60.03682434
 H      3   2   1     2.059623549391   109.77113182    62.50400327
 H      3   2   1     2.060026516226   110.40879594   182.38971645
 H      3   2   1     2.060046259446   110.40839992   302.61882385
 H      4   2   1     2.061341633107   108.96116109   294.49836060
 H      4   2   1     2.054122580588   111.42360572    54.59596829
 H      4   2   1     2.061581165794   110.08011058   175.94850392
 H      8   6   5     1.906567035571   117.33636897     0.00000000
 H     10   9   8     2.034935765391   121.15349870     0.00000000
 H     13  11  10     2.039575032093   121.78230584   179.99946573
 H     14  13  11     2.048851051559   120.06927959   179.99971308

---------------------
BASIS SET INFORMATION
---------------------
There are 5 groups of distinct atoms

 Group   1 Type C   : 11s6p2d1f contracted to 5s3p2d1f pattern {62111/411/11/1}
 Group   2 Type O   : 11s6p2d1f contracted to 5s3p2d1f pattern {62111/411/11/1}
 Group   3 Type N   : 11s6p2d1f contracted to 5s3p2d1f pattern {62111/411/11/1}
 Group   4 Type Br  : 17s13p8d1f contracted to 6s5p4d1f pattern {842111/64111/5111/1}
 Group   5 Type H   : 5s1p contracted to 3s1p pattern {311/1}

Atom   0C    basis set group =>   1
Atom   1C    basis set group =>   1
Atom   2C    basis set group =>   1
Atom   3C    basis set group =>   1
Atom   4O    basis set group =>   2
Atom   5C    basis set group =>   1
Atom   6O    basis set group =>   2
Atom   7N    basis set group =>   3
Atom   8C    basis set group =>   1
Atom   9C    basis set group =>   1
Atom  10C    basis set group =>   1
Atom  11Br   basis set group =>   4
Atom  12C    basis set group =>   1
Atom  13C    basis set group =>   1
Atom  14N    basis set group =>   3
Atom  15H    basis set group =>   5
Atom  16H    basis set group =>   5
Atom  17H    basis set group =>   5
Atom  18H    basis set group =>   5
Atom  19H    basis set group =>   5
Atom  20H    basis set group =>   5
Atom  21H    basis set group =>   5
Atom  22H    basis set group =>   5
Atom  23H    basis set group =>   5
Atom  24H    basis set group =>   5
Atom  25H    basis set group =>   5
Atom  26H    basis set group =>   5
Atom  27H    basis set group =>   5
---------------------------------
AUXILIARY/J BASIS SET INFORMATION
---------------------------------
There are 5 groups of distinct atoms

 Group   1 Type C   : 12s5p4d2f1g contracted to 6s4p3d1f1g pattern {711111/2111/211/2/1}
 Group   2 Type O   : 12s5p4d2f1g contracted to 6s4p3d1f1g pattern {711111/2111/211/2/1}
 Group   3 Type N   : 12s5p4d2f1g contracted to 6s4p3d1f1g pattern {711111/2111/211/2/1}
 Group   4 Type Br  : 19s5p5d3f1g contracted to 8s4p3d2f1g pattern {121111111/2111/311/21/1}
 Group   5 Type H   : 5s2p1d contracted to 3s1p1d pattern {311/2/1}

Atom   0C    basis set group =>   1
Atom   1C    basis set group =>   1
Atom   2C    basis set group =>   1
Atom   3C    basis set group =>   1
Atom   4O    basis set group =>   2
Atom   5C    basis set group =>   1
Atom   6O    basis set group =>   2
Atom   7N    basis set group =>   3
Atom   8C    basis set group =>   1
Atom   9C    basis set group =>   1
Atom  10C    basis set group =>   1
Atom  11Br   basis set group =>   4
Atom  12C    basis set group =>   1
Atom  13C    basis set group =>   1
Atom  14N    basis set group =>   3
Atom  15H    basis set group =>   5
Atom  16H    basis set group =>   5
Atom  17H    basis set group =>   5
Atom  18H    basis set group =>   5
Atom  19H    basis set group =>   5
Atom  20H    basis set group =>   5
Atom  21H    basis set group =>   5
Atom  22H    basis set group =>   5
Atom  23H    basis set group =>   5
Atom  24H    basis set group =>   5
Atom  25H    basis set group =>   5
Atom  26H    basis set group =>   5
Atom  27H    basis set group =>   5


           ************************************************************
           *        Program running with 16 parallel MPI-processes    *
           *              working on a common directory               *
           ************************************************************
------------------------------------------------------------------------------
                           ORCA GTO INTEGRAL CALCULATION
                           -- RI-GTO INTEGRALS CHOSEN --
------------------------------------------------------------------------------
------------------------------------------------------------------------------
                   ___                                                        
                  /   \      - P O W E R E D   B Y -                         
                 /     \                                                     
                 |  |  |   _    _      __       _____    __    __             
                 |  |  |  | |  | |    /  \     |  _  \  |  |  /  |          
                  \  \/   | |  | |   /    \    | | | |  |  | /  /          
                 / \  \   | |__| |  /  /\  \   | |_| |  |  |/  /          
                |  |  |   |  __  | /  /__\  \  |    /   |      \           
                |  |  |   | |  | | |   __   |  |    \   |  |\   \          
                \     /   | |  | | |  |  |  |  | |\  \  |  | \   \       
                 \___/    |_|  |_| |__|  |__|  |_| \__\ |__|  \__/        
                                                                              
                      - O R C A' S   B I G   F R I E N D -                    
                                      &                                       
                       - I N T E G R A L  F E E D E R -                       
                                                                              
 v1 FN, 2020, v2 2021                                                         
------------------------------------------------------------------------------


Reading SHARK input file arbr_25_r2scan3c_nmr.SHARKINP.tmp ... ok
----------------------
SHARK INTEGRAL PACKAGE
----------------------

Number of atoms                             ...     28
Number of basis functions                   ...    560
Number of shells                            ...    222
Maximum angular momentum                    ...      3
Integral batch strategy                     ... SHARK/LIBINT Hybrid
RI-J (if used) integral strategy            ... SPLIT-RIJ (Revised 2003 algorithm where possible)
Printlevel                                  ...      1
Contraction scheme used                     ... SEGMENTED contraction
Coulomb Range Separation                    ... NOT USED
Exchange Range Separation                   ... NOT USED
Finite Nucleus Model                        ... NOT USED
Auxiliary Coulomb fitting basis             ... AVAILABLE
   # of basis functions in Aux-J            ...    887
   # of shells in Aux-J                     ...    293
   Maximum angular momentum in Aux-J        ...      4
Auxiliary J/K fitting basis                 ... NOT available
Auxiliary Correlation fitting basis         ... NOT available
Auxiliary 'external' fitting basis          ... NOT available
Integral threshold                          ...     1.000000e-10
Primitive cut-off                           ...     1.000000e-11
Primitive pair pre-selection threshold      ...     1.000000e-11

Calculating pre-screening integrals         ... done (  0.1 sec) Dimension = 222
Organizing shell pair data                  ... done (  0.3 sec)
Shell pair information
Total number of shell pairs                 ...     24753
Shell pairs after pre-screening             ...     17813
Total number of primitive shell pairs       ...     79416
Primitive shell pairs kept                  ...     38543
          la=0 lb=0:   4651 shell pairs
          la=1 lb=0:   5165 shell pairs
          la=1 lb=1:   1444 shell pairs
          la=2 lb=0:   2536 shell pairs
          la=2 lb=1:   1420 shell pairs
          la=2 lb=2:    377 shell pairs
          la=3 lb=0:   1171 shell pairs
          la=3 lb=1:    649 shell pairs
          la=3 lb=2:    319 shell pairs
          la=3 lb=3:     81 shell pairs

Calculating one electron integrals          ... done (  0.0 sec)
Calculating RI/J V-Matrix + Cholesky decomp.... done (  0.1 sec)
Calculating Nuclear repulsion               ... done (  0.0 sec) ENN=   1280.317545123008 Eh

SHARK setup successfully completed in   0.9 seconds

Maximum memory used throughout the entire GTOINT-calculation: 33.7 MB


           ************************************************************
           *        Program running with 16 parallel MPI-processes    *
           *              working on a common directory               *
           ************************************************************
-------------------------------------------------------------------------------
                                 ORCA SCF
-------------------------------------------------------------------------------

------------
SCF SETTINGS
------------
Hamiltonian:
 Density Functional     Method          .... DFT(GTOs)
 Exchange Functional    Exchange        .... B88
   X-Alpha parameter    XAlpha          ....  0.666667
   Becke's b parameter  XBeta           ....  0.004200
 Correlation Functional Correlation     .... LYP
 LDA part of GGA corr.  LDAOpt          .... VWN-5
 Gradients option       PostSCFGGA      .... off
 Hybrid DFT is turned on
   Fraction HF Exchange ScalHFX         ....  0.200000
   Scaling of DF-GGA-X  ScalDFX         ....  0.720000
   Scaling of DF-GGA-C  ScalDFC         ....  0.810000
   Scaling of DF-LDA-C  ScalLDAC        ....  1.000000
   Perturbative correction              ....  0.000000
   Density functional embedding theory  .... OFF
   NL short-range parameter             ....  4.800000
 RI-approximation to the Coulomb term is turned on
   Number of AuxJ basis functions       .... 887
   RIJ-COSX (HFX calculated with COS-X)).... on


General Settings:
 Integral files         IntName         .... arbr_25_r2scan3c_nmr
 Hartree-Fock type      HFTyp           .... RHF
 Total Charge           Charge          ....    0
 Multiplicity           Mult            ....    1
 Number of Electrons    NEL             ....  138
 Basis Dimension        Dim             ....  560
 Nuclear Repulsion      ENuc            ....   1280.3175451230 Eh

Convergence Acceleration:
 DIIS                   CNVDIIS         .... on
   Start iteration      DIISMaxIt       ....    12
   Startup error        DIISStart       ....  0.200000
   # of expansion vecs  DIISMaxEq       ....     5
   Bias factor          DIISBfac        ....   1.050
   Max. coefficient     DIISMaxC        ....  10.000
 Trust-Rad. Augm. Hess. CNVTRAH         .... auto
   Auto Start mean grad. ratio tolernc. ....  1.125000
   Auto Start start iteration           ....    20
   Auto Start num. interpolation iter.  ....    10
   Max. Number of Micro iterations      ....    16
   Max. Number of Macro iterations      .... Maxiter - #DIIS iter
   Number of Davidson start vectors     ....     2
   Converg. threshold I  (grad. norm)   ....   5.000e-05
   Converg. threshold II (energy diff.) ....   1.000e-06
   Grad. Scal. Fac. for Micro threshold ....   0.100
   Minimum threshold for Micro iter.    ....   0.010
   NR start threshold (gradient norm)   ....   0.001
   Initial trust radius                 ....   0.400
   Minimum AH scaling param. (alpha)    ....   1.000
   Maximum AH scaling param. (alpha)    .... 1000.000
   Orbital update algorithm             .... Taylor
   White noise on init. David. guess    .... on
   Maximum white noise                  ....   0.010
   Quad. conv. algorithm                .... NR
 SOSCF                  CNVSOSCF        .... on
   Start iteration      SOSCFMaxIt      ....   150
   Startup grad/error   SOSCFStart      ....  0.003300
 Level Shifting         CNVShift        .... on
   Level shift para.    LevelShift      ....    0.2500
   Turn off err/grad.   ShiftErr        ....    0.0010
 Zerner damping         CNVZerner       .... off
 Static damping         CNVDamp         .... on
   Fraction old density DampFac         ....    0.7000
   Max. Damping (<1)    DampMax         ....    0.9800
   Min. Damping (>=0)   DampMin         ....    0.0000
   Turn off err/grad.   DampErr         ....    0.1000
 Fernandez-Rico         CNVRico         .... off

SCF Procedure:
 Maximum # iterations   MaxIter         ....   125
 SCF integral mode      SCFMode         .... Direct
   Integral package                     .... SHARK and LIBINT hybrid scheme
 Reset frequency        DirectResetFreq ....    20
 Integral Threshold     Thresh          ....  1.000e-10 Eh
 Primitive CutOff       TCut            ....  1.000e-11 Eh

Convergence Tolerance:
 Convergence Check Mode ConvCheckMode   .... Total+1el-Energy
 Convergence forced     ConvForced      .... 0
 Energy Change          TolE            ....  1.000e-06 Eh
 1-El. energy change                    ....  1.000e-03 Eh
 Orbital Gradient       TolG            ....  5.000e-05
 Orbital Rotation angle TolX            ....  5.000e-05
 DIIS Error             TolErr          ....  1.000e-06


Diagonalization of the overlap matrix:
Smallest eigenvalue                        ... 2.630e-05
Time for diagonalization                   ...    0.076 sec
Threshold for overlap eigenvalues          ... 1.000e-08
Number of eigenvalues below threshold      ... 0
Time for construction of square roots      ...    0.040 sec
Total time needed                          ...    0.119 sec

Time for model grid setup =    0.272 sec

------------------------------
INITIAL GUESS: MODEL POTENTIAL
------------------------------
Loading Hartree-Fock densities                     ... done
Calculating cut-offs                               ... done
Initializing the effective Hamiltonian             ... done
Setting up the integral package (SHARK)            ... done
Starting the Coulomb interaction                   ... done (   0.3 sec)
Reading the grid                                   ... done
Mapping shells                                     ... done
Starting the XC term evaluation                    ... done (   0.2 sec)
  promolecular density results
     # of electrons  =    137.992976113
     EX              =   -174.618761947
     EC              =     -5.217201255
     EX+EC           =   -179.835963202
Transforming the Hamiltonian                       ... done (   0.0 sec)
Diagonalizing the Hamiltonian                      ... done (   0.1 sec)
Back transforming the eigenvectors                 ... done (   0.0 sec)
Now organizing SCF variables                       ... done
                      ------------------
                      INITIAL GUESS DONE (   0.9 sec)
                      ------------------
-------------------
DFT GRID GENERATION
-------------------

General Integration Accuracy     IntAcc      ... 4.388
Radial Grid Type                 RadialGrid  ... OptM3 with GC (2021)
Angular Grid (max. ang.)         AngularGrid ... 4 (Lebedev-302)
Angular grid pruning method      GridPruning ... 4 (adaptive)
Weight generation scheme         WeightScheme... Becke
Basis function cutoff            BFCut       ... 1.0000e-10
Integration weight cutoff        WCut        ... 1.0000e-14
Angular grids for H and He will be reduced by one unit
Partially contracted basis set               ... off
Rotationally invariant grid construction     ... off

Total number of grid points                  ...   136826
Total number of batches                      ...     2153
Average number of points per batch           ...       63
Average number of grid points per atom       ...     4887
Time for grid setup =    1.181 sec

--------------------
COSX GRID GENERATION
--------------------

GRIDX 1
-------
General Integration Accuracy     IntAcc      ... 3.816
Radial Grid Type                 RadialGrid  ... OptM3 with GC (2021)
Angular Grid (max. ang.)         AngularGrid ... 1 (Lebedev-50)
Angular grid pruning method      GridPruning ... 4 (adaptive)
Weight generation scheme         WeightScheme... Becke
Basis function cutoff            BFCut       ... 1.0000e-10
Integration weight cutoff        WCut        ... 1.0000e-14
Angular grids for H and He will be reduced by one unit
Partially contracted basis set               ... on
Rotationally invariant grid construction     ... off

Total number of grid points                  ...    17242
Total number of batches                      ...      286
Average number of points per batch           ...       60
Average number of grid points per atom       ...      616
UseSFitting                                  ... on

GRIDX 2
-------
General Integration Accuracy     IntAcc      ... 4.020
Radial Grid Type                 RadialGrid  ... OptM3 with GC (2021)
Angular Grid (max. ang.)         AngularGrid ... 2 (Lebedev-110)
Angular grid pruning method      GridPruning ... 4 (adaptive)
Weight generation scheme         WeightScheme... Becke
Basis function cutoff            BFCut       ... 1.0000e-10
Integration weight cutoff        WCut        ... 1.0000e-14
Angular grids for H and He will be reduced by one unit
Partially contracted basis set               ... on
Rotationally invariant grid construction     ... off

Total number of grid points                  ...    37246
Total number of batches                      ...      596
Average number of points per batch           ...       62
Average number of grid points per atom       ...     1330
UseSFitting                                  ... on

GRIDX 3
-------
General Integration Accuracy     IntAcc      ... 4.338
Radial Grid Type                 RadialGrid  ... OptM3 with GC (2021)
Angular Grid (max. ang.)         AngularGrid ... 3 (Lebedev-194)
Angular grid pruning method      GridPruning ... 4 (adaptive)
Weight generation scheme         WeightScheme... Becke
Basis function cutoff            BFCut       ... 1.0000e-10
Integration weight cutoff        WCut        ... 1.0000e-14
Angular grids for H and He will be reduced by one unit
Partially contracted basis set               ... on
Rotationally invariant grid construction     ... off

Total number of grid points                  ...    81811
Total number of batches                      ...     1294
Average number of points per batch           ...       63
Average number of grid points per atom       ...     2922
UseSFitting                                  ... on

Time for X-Grid setup             =    1.125 sec

--------------
SCF ITERATIONS
--------------
ITER       Energy         Delta-E        Max-DP      RMS-DP      [F,P]     Damp
               ***  Starting incremental Fock matrix formation  ***
  0  -3222.2922835176   0.000000000000 0.06217329  0.00083893  0.3111170 0.7000
  1  -3222.5342470389  -0.241963521305 0.06307856  0.00062676  0.1220699 0.7000
                               ***Turning on DIIS***
  2  -3222.6256173255  -0.091370286599 0.07838803  0.00096310  0.0442442 0.0000
  3  -3222.7638742864  -0.138256960936 0.06126357  0.00050409  0.0551780 0.0000
  4  -3222.7995008047  -0.035626518241 0.01903166  0.00017748  0.0154053 0.0000
  5  -3222.8014606532  -0.001959848557 0.00650113  0.00007074  0.0108802 0.0000
                      *** Initiating the SOSCF procedure ***
                           *** Shutting down DIIS ***
                      *** Re-Reading the Fockian *** 
                      *** Removing any level shift *** 
ITER      Energy       Delta-E        Grad      Rot      Max-DP    RMS-DP
  6  -3222.80170264  -0.0002419880  0.000344  0.000344  0.002691  0.000028
               *** Restarting incremental Fock matrix formation ***
  7  -3222.80173037  -0.0000277249  0.000234  0.000658  0.001498  0.000020
  8  -3222.80172632   0.0000040440  0.000530  0.000541  0.000906  0.000008
  9  -3222.80173380  -0.0000074730  0.000059  0.000170  0.000270  0.000003
 10  -3222.80173361   0.0000001859  0.000101  0.000104  0.000133  0.000001
 11  -3222.80173396  -0.0000003550  0.000014  0.000034  0.000085  0.000001
 12  -3222.80173394   0.0000000196  0.000019  0.000024  0.000150  0.000001
                 **** Energy Check signals convergence ****
              ***Rediagonalizing the Fockian in SOSCF/NRSCF***

               *****************************************************
               *                     SUCCESS                       *
               *           SCF CONVERGED AFTER  13 CYCLES          *
               *****************************************************

Old exchange energy                            =    -35.172556211 Eh
New exchange energy                            =    -35.172551777 Eh
Exchange energy change after final integration =      0.000004433 Eh
Total energy after final integration           =  -3222.801729494 Eh
Final COS-X integration done in                =    10.139 sec

----------------
TOTAL SCF ENERGY
----------------

Total Energy       :        -3222.80172949 Eh          -87696.89348 eV

Components:
Nuclear Repulsion  :         1280.31754512 Eh           34839.21159 eV
Electronic Energy  :        -4503.11927462 Eh         -122536.10508 eV
One Electron Energy:        -7009.09423325 Eh         -190727.15047 eV
Two Electron Energy:         2505.97495863 Eh           68191.04539 eV
Max COSX asymmetry :            0.00000675 Eh               0.00018 eV

Virial components:
Potential Energy   :        -6439.33484745 Eh         -175223.20937 eV
Kinetic Energy     :         3216.53311796 Eh           87526.31589 eV
Virial Ratio       :            2.00194887


DFT components:
N(Alpha)           :       69.000056521083 electrons
N(Beta)            :       69.000056521083 electrons
N(Total)           :      138.000113042166 electrons
E(X)               :     -139.910017017295 Eh       
E(C)               :       -6.123924774363 Eh       
E(XC)              :     -146.033941791658 Eh       
DFET-embed. en.    :        0.000000000000 Eh       

---------------
SCF CONVERGENCE
---------------

  Last Energy change         ...    1.6962e-08  Tolerance :   1.0000e-06
  Last MAX-Density change    ...    4.4409e-15  Tolerance :   1.0000e-05
  Last RMS-Density change    ...    2.0748e-17  Tolerance :   1.0000e-06
  Last Orbital Gradient      ...    3.3097e-06  Tolerance :   5.0000e-05
  Last Orbital Rotation      ...    1.1455e-05  Tolerance :   5.0000e-05

             **** THE GBW FILE WAS UPDATED (arbr_25_r2scan3c_nmr.gbw) ****
             **** DENSITY arbr_25_r2scan3c_nmr.scfp WAS UPDATED ****
             **** ENERGY FILE WAS UPDATED (arbr_25_r2scan3c_nmr.en.tmp) ****
             **** THE GBW FILE WAS UPDATED (arbr_25_r2scan3c_nmr.gbw) ****
             **** DENSITY arbr_25_r2scan3c_nmr.scfp WAS UPDATED ****
----------------
ORBITAL ENERGIES
----------------

  NO   OCC          E(Eh)            E(eV) 
   0   2.0000    -482.862545    -13139.3578 
   1   2.0000     -62.510087     -1700.9859 
   2   2.0000     -56.325513     -1532.6951 
   3   2.0000     -56.323112     -1532.6298 
   4   2.0000     -56.323100     -1532.6295 
   5   2.0000     -19.169903      -521.6396 
   6   2.0000     -19.107492      -519.9413 
   7   2.0000     -14.361531      -390.7971 
   8   2.0000     -14.318826      -389.6351 
   9   2.0000     -10.330145      -281.0975 
  10   2.0000     -10.263435      -279.2823 
  11   2.0000     -10.246986      -278.8347 
  12   2.0000     -10.245821      -278.8030 
  13   2.0000     -10.218512      -278.0598 
  14   2.0000     -10.187223      -277.2084 
  15   2.0000     -10.187000      -277.2024 
  16   2.0000     -10.167372      -276.6683 
  17   2.0000     -10.161773      -276.5159 
  18   2.0000     -10.161768      -276.5158 
  19   2.0000      -8.701139      -236.7700 
  20   2.0000      -6.530529      -177.7047 
  21   2.0000      -6.519917      -177.4160 
  22   2.0000      -6.519283      -177.3987 
  23   2.0000      -2.645243       -71.9807 
  24   2.0000      -2.642272       -71.8999 
  25   2.0000      -2.641808       -71.8872 
  26   2.0000      -2.633047       -71.6489 
  27   2.0000      -2.633034       -71.6485 
  28   2.0000      -1.120731       -30.4966 
  29   2.0000      -1.030997       -28.0549 
  30   2.0000      -0.990113       -26.9424 
  31   2.0000      -0.928206       -25.2578 
  32   2.0000      -0.852301       -23.1923 
  33   2.0000      -0.822988       -22.3946 
  34   2.0000      -0.771429       -20.9916 
  35   2.0000      -0.766745       -20.8642 
  36   2.0000      -0.702767       -19.1233 
  37   2.0000      -0.700788       -19.0694 
  38   2.0000      -0.683502       -18.5990 
  39   2.0000      -0.643717       -17.5164 
  40   2.0000      -0.612509       -16.6672 
  41   2.0000      -0.582454       -15.8494 
  42   2.0000      -0.535302       -14.5663 
  43   2.0000      -0.520295       -14.1580 
  44   2.0000      -0.507831       -13.8188 
  45   2.0000      -0.496981       -13.5235 
  46   2.0000      -0.491629       -13.3779 
  47   2.0000      -0.472102       -12.8465 
  48   2.0000      -0.456885       -12.4325 
  49   2.0000      -0.454924       -12.3791 
  50   2.0000      -0.450142       -12.2490 
  51   2.0000      -0.429870       -11.6974 
  52   2.0000      -0.422752       -11.5037 
  53   2.0000      -0.403724       -10.9859 
  54   2.0000      -0.399190       -10.8625 
  55   2.0000      -0.395773       -10.7695 
  56   2.0000      -0.395763       -10.7693 
  57   2.0000      -0.375689       -10.2230 
  58   2.0000      -0.368958       -10.0399 
  59   2.0000      -0.364130        -9.9085 
  60   2.0000      -0.352039        -9.5795 
  61   2.0000      -0.346022        -9.4157 
  62   2.0000      -0.321395        -8.7456 
  63   2.0000      -0.309867        -8.4319 
  64   2.0000      -0.296503        -8.0683 
  65   2.0000      -0.287138        -7.8134 
  66   2.0000      -0.280949        -7.6450 
  67   2.0000      -0.269588        -7.3359 
  68   2.0000      -0.245560        -6.6820 
  69   0.0000      -0.040475        -1.1014 
  70   0.0000      -0.027704        -0.7539 
  71   0.0000      -0.004326        -0.1177 
  72   0.0000       0.025997         0.7074 
  73   0.0000       0.046079         1.2539 
  74   0.0000       0.057225         1.5572 
  75   0.0000       0.067497         1.8367 
  76   0.0000       0.074419         2.0251 
  77   0.0000       0.081139         2.2079 
  78   0.0000       0.082595         2.2475 
  79   0.0000       0.090321         2.4578 
  80   0.0000       0.099004         2.6940 
  81   0.0000       0.099210         2.6996 
  82   0.0000       0.109000         2.9660 
  83   0.0000       0.118668         3.2291 
  84   0.0000       0.122982         3.3465 
  85   0.0000       0.127514         3.4698 
  86   0.0000       0.130069         3.5394 
  87   0.0000       0.143955         3.9172 
  88   0.0000       0.144010         3.9187 
  89   0.0000       0.149786         4.0759 
  90   0.0000       0.156921         4.2700 
  91   0.0000       0.168070         4.5734 
  92   0.0000       0.169219         4.6047 
  93   0.0000       0.170556         4.6411 
  94   0.0000       0.174694         4.7537 
  95   0.0000       0.188695         5.1346 
  96   0.0000       0.193308         5.2602 
  97   0.0000       0.205049         5.5797 
  98   0.0000       0.207844         5.6557 
  99   0.0000       0.208413         5.6712 
 100   0.0000       0.230358         6.2684 
 101   0.0000       0.234021         6.3680 
 102   0.0000       0.236552         6.4369 
 103   0.0000       0.243205         6.6179 
 104   0.0000       0.244368         6.6496 
 105   0.0000       0.257855         7.0166 
 106   0.0000       0.263551         7.1716 
 107   0.0000       0.268421         7.3041 
 108   0.0000       0.272199         7.4069 
 109   0.0000       0.274558         7.4711 
 110   0.0000       0.278604         7.5812 
 111   0.0000       0.283905         7.7255 
 112   0.0000       0.297484         8.0949 
 113   0.0000       0.304437         8.2841 
 114   0.0000       0.311738         8.4828 
 115   0.0000       0.314885         8.5685 
 116   0.0000       0.322775         8.7832 
 117   0.0000       0.335800         9.1376 
 118   0.0000       0.335888         9.1400 
 119   0.0000       0.342406         9.3173 
 120   0.0000       0.348615         9.4863 
 121   0.0000       0.357133         9.7181 
 122   0.0000       0.359575         9.7845 
 123   0.0000       0.365552         9.9472 
 124   0.0000       0.368088        10.0162 
 125   0.0000       0.368701        10.0329 
 126   0.0000       0.377412        10.2699 
 127   0.0000       0.397283        10.8106 
 128   0.0000       0.402661        10.9570 
 129   0.0000       0.407267        11.0823 
 130   0.0000       0.409689        11.1482 
 131   0.0000       0.428475        11.6594 
 132   0.0000       0.431078        11.7302 
 133   0.0000       0.438152        11.9227 
 134   0.0000       0.440988        11.9999 
 135   0.0000       0.449862        12.2414 
 136   0.0000       0.450999        12.2723 
 137   0.0000       0.458108        12.4657 
 138   0.0000       0.460049        12.5186 
 139   0.0000       0.464779        12.6473 
 140   0.0000       0.467150        12.7118 
 141   0.0000       0.471237        12.8230 
 142   0.0000       0.475694        12.9443 
 143   0.0000       0.483004        13.1432 
 144   0.0000       0.485792        13.2191 
 145   0.0000       0.491563        13.3761 
 146   0.0000       0.493603        13.4316 
 147   0.0000       0.508557        13.8385 
 148   0.0000       0.517622        14.0852 
 149   0.0000       0.525192        14.2912 
 150   0.0000       0.529869        14.4185 
 151   0.0000       0.535932        14.5834 
 152   0.0000       0.557217        15.1626 
 153   0.0000       0.559324        15.2200 
 154   0.0000       0.571574        15.5533 
 155   0.0000       0.582532        15.8515 
 156   0.0000       0.582981        15.8637 
 157   0.0000       0.595642        16.2082 
 158   0.0000       0.599210        16.3053 
 159   0.0000       0.605564        16.4782 
 160   0.0000       0.628155        17.0930 
 161   0.0000       0.628770        17.1097 
 162   0.0000       0.639239        17.3946 
 163   0.0000       0.646925        17.6037 
 164   0.0000       0.650602        17.7038 
 165   0.0000       0.670162        18.2360 
 166   0.0000       0.687303        18.7025 
 167   0.0000       0.688709        18.7407 
 168   0.0000       0.691253        18.8099 
 169   0.0000       0.697212        18.9721 
 170   0.0000       0.701353        19.0848 
 171   0.0000       0.723361        19.6837 
 172   0.0000       0.723427        19.6855 
 173   0.0000       0.744489        20.2586 
 174   0.0000       0.756660        20.5898 
 175   0.0000       0.762874        20.7589 
 176   0.0000       0.771832        21.0026 
 177   0.0000       0.786039        21.3892 
 178   0.0000       0.807012        21.9599 
 179   0.0000       0.816442        22.2165 
 180   0.0000       0.818507        22.2727 
 181   0.0000       0.822785        22.3891 
 182   0.0000       0.849867        23.1261 
 183   0.0000       0.863567        23.4989 
 184   0.0000       0.865839        23.5607 
 185   0.0000       0.868072        23.6214 
 186   0.0000       0.877523        23.8786 
 187   0.0000       0.887795        24.1581 
 188   0.0000       0.901558        24.5327 
 189   0.0000       0.908730        24.7278 
 190   0.0000       0.922935        25.1143 
 191   0.0000       0.927530        25.2394 
 192   0.0000       0.948579        25.8122 
 193   0.0000       0.960270        26.1303 
 194   0.0000       0.972332        26.4585 
 195   0.0000       0.982579        26.7373 
 196   0.0000       0.984900        26.8005 
 197   0.0000       1.001214        27.2444 
 198   0.0000       1.004283        27.3279 
 199   0.0000       1.015832        27.6422 
 200   0.0000       1.034151        28.1407 
 201   0.0000       1.059764        28.8376 
 202   0.0000       1.068916        29.0867 
 203   0.0000       1.086014        29.5519 
 204   0.0000       1.095463        29.8091 
 205   0.0000       1.098583        29.8940 
 206   0.0000       1.117025        30.3958 
 207   0.0000       1.122207        30.5368 
 208   0.0000       1.124757        30.6062 
 209   0.0000       1.143144        31.1065 
 210   0.0000       1.154018        31.4024 
 211   0.0000       1.174487        31.9594 
 212   0.0000       1.177202        32.0333 
 213   0.0000       1.194457        32.5028 
 214   0.0000       1.202225        32.7142 
 215   0.0000       1.206591        32.8330 
 216   0.0000       1.227539        33.4030 
 217   0.0000       1.243500        33.8374 
 218   0.0000       1.248379        33.9701 
 219   0.0000       1.263569        34.3835 
 220   0.0000       1.269611        34.5479 
 221   0.0000       1.279727        34.8231 
 222   0.0000       1.284643        34.9569 
 223   0.0000       1.301197        35.4074 
 224   0.0000       1.330822        36.2135 
 225   0.0000       1.337938        36.4071 
 226   0.0000       1.357005        36.9260 
 227   0.0000       1.361438        37.0466 
 228   0.0000       1.361731        37.0546 
 229   0.0000       1.376657        37.4607 
 230   0.0000       1.380423        37.5632 
 231   0.0000       1.417524        38.5728 
 232   0.0000       1.425235        38.7826 
 233   0.0000       1.438264        39.1372 
 234   0.0000       1.443395        39.2768 
 235   0.0000       1.455110        39.5956 
 236   0.0000       1.456913        39.6446 
 237   0.0000       1.463649        39.8279 
 238   0.0000       1.472513        40.0691 
 239   0.0000       1.475078        40.1389 
 240   0.0000       1.492926        40.6246 
 241   0.0000       1.501242        40.8509 
 242   0.0000       1.512051        41.1450 
 243   0.0000       1.523393        41.4536 
 244   0.0000       1.528751        41.5994 
 245   0.0000       1.530847        41.6565 
 246   0.0000       1.537831        41.8465 
 247   0.0000       1.551932        42.2302 
 248   0.0000       1.554368        42.2965 
 249   0.0000       1.558298        42.4034 
 250   0.0000       1.565152        42.5900 
 251   0.0000       1.573543        42.8183 
 252   0.0000       1.577169        42.9170 
 253   0.0000       1.580008        42.9942 
 254   0.0000       1.591122        43.2966 
 255   0.0000       1.600962        43.5644 
 256   0.0000       1.601865        43.5890 
 257   0.0000       1.611988        43.8644 
 258   0.0000       1.612663        43.8828 
 259   0.0000       1.626363        44.2556 
 260   0.0000       1.639622        44.6164 
 261   0.0000       1.641621        44.6708 
 262   0.0000       1.645917        44.7877 
 263   0.0000       1.666778        45.3553 
 264   0.0000       1.672622        45.5143 
 265   0.0000       1.690509        46.0011 
 266   0.0000       1.694741        46.1162 
 267   0.0000       1.705967        46.4217 
 268   0.0000       1.712475        46.5988 
 269   0.0000       1.722992        46.8850 
 270   0.0000       1.734312        47.1930 
 271   0.0000       1.738127        47.2968 
 272   0.0000       1.747969        47.5647 
 273   0.0000       1.771648        48.2090 
 274   0.0000       1.778644        48.3994 
 275   0.0000       1.790313        48.7169 
 276   0.0000       1.801844        49.0307 
 277   0.0000       1.813907        49.3589 
 278   0.0000       1.828960        49.7685 
 279   0.0000       1.837387        49.9978 
 280   0.0000       1.844069        50.1797 
 281   0.0000       1.855991        50.5041 
 282   0.0000       1.866598        50.7927 
 283   0.0000       1.895083        51.5678 
 284   0.0000       1.895363        51.5754 
 285   0.0000       1.911864        52.0245 
 286   0.0000       1.923596        52.3437 
 287   0.0000       1.935711        52.6734 
 288   0.0000       1.956121        53.2288 
 289   0.0000       1.973645        53.7056 
 290   0.0000       1.979467        53.8640 
 291   0.0000       1.990744        54.1709 
 292   0.0000       2.004589        54.5477 
 293   0.0000       2.031795        55.2879 
 294   0.0000       2.049548        55.7710 
 295   0.0000       2.050203        55.7889 
 296   0.0000       2.073929        56.4345 
 297   0.0000       2.089772        56.8656 
 298   0.0000       2.107685        57.3530 
 299   0.0000       2.120680        57.7066 
 300   0.0000       2.122604        57.7590 
 301   0.0000       2.149060        58.4789 
 302   0.0000       2.158343        58.7315 
 303   0.0000       2.163112        58.8613 
 304   0.0000       2.170065        59.0505 
 305   0.0000       2.178536        59.2810 
 306   0.0000       2.195247        59.7357 
 307   0.0000       2.217632        60.3448 
 308   0.0000       2.223752        60.5114 
 309   0.0000       2.252433        61.2918 
 310   0.0000       2.266645        61.6785 
 311   0.0000       2.268335        61.7245 
 312   0.0000       2.280231        62.0482 
 313   0.0000       2.289960        62.3130 
 314   0.0000       2.317474        63.0617 
 315   0.0000       2.321396        63.1684 
 316   0.0000       2.332210        63.4627 
 317   0.0000       2.340459        63.6871 
 318   0.0000       2.344555        63.7986 
 319   0.0000       2.349395        63.9303 
 320   0.0000       2.367762        64.4301 
 321   0.0000       2.388957        65.0068 
 322   0.0000       2.400109        65.3103 
 323   0.0000       2.410150        65.5835 
 324   0.0000       2.410484        65.5926 
 325   0.0000       2.417986        65.7967 
 326   0.0000       2.430489        66.1370 
 327   0.0000       2.443336        66.4865 
 328   0.0000       2.454088        66.7791 
 329   0.0000       2.466127        67.1067 
 330   0.0000       2.484451        67.6054 
 331   0.0000       2.494261        67.8723 
 332   0.0000       2.511201        68.3333 
 333   0.0000       2.537501        69.0489 
 334   0.0000       2.542493        69.1847 
 335   0.0000       2.547435        69.3192 
 336   0.0000       2.569265        69.9132 
 337   0.0000       2.580468        70.2181 
 338   0.0000       2.593316        70.5677 
 339   0.0000       2.598061        70.6968 
 340   0.0000       2.612004        71.0762 
 341   0.0000       2.616201        71.1905 
 342   0.0000       2.633570        71.6631 
 343   0.0000       2.653473        72.2047 
 344   0.0000       2.661395        72.4202 
 345   0.0000       2.670278        72.6620 
 346   0.0000       2.680794        72.9481 
 347   0.0000       2.688449        73.1564 
 348   0.0000       2.690479        73.2117 
 349   0.0000       2.718214        73.9664 
 350   0.0000       2.724480        74.1369 
 351   0.0000       2.740965        74.5854 
 352   0.0000       2.758967        75.0753 
 353   0.0000       2.763167        75.1896 
 354   0.0000       2.780164        75.6521 
 355   0.0000       2.781178        75.6797 
 356   0.0000       2.784317        75.7651 
 357   0.0000       2.805379        76.3382 
 358   0.0000       2.807491        76.3957 
 359   0.0000       2.815885        76.6241 
 360   0.0000       2.833087        77.0922 
 361   0.0000       2.847612        77.4875 
 362   0.0000       2.851088        77.5821 
 363   0.0000       2.871425        78.1355 
 364   0.0000       2.877671        78.3054 
 365   0.0000       2.887026        78.5600 
 366   0.0000       2.899352        78.8954 
 367   0.0000       2.905895        79.0734 
 368   0.0000       2.922340        79.5209 
 369   0.0000       2.935034        79.8663 
 370   0.0000       2.958172        80.4959 
 371   0.0000       2.967603        80.7526 
 372   0.0000       2.993524        81.4579 
 373   0.0000       3.011985        81.9603 
 374   0.0000       3.025779        82.3356 
 375   0.0000       3.030073        82.4525 
 376   0.0000       3.037877        82.6648 
 377   0.0000       3.050104        82.9975 
 378   0.0000       3.054926        83.1288 
 379   0.0000       3.074227        83.6540 
 380   0.0000       3.080295        83.8191 
 381   0.0000       3.092833        84.1603 
 382   0.0000       3.097758        84.2943 
 383   0.0000       3.098546        84.3157 
 384   0.0000       3.119475        84.8852 
 385   0.0000       3.120876        84.9233 
 386   0.0000       3.148025        85.6621 
 387   0.0000       3.159677        85.9792 
 388   0.0000       3.179218        86.5109 
 389   0.0000       3.180297        86.5403 
 390   0.0000       3.187496        86.7362 
 391   0.0000       3.190080        86.8065 
 392   0.0000       3.196001        86.9676 
 393   0.0000       3.206525        87.2540 
 394   0.0000       3.223627        87.7194 
 395   0.0000       3.225369        87.7668 
 396   0.0000       3.230850        87.9159 
 397   0.0000       3.239229        88.1439 
 398   0.0000       3.265321        88.8539 
 399   0.0000       3.279469        89.2389 
 400   0.0000       3.295313        89.6700 
 401   0.0000       3.301720        89.8444 
 402   0.0000       3.322878        90.4201 
 403   0.0000       3.325514        90.4918 
 404   0.0000       3.327626        90.5493 
 405   0.0000       3.334683        90.7413 
 406   0.0000       3.337098        90.8071 
 407   0.0000       3.342041        90.9416 
 408   0.0000       3.352796        91.2342 
 409   0.0000       3.354239        91.2735 
 410   0.0000       3.375327        91.8473 
 411   0.0000       3.377545        91.9077 
 412   0.0000       3.387343        92.1743 
 413   0.0000       3.387697        92.1839 
 414   0.0000       3.398664        92.4824 
 415   0.0000       3.403466        92.6130 
 416   0.0000       3.408479        92.7494 
 417   0.0000       3.425024        93.1996 
 418   0.0000       3.456371        94.0526 
 419   0.0000       3.467754        94.3624 
 420   0.0000       3.470112        94.4266 
 421   0.0000       3.487086        94.8884 
 422   0.0000       3.510738        95.5320 
 423   0.0000       3.512600        95.5827 
 424   0.0000       3.543972        96.4364 
 425   0.0000       3.554777        96.7304 
 426   0.0000       3.556566        96.7791 
 427   0.0000       3.562938        96.9525 
 428   0.0000       3.593215        97.7763 
 429   0.0000       3.611853        98.2835 
 430   0.0000       3.625936        98.6667 
 431   0.0000       3.657722        99.5317 
 432   0.0000       3.661576        99.6365 
 433   0.0000       3.670090        99.8682 
 434   0.0000       3.688562       100.3709 
 435   0.0000       3.713630       101.0530 
 436   0.0000       3.718526       101.1862 
 437   0.0000       3.722685       101.2994 
 438   0.0000       3.757846       102.2562 
 439   0.0000       3.758219       102.2663 
 440   0.0000       3.815198       103.8168 
 441   0.0000       3.843704       104.5925 
 442   0.0000       3.864084       105.1471 
 443   0.0000       3.886766       105.7643 
 444   0.0000       3.906281       106.2953 
 445   0.0000       3.938735       107.1784 
 446   0.0000       3.971000       108.0564 
 447   0.0000       3.995338       108.7187 
 448   0.0000       3.999274       108.8258 
 449   0.0000       4.005340       108.9909 
 450   0.0000       4.032924       109.7414 
 451   0.0000       4.035321       109.8067 
 452   0.0000       4.050275       110.2136 
 453   0.0000       4.051438       110.2452 
 454   0.0000       4.067218       110.6746 
 455   0.0000       4.072171       110.8094 
 456   0.0000       4.102494       111.6345 
 457   0.0000       4.106104       111.7328 
 458   0.0000       4.113654       111.9382 
 459   0.0000       4.132044       112.4386 
 460   0.0000       4.144931       112.7893 
 461   0.0000       4.152976       113.0082 
 462   0.0000       4.168427       113.4287 
 463   0.0000       4.170563       113.4868 
 464   0.0000       4.183509       113.8391 
 465   0.0000       4.240412       115.3875 
 466   0.0000       4.249443       115.6332 
 467   0.0000       4.255579       115.8002 
 468   0.0000       4.285592       116.6169 
 469   0.0000       4.313128       117.3662 
 470   0.0000       4.346970       118.2871 
 471   0.0000       4.360614       118.6583 
 472   0.0000       4.375928       119.0750 
 473   0.0000       4.381659       119.2310 
 474   0.0000       4.407002       119.9206 
 475   0.0000       4.416821       120.1878 
 476   0.0000       4.418305       120.2282 
 477   0.0000       4.425175       120.4151 
 478   0.0000       4.442048       120.8743 
 479   0.0000       4.455518       121.2408 
 480   0.0000       4.486887       122.0944 
 481   0.0000       4.491961       122.2325 
 482   0.0000       4.495050       122.3165 
 483   0.0000       4.529501       123.2540 
 484   0.0000       4.579090       124.6034 
 485   0.0000       4.619751       125.7098 
 486   0.0000       4.665081       126.9433 
 487   0.0000       4.672649       127.1492 
 488   0.0000       4.690636       127.6387 
 489   0.0000       4.710718       128.1851 
 490   0.0000       4.723624       128.5363 
 491   0.0000       4.759576       129.5146 
 492   0.0000       4.772603       129.8691 
 493   0.0000       4.867348       132.4473 
 494   0.0000       4.876102       132.6855 
 495   0.0000       4.880893       132.8159 
 496   0.0000       4.887503       132.9957 
 497   0.0000       4.902161       133.3946 
 498   0.0000       4.923544       133.9765 
 499   0.0000       4.940091       134.4267 
 500   0.0000       4.945832       134.5829 
 501   0.0000       5.011127       136.3597 
 502   0.0000       5.028703       136.8380 
 503   0.0000       5.051358       137.4544 
 504   0.0000       5.070850       137.9848 
 505   0.0000       5.120517       139.3363 
 506   0.0000       5.204916       141.6330 
 507   0.0000       5.216599       141.9509 
 508   0.0000       5.224367       142.1623 
 509   0.0000       5.269944       143.4025 
 510   0.0000       5.275700       143.5591 
 511   0.0000       5.299832       144.2158 
 512   0.0000       5.316847       144.6788 
 513   0.0000       5.329425       145.0210 
 514   0.0000       5.354009       145.6900 
 515   0.0000       5.373851       146.2299 
 516   0.0000       5.410491       147.2269 
 517   0.0000       5.464215       148.6888 
 518   0.0000       5.524559       150.3309 
 519   0.0000       5.527721       150.4169 
 520   0.0000       5.616333       152.8282 
 521   0.0000       5.690601       154.8491 
 522   0.0000       5.719765       155.6427 
 523   0.0000       5.728433       155.8786 
 524   0.0000       5.842650       158.9866 
 525   0.0000       5.885874       160.1628 
 526   0.0000       5.900053       160.5486 
 527   0.0000       6.009104       163.5160 
 528   0.0000       6.059816       164.8960 
 529   0.0000       6.147618       167.2852 
 530   0.0000       6.227915       169.4702 
 531   0.0000       6.279348       170.8697 
 532   0.0000       6.382702       173.6821 
 533   0.0000       6.442502       175.3094 
 534   0.0000       6.457413       175.7151 
 535   0.0000       6.585882       179.2110 
 536   0.0000       6.679346       181.7543 
 537   0.0000       6.735289       183.2765 
 538   0.0000       6.796636       184.9459 
 539   0.0000       6.961750       189.4389 
 540   0.0000       7.016102       190.9178 
 541   0.0000       7.106684       193.3827 
 542   0.0000       7.209639       196.1842 
 543   0.0000       7.461590       203.0402 
 544   0.0000       7.499158       204.0625 
 545   0.0000       7.759737       211.1532 
 546   0.0000      22.315405       607.2330 
 547   0.0000      22.378792       608.9579 
 548   0.0000      22.411112       609.8373 
 549   0.0000      22.432613       610.4224 
 550   0.0000      22.634001       615.9025 
 551   0.0000      22.659071       616.5847 
 552   0.0000      22.742155       618.8455 
 553   0.0000      22.928196       623.9079 
 554   0.0000      23.199249       631.2837 
 555   0.0000      23.599933       642.1868 
 556   0.0000      32.454633       883.1355 
 557   0.0000      32.715295       890.2284 
 558   0.0000      43.934326      1195.5138 
 559   0.0000      44.454244      1209.6615 

                    ********************************
                    * MULLIKEN POPULATION ANALYSIS *
                    ********************************

-----------------------
MULLIKEN ATOMIC CHARGES
-----------------------
   0 C :   -0.368827
   1 C :    0.236414
   2 C :   -0.312727
   3 C :   -0.368833
   4 O :   -0.316283
   5 C :    0.472208
   6 O :   -0.401794
   7 N :   -0.247750
   8 C :    0.259736
   9 C :   -0.255742
  10 C :    0.098714
  11 Br:   -0.058089
  12 C :   -0.142517
  13 C :   -0.052005
  14 N :   -0.261444
  15 H :    0.107177
  16 H :    0.152237
  17 H :    0.107437
  18 H :    0.103850
  19 H :    0.111654
  20 H :    0.111652
  21 H :    0.107175
  22 H :    0.152231
  23 H :    0.107444
  24 H :    0.226358
  25 H :    0.182193
  26 H :    0.129679
  27 H :    0.119853
Sum of atomic charges:   -0.0000000

--------------------------------
MULLIKEN REDUCED ORBITAL CHARGES
--------------------------------
  0 C s       :     3.307748  s :     3.307748
      pz      :     0.937274  p :     3.014968
      px      :     1.063206
      py      :     1.014489
      dz2     :     0.013976  d :     0.042516
      dxz     :     0.004958
      dyz     :     0.009138
      dx2y2   :     0.002581
      dxy     :     0.011864
      f0      :     0.000583  f :     0.003594
      f+1     :     0.000205
      f-1     :     0.001361
      f+2     :     0.000198
      f-2     :     0.000426
      f+3     :     0.000090
      f-3     :     0.000731
  1 C s       :     3.108010  s :     3.108010
      pz      :     0.905387  p :     2.424838
      px      :     0.736503
      py      :     0.782948
      dz2     :     0.043813  d :     0.215525
      dxz     :     0.038961
      dyz     :     0.047473
      dx2y2   :     0.035377
      dxy     :     0.049902
      f0      :     0.003038  f :     0.015213
      f+1     :     0.001386
      f-1     :     0.001795
      f+2     :     0.000663
      f-2     :     0.003304
      f+3     :     0.002892
      f-3     :     0.002135
  2 C s       :     3.288781  s :     3.288781
      pz      :     1.055054  p :     2.978240
      px      :     0.937479
      py      :     0.985707
      dz2     :     0.005444  d :     0.042012
      dxz     :     0.006053
      dyz     :     0.013990
      dx2y2   :     0.008844
      dxy     :     0.007682
      f0      :     0.000359  f :     0.003694
      f+1     :     0.000056
      f-1     :     0.001232
      f+2     :     0.000001
      f-2     :     0.000509
      f+3     :     0.000602
      f-3     :     0.000934
  3 C s       :     3.307737  s :     3.307737
      pz      :     0.937281  p :     3.014985
      px      :     1.063216
      py      :     1.014488
      dz2     :     0.013975  d :     0.042517
      dxz     :     0.004958
      dyz     :     0.009138
      dx2y2   :     0.002581
      dxy     :     0.011865
      f0      :     0.000583  f :     0.003594
      f+1     :     0.000205
      f-1     :     0.001362
      f+2     :     0.000198
      f-2     :     0.000426
      f+3     :     0.000090
      f-3     :     0.000731
  4 O s       :     3.777930  s :     3.777930
      pz      :     1.736705  p :     4.498169
      px      :     1.181346
      py      :     1.580118
      dz2     :     0.004481  d :     0.038074
      dxz     :     0.006655
      dyz     :     0.003525
      dx2y2   :     0.009566
      dxy     :     0.013846
      f0      :     0.000280  f :     0.002110
      f+1     :     0.000400
      f-1     :     0.000158
      f+2     :     0.000162
      f-2     :     0.000178
      f+3     :     0.000448
      f-3     :     0.000483
  5 C s       :     2.983254  s :     2.983254
      pz      :     0.794641  p :     2.216407
      px      :     0.695155
      py      :     0.726611
      dz2     :     0.007390  d :     0.298904
      dxz     :     0.049152
      dyz     :     0.071407
      dx2y2   :     0.070101
      dxy     :     0.100854
      f0      :     0.003388  f :     0.029227
      f+1     :     0.001420
      f-1     :     0.001735
      f+2     :     0.003413
      f-2     :     0.003593
      f+3     :     0.007382
      f-3     :     0.008296
  6 O s       :     3.851020  s :     3.851020
      pz      :     1.472506  p :     4.519795
      px      :     1.728400
      py      :     1.318890
      dz2     :     0.002470  d :     0.029177
      dxz     :     0.001116
      dyz     :     0.009920
      dx2y2   :     0.007841
      dxy     :     0.007831
      f0      :     0.000217  f :     0.001802
      f+1     :     0.000044
      f-1     :     0.000162
      f+2     :     0.000314
      f-2     :     0.000148
      f+3     :     0.000442
      f-3     :     0.000475
  7 N s       :     3.458391  s :     3.458391
      pz      :     1.611101  p :     3.730123
      px      :     1.051031
      py      :     1.067992
      dz2     :     0.005792  d :     0.054811
      dxz     :     0.012240
      dyz     :     0.004116
      dx2y2   :     0.015165
      dxy     :     0.017498
      f0      :     0.000803  f :     0.004425
      f+1     :     0.000672
      f-1     :     0.000618
      f+2     :     0.000294
      f-2     :     0.000215
      f+3     :     0.000902
      f-3     :     0.000921
  8 C s       :     3.024058  s :     3.024058
      pz      :     0.898869  p :     2.521065
      px      :     0.736995
      py      :     0.885201
      dz2     :     0.003666  d :     0.177712
      dxz     :     0.043473
      dyz     :     0.032131
      dx2y2   :     0.055516
      dxy     :     0.042926
      f0      :     0.002445  f :     0.017428
      f+1     :     0.001208
      f-1     :     0.001013
      f+2     :     0.002586
      f-2     :     0.001341
      f+3     :     0.002920
      f-3     :     0.005913
  9 C s       :     3.259019  s :     3.259019
      pz      :     1.007213  p :     2.906479
      px      :     0.890386
      py      :     1.008880
      dz2     :     0.006614  d :     0.082812
      dxz     :     0.017122
      dyz     :     0.007253
      dx2y2   :     0.027544
      dxy     :     0.024279
      f0      :     0.001558  f :     0.007432
      f+1     :     0.000585
      f-1     :     0.000670
      f+2     :     0.000672
      f-2     :     0.000555
      f+3     :     0.001360
      f-3     :     0.002032
 10 C s       :     3.242015  s :     3.242015
      pz      :     0.935495  p :     2.493453
      px      :     0.796827
      py      :     0.761131
      dz2     :     0.007308  d :     0.155958
      dxz     :     0.028916
      dyz     :     0.026582
      dx2y2   :     0.038749
      dxy     :     0.054404
      f0      :     0.001880  f :     0.009861
      f+1     :     0.000588
      f-1     :     0.000730
      f+2     :     0.001254
      f-2     :     0.000782
      f+3     :     0.001596
      f-3     :     0.003031
 11 Brs       :     7.910328  s :     7.910328
      pz      :     5.923854  p :    17.086587
      px      :     5.694174
      py      :     5.468559
      dz2     :     2.006415  d :    10.053512
      dxz     :     2.006844
      dyz     :     2.011780
      dx2y2   :     2.010089
      dxy     :     2.018384
      f0      :     0.000789  f :     0.007664
      f+1     :     0.000604
      f-1     :     0.001010
      f+2     :     0.000140
      f-2     :     0.001076
      f+3     :     0.002523
      f-3     :     0.001521
 12 C s       :     3.178298  s :     3.178298
      pz      :     1.019628  p :     2.879409
      px      :     0.955186
      py      :     0.904595
      dz2     :     0.005963  d :     0.077444
      dxz     :     0.005760
      dyz     :     0.018599
      dx2y2   :     0.032793
      dxy     :     0.014329
      f0      :     0.001563  f :     0.007366
      f+1     :     0.000691
      f-1     :     0.000498
      f+2     :     0.000204
      f-2     :     0.000998
      f+3     :     0.001504
      f-3     :     0.001907
 13 C s       :     3.201085  s :     3.201085
      pz      :     0.906385  p :     2.730360
      px      :     0.854453
      py      :     0.969522
      dz2     :     0.004006  d :     0.109657
      dxz     :     0.031079
      dyz     :     0.008863
      dx2y2   :     0.032692
      dxy     :     0.033016
      f0      :     0.001859  f :     0.010903
      f+1     :     0.000963
      f-1     :     0.000590
      f+2     :     0.001265
      f-2     :     0.000779
      f+3     :     0.002294
      f-3     :     0.003153
 14 N s       :     3.577412  s :     3.577412
      pz      :     1.158001  p :     3.617955
      px      :     1.190260
      py      :     1.269694
      dz2     :     0.005836  d :     0.062162
      dxz     :     0.012040
      dyz     :     0.010259
      dx2y2   :     0.018034
      dxy     :     0.015992
      f0      :     0.000661  f :     0.003915
      f+1     :     0.000305
      f-1     :     0.000264
      f+2     :     0.000576
      f-2     :     0.000294
      f+3     :     0.000756
      f-3     :     0.001059
 15 H s       :     0.871196  s :     0.871196
      pz      :     0.004463  p :     0.021627
      px      :     0.010016
      py      :     0.007148
 16 H s       :     0.825497  s :     0.825497
      pz      :     0.004351  p :     0.022266
      px      :     0.010317
      py      :     0.007598
 17 H s       :     0.871158  s :     0.871158
      pz      :     0.010229  p :     0.021405
      px      :     0.004433
      py      :     0.006743
 18 H s       :     0.874676  s :     0.874676
      pz      :     0.004436  p :     0.021474
      px      :     0.010639
      py      :     0.006398
 19 H s       :     0.866843  s :     0.866843
      pz      :     0.009677  p :     0.021503
      px      :     0.004247
      py      :     0.007579
 20 H s       :     0.866845  s :     0.866845
      pz      :     0.009677  p :     0.021503
      px      :     0.004247
      py      :     0.007579
 21 H s       :     0.871198  s :     0.871198
      pz      :     0.004462  p :     0.021627
      px      :     0.010016
      py      :     0.007148
 22 H s       :     0.825502  s :     0.825502
      pz      :     0.004351  p :     0.022266
      px      :     0.010317
      py      :     0.007598
 23 H s       :     0.871150  s :     0.871150
      pz      :     0.010230  p :     0.021406
      px      :     0.004433
      py      :     0.006743
 24 H s       :     0.735483  s :     0.735483
      pz      :     0.011271  p :     0.038159
      px      :     0.007917
      py      :     0.018971
 25 H s       :     0.792927  s :     0.792927
      pz      :     0.004836  p :     0.024880
      px      :     0.007037
      py      :     0.013007
 26 H s       :     0.847429  s :     0.847429
      pz      :     0.005109  p :     0.022892
      px      :     0.014098
      py      :     0.003684
 27 H s       :     0.858352  s :     0.858352
      pz      :     0.004280  p :     0.021796
      px      :     0.004208
      py      :     0.013308


                     *******************************
                     * LOEWDIN POPULATION ANALYSIS *
                     *******************************

----------------------
LOEWDIN ATOMIC CHARGES
----------------------
   0 C :   -0.255017
   1 C :   -0.388415
   2 C :   -0.254108
   3 C :   -0.255016
   4 O :    0.286803
   5 C :   -0.572979
   6 O :    0.084245
   7 N :    0.189462
   8 C :   -0.265406
   9 C :   -0.122749
  10 C :   -0.372086
  11 Br:    0.365381
  12 C :   -0.166523
  13 C :   -0.200178
  14 N :    0.140136
  15 H :    0.127480
  16 H :    0.130399
  17 H :    0.124723
  18 H :    0.125986
  19 H :    0.123921
  20 H :    0.123924
  21 H :    0.127482
  22 H :    0.130395
  23 H :    0.124723
  24 H :    0.201570
  25 H :    0.159236
  26 H :    0.147161
  27 H :    0.139451

-------------------------------
LOEWDIN REDUCED ORBITAL CHARGES
-------------------------------
  0 C s       :     2.827263  s :     2.827263
      pz      :     1.023970  p :     3.150884
      px      :     1.071155
      py      :     1.055760
      dz2     :     0.077746  d :     0.251742
      dxz     :     0.021033
      dyz     :     0.066998
      dx2y2   :     0.016304
      dxy     :     0.069662
      f0      :     0.003684  f :     0.025127
      f+1     :     0.004335
      f-1     :     0.005453
      f+2     :     0.004816
      f-2     :     0.002343
      f+3     :     0.000902
      f-3     :     0.003594
  1 C s       :     2.718656  s :     2.718656
      pz      :     1.039708  p :     2.830997
      px      :     0.848071
      py      :     0.943217
      dz2     :     0.153438  d :     0.740625
      dxz     :     0.112318
      dyz     :     0.170180
      dx2y2   :     0.111377
      dxy     :     0.193312
      f0      :     0.017160  f :     0.098137
      f+1     :     0.012063
      f-1     :     0.008825
      f+2     :     0.007381
      f-2     :     0.018301
      f+3     :     0.019553
      f-3     :     0.014855
  2 C s       :     2.829663  s :     2.829663
      pz      :     1.067306  p :     3.142318
      px      :     1.030663
      py      :     1.044349
      dz2     :     0.038765  d :     0.256672
      dxz     :     0.024337
      dyz     :     0.082359
      dx2y2   :     0.045243
      dxy     :     0.065966
      f0      :     0.002442  f :     0.025455
      f+1     :     0.003198
      f-1     :     0.004000
      f+2     :     0.003257
      f-2     :     0.003253
      f+3     :     0.004083
      f-3     :     0.005224
  3 C s       :     2.827264  s :     2.827264
      pz      :     1.023972  p :     3.150883
      px      :     1.071154
      py      :     1.055757
      dz2     :     0.077747  d :     0.251742
      dxz     :     0.021029
      dyz     :     0.066999
      dx2y2   :     0.016306
      dxy     :     0.069661
      f0      :     0.003683  f :     0.025127
      f+1     :     0.004336
      f-1     :     0.005454
      f+2     :     0.004816
[...]
             1.060        261.661         0.001
            -0.003          0.000       250.924

Paramagnetic contribution to the shielding tensor (ppm): 
          -222.236          7.399         0.009
            19.320       -276.061        -0.010
             0.011         -0.010       -95.301

Total shielding tensor (ppm): 
            55.155         12.155         0.008
            20.380        -14.400        -0.009
             0.008         -0.009       155.623


 Diagonalized sT*s matrix:
 
 sDSO           261.196          277.855          250.924  iso=     263.325
 sPSO          -278.454         -219.842          -95.301  iso=    -197.866
        ---------------  ---------------  ---------------
 Total          -17.258           58.012          155.623  iso=      65.459

 --------------
 Nucleus  10C :
 --------------

Diamagnetic contribution to the shielding tensor (ppm) : 
           259.515          4.477        -0.002
             4.322        261.652         0.000
            -0.002          0.000       228.277

Paramagnetic contribution to the shielding tensor (ppm): 
          -267.599        -45.279         0.010
           -47.596       -305.354        -0.004
             0.008         -0.006      -105.028

Total shielding tensor (ppm): 
            -8.084        -40.802         0.008
           -43.274        -43.702        -0.004
             0.006         -0.006       123.249


 Diagonalized sT*s matrix:
 
 sDSO           256.086          265.081          228.277  iso=     249.814
 sPSO          -236.376         -336.576         -105.028  iso=    -225.993
        ---------------  ---------------  ---------------
 Total           19.710          -71.496          123.249  iso=      23.821

 --------------
 Nucleus  11Br:
 --------------

Diamagnetic contribution to the shielding tensor (ppm) : 
          3123.889          4.414         0.001
             4.119       3126.058        -0.001
             0.001         -0.001      3130.847

Paramagnetic contribution to the shielding tensor (ppm): 
         -1079.301        629.902        -0.014
           628.361       -710.764        -0.013
            -0.003         -0.019     -1604.263

Total shielding tensor (ppm): 
          2044.588        634.315        -0.013
           632.479       2415.294        -0.014
            -0.002         -0.019      1526.584


 Diagonalized sT*s matrix:
 
 sDSO          3130.847         3120.574         3129.372  iso=    3126.931
 sPSO         -1604.263        -1550.594         -239.471  iso=   -1131.443
        ---------------  ---------------  ---------------
 Total         1526.584         1569.980         2889.901  iso=    1995.489

 --------------
 Nucleus  12C :
 --------------

Diamagnetic contribution to the shielding tensor (ppm) : 
           264.969          0.887        -0.002
             0.894        270.622         0.002
             0.001          0.001       223.787

Paramagnetic contribution to the shielding tensor (ppm): 
          -306.794         17.385         0.015
             6.557       -203.068        -0.006
             0.014         -0.006       -74.471

Total shielding tensor (ppm): 
           -41.825         18.272         0.013
             7.451         67.554        -0.004
             0.015         -0.005       149.317


 Diagonalized sT*s matrix:
 
 sDSO           265.157          270.435          223.787  iso=     253.126
 sPSO          -304.080         -205.782          -74.471  iso=    -194.778
        ---------------  ---------------  ---------------
 Total          -38.923           64.653          149.317  iso=      58.349

 --------------
 Nucleus  13C :
 --------------

Diamagnetic contribution to the shielding tensor (ppm) : 
           265.140          6.513        -0.002
             6.888        260.228         0.000
            -0.003          0.003       232.603

Paramagnetic contribution to the shielding tensor (ppm): 
          -263.605         45.642         0.013
            28.731       -308.867        -0.010
             0.013         -0.012       -94.471

Total shielding tensor (ppm): 
             1.535         52.155         0.011
            35.618        -48.639        -0.010
             0.011         -0.009       138.132


 Diagonalized sT*s matrix:
 
 sDSO           268.927          256.440          232.603  iso=     252.657
 sPSO          -244.783         -327.690          -94.471  iso=    -222.314
        ---------------  ---------------  ---------------
 Total           24.145          -71.249          138.132  iso=      30.342

 --------------
 Nucleus  14N :
 --------------

Diamagnetic contribution to the shielding tensor (ppm) : 
           338.664        -19.524        -0.003
           -21.262        329.805         0.002
            -0.002          0.000       317.429

Paramagnetic contribution to the shielding tensor (ppm): 
          -571.005        113.519         0.042
            74.059       -483.354        -0.024
             0.039         -0.017       -61.004

Total shielding tensor (ppm): 
          -232.341         93.995         0.039
            52.797       -153.549        -0.023
             0.037         -0.017       256.425


 Diagonalized sT*s matrix:
 
 sDSO           313.675          317.429          354.793  iso=     328.633
 sPSO          -423.790          -61.004         -630.569  iso=    -371.788
        ---------------  ---------------  ---------------
 Total         -110.115          256.425         -275.775  iso=     -43.155

 --------------
 Nucleus  15H :
 --------------

Diamagnetic contribution to the shielding tensor (ppm) : 
            34.042         -6.557         2.511
            -8.125         33.190        -0.576
            10.082          0.468        28.822

Paramagnetic contribution to the shielding tensor (ppm): 
            -2.252          3.266        -0.930
             4.478         -1.682        -2.043
            -7.948         -3.254         0.640

Total shielding tensor (ppm): 
            31.790         -3.291         1.581
            -3.647         31.509        -2.619
             2.134         -2.787        29.462


 Diagonalized sT*s matrix:
 
 sDSO            30.793           23.036           42.226  iso=      32.018
 sPSO            -3.312            5.664           -5.645  iso=      -1.098
        ---------------  ---------------  ---------------
 Total           27.481           28.700           36.581  iso=      30.920

 --------------
 Nucleus  16H :
 --------------

Diamagnetic contribution to the shielding tensor (ppm) : 
            33.144          3.442         0.783
             3.294         28.970        -8.002
             8.168         -8.832        27.463

Paramagnetic contribution to the shielding tensor (ppm): 
            -2.223         -1.266         0.238
            -0.268          0.331         5.815
            -7.800          4.504        -0.315

Total shielding tensor (ppm): 
            30.921          2.176         1.021
             3.026         29.301        -2.187
             0.368         -4.328        27.148


 Diagonalized sT*s matrix:
 
 sDSO            17.803           36.402           35.371  iso=      29.859
 sPSO             6.314           -6.399           -2.122  iso=      -0.735
        ---------------  ---------------  ---------------
 Total           24.117           30.004           33.249  iso=      29.123

 --------------
 Nucleus  17H :
 --------------

Diamagnetic contribution to the shielding tensor (ppm) : 
            25.702         -0.958         1.188
            -9.393         27.944         0.795
             4.725          1.563        39.368

Paramagnetic contribution to the shielding tensor (ppm): 
             2.785          0.950        -1.054
             9.609          0.650        -0.526
            -4.130          0.417        -3.954

Total shielding tensor (ppm): 
            28.486         -0.009         0.134
             0.217         28.594         0.270
             0.595          1.980        35.414


 Diagonalized sT*s matrix:
 
 sDSO            32.252           21.148           39.613  iso=      31.005
 sPSO            -3.863            7.344           -4.000  iso=      -0.173
        ---------------  ---------------  ---------------
 Total           28.389           28.492           35.613  iso=      30.831

 --------------
 Nucleus  18H :
 --------------

Diamagnetic contribution to the shielding tensor (ppm) : 
            40.001         -3.857         0.002
            -0.589         22.827        -0.002
             0.003         -0.000        23.622

Paramagnetic contribution to the shielding tensor (ppm): 
            -3.638          2.788        -0.001
             0.330          5.929         0.002
            -0.001          0.000         4.097

Total shielding tensor (ppm): 
            36.362         -1.068         0.001
            -0.259         28.757        -0.000
             0.001         -0.000        27.719


 Diagonalized sT*s matrix:
 
 sDSO            23.622           22.565           40.263  iso=      28.817
 sPSO             4.097            6.135           -3.843  iso=       2.129
        ---------------  ---------------  ---------------
 Total           27.719           28.700           36.420  iso=      30.946

 --------------
 Nucleus  19H :
 --------------

Diamagnetic contribution to the shielding tensor (ppm) : 
            30.487          2.996        -2.633
             9.564         27.870        -6.860
            -0.789         -9.961        24.030

Paramagnetic contribution to the shielding tensor (ppm): 
            -0.816          0.046         0.683
            -7.332          3.942         3.239
            -0.054          7.580         6.162

Total shielding tensor (ppm): 
            29.671          3.042        -1.950
             2.231         31.813        -3.621
            -0.842         -2.382        30.192


 Diagonalized sT*s matrix:
 
 sDSO            18.202           25.630           38.555  iso=      27.462
 sPSO             9.374            2.888           -2.973  iso=       3.096
        ---------------  ---------------  ---------------
 Total           27.576           28.518           35.582  iso=      30.559

 --------------
 Nucleus  20H :
 --------------

Diamagnetic contribution to the shielding tensor (ppm) : 
            30.486          2.994         2.632
             9.562         27.870         6.863
             0.791          9.962        24.030

Paramagnetic contribution to the shielding tensor (ppm): 
            -0.816          0.047        -0.683
            -7.332          3.942        -3.241
             0.052         -7.579         6.163

Total shielding tensor (ppm): 
            29.670          3.041         1.949
             2.230         31.813         3.622
             0.842          2.383        30.192


 Diagonalized sT*s matrix:
 
 sDSO            18.200           25.632           38.554  iso=      27.462
 sPSO             9.376            2.886           -2.973  iso=       3.096
        ---------------  ---------------  ---------------
 Total           27.576           28.518           35.581  iso=      30.558

 --------------
 Nucleus  21H :
 --------------

Diamagnetic contribution to the shielding tensor (ppm) : 
            34.043         -6.558        -2.510
            -8.126         33.188         0.575
           -10.079         -0.470        28.818

Paramagnetic contribution to the shielding tensor (ppm): 
            -2.252          3.266         0.929
             4.478         -1.679         2.043
             7.946          3.255         0.643

Total shielding tensor (ppm): 
            31.791         -3.292        -1.580
            -3.648         31.508         2.618
            -2.133          2.786        29.461


 Diagonalized sT*s matrix:
 
 sDSO            30.790           23.033           42.225  iso=      32.016
 sPSO            -3.310            5.666           -5.644  iso=      -1.096
        ---------------  ---------------  ---------------
 Total           27.481           28.699           36.581  iso=      30.920

 --------------
 Nucleus  22H :
 --------------

Diamagnetic contribution to the shielding tensor (ppm) : 
            33.143          3.442        -0.782
             3.292         28.969         8.004
            -8.167          8.833        27.460

Paramagnetic contribution to the shielding tensor (ppm): 
            -2.222         -1.266        -0.237
            -0.266          0.332        -5.816
             7.801         -4.504        -0.311

Total shielding tensor (ppm): 
            30.921          2.175        -1.020
             3.026         29.302         2.188
            -0.367          4.328        27.149


 Diagonalized sT*s matrix:
 
 sDSO            17.802           36.401           35.370  iso=      29.858
 sPSO             6.317           -6.397           -2.120  iso=      -0.734
        ---------------  ---------------  ---------------
 Total           24.118           30.004           33.250  iso=      29.124

 --------------
 Nucleus  23H :
 --------------

Diamagnetic contribution to the shielding tensor (ppm) : 
            25.701         -0.957        -1.193
            -9.392         27.942        -0.797
            -4.729         -1.564        39.366

Paramagnetic contribution to the shielding tensor (ppm): 
             2.785          0.949         1.056
             9.609          0.652         0.528
             4.131         -0.416        -3.952

Total shielding tensor (ppm): 
            28.486         -0.008        -0.136
             0.217         28.594        -0.269
            -0.597         -1.980        35.414


 Diagonalized sT*s matrix:
 
 sDSO            32.256           21.140           39.613  iso=      31.003
 sPSO            -3.867            7.352           -4.000  iso=      -0.172
        ---------------  ---------------  ---------------
 Total           28.388           28.492           35.613  iso=      30.831

 --------------
 Nucleus  24H :
 --------------

Diamagnetic contribution to the shielding tensor (ppm) : 
            34.723          5.097        -0.001
             6.664         42.989        -0.001
            -0.000          0.001        26.873

Paramagnetic contribution to the shielding tensor (ppm): 
            -6.490         -5.367         0.001
            -8.254        -14.662         0.001
            -0.000         -0.000        -8.074

Total shielding tensor (ppm): 
            28.233         -0.269         0.000
            -1.590         28.327         0.000
            -0.000          0.001        18.798


 Diagonalized sT*s matrix:
 
 sDSO            26.873           44.622           33.090  iso=      34.861
 sPSO            -8.074          -17.273           -3.879  iso=      -9.742
        ---------------  ---------------  ---------------
 Total           18.798           27.349           29.211  iso=      25.119

 --------------
 Nucleus  25H :
 --------------

Diamagnetic contribution to the shielding tensor (ppm) : 
            37.284         -5.440        -0.000
            -4.633         37.952         0.001
            -0.000          0.001        34.104

Paramagnetic contribution to the shielding tensor (ppm): 
            -3.563          6.680        -0.000
             6.646        -17.901        -0.001
            -0.000         -0.000       -18.194

Total shielding tensor (ppm): 
            33.721          1.241        -0.001
             2.013         20.050        -0.000
            -0.001          0.000        15.911


 Diagonalized sT*s matrix:
 
 sDSO            34.104           39.039           36.197  iso=      36.447
 sPSO           -18.194          -19.179           -2.285  iso=     -13.220
        ---------------  ---------------  ---------------
 Total           15.911           19.860           33.911  iso=      23.227

 --------------
 Nucleus  26H :
 --------------

Diamagnetic contribution to the shielding tensor (ppm) : 
            43.028         -2.993        -0.001
            -2.944         31.047         0.001
            -0.001          0.001        12.093

Paramagnetic contribution to the shielding tensor (ppm): 
           -20.341          3.370         0.001
             1.855         -0.395        -0.000
             0.001         -0.000         9.092

Total shielding tensor (ppm): 
            22.687          0.377        -0.000
            -1.089         30.652         0.000
             0.000          0.000        21.185


 Diagonalized sT*s matrix:
 
 sDSO            12.093           42.642           31.434  iso=      28.723
 sPSO             9.092          -19.969           -0.767  iso=      -3.881
        ---------------  ---------------  ---------------
 Total           21.185           22.673           30.667  iso=      24.841

 --------------
 Nucleus  27H :
 --------------

Diamagnetic contribution to the shielding tensor (ppm) : 
            29.118         -5.874        -0.001
            -5.339         43.326         0.001
            -0.002          0.002        14.537

Paramagnetic contribution to the shielding tensor (ppm): 
            -3.162          7.269         0.001
             7.289        -17.847        -0.001
             0.001         -0.002         5.091

Total shielding tensor (ppm): 
            25.955          1.395        -0.000
             1.950         25.479         0.000
            -0.000          0.000        19.629


 Diagonalized sT*s matrix:
 
 sDSO            14.537           42.840           29.603  iso=      28.994
 sPSO             5.091          -18.812           -2.197  iso=      -5.306
        ---------------  ---------------  ---------------
 Total           19.629           24.028           27.406  iso=      23.688



--------------------------------
CHEMICAL SHIELDING SUMMARY (ppm)
--------------------------------


  Nucleus  Element    Isotropic     Anisotropy
  -------  -------  ------------   ------------
      0       C          157.135         41.050 
      1       C           99.265         74.211 
      2       C          150.436         49.526 
      3       C          157.133         41.053 
      4       O          119.912         68.217 
      5       C           27.535         61.979 
      6       O           12.513        434.996 
      7       N          117.368         99.379 
      8       C           25.008        140.514 
      9       C           65.459        135.246 
     10       C           23.821        149.142 
     11       Br        1995.489       1341.619 
     12       C           58.349        136.452 
     13       C           30.342        161.684 
     14       N          -43.155       -348.930 
     15       H           30.920          8.491 
     16       H           29.123          6.189 
     17       H           30.831          7.173 
     18       H           30.946          8.210 
     19       H           30.559          7.535 
     20       H           30.558          7.535 
     21       H           30.920          8.491 
     22       H           29.124          6.188 
     23       H           30.831          7.173 
     24       H           25.119          6.137 
     25       H           23.227         16.026 
     26       H           24.841          8.738 
     27       H           23.688          5.578 



Maximum memory used throughout the entire EPRNMR-calculation: 103.6 MB

Timings for individual modules:

Sum of individual times         ...      106.563 sec (=   1.776 min)
GTO integral calculation        ...        1.313 sec (=   0.022 min)   1.2 %
SCF iterations                  ...       73.371 sec (=   1.223 min)  68.9 %
EPR/NMR calculation             ...       31.879 sec (=   0.531 min)  29.9 %
                             ****ORCA TERMINATED NORMALLY****
TOTAL RUN TIME: 0 days 0 hours 1 minutes 47 seconds 282 msec
