
                                 *****************
                                 * O   R   C   A *
                                 *****************

                                            #,                                       
                                            ###                                      
                                            ####                                     
                                            #####                                    
                                            ######                                   
                                           ########,                                 
                                     ,,################,,,,,                         
                               ,,#################################,,                 
                          ,,##########################################,,             
                       ,#########################################, ''#####,          
                    ,#############################################,,   '####,        
                  ,##################################################,,,,####,       
                ,###########''''           ''''###############################       
              ,#####''   ,,,,##########,,,,          '''####'''          '####       
            ,##' ,,,,###########################,,,                        '##       
           ' ,,###''''                  '''############,,,                           
         ,,##''                                '''############,,,,        ,,,,,,###''
      ,#''                                            '''#######################'''  
     '                                                          ''''####''''         
             ,#######,   #######,   ,#######,      ##                                
            ,#'     '#,  ##    ##  ,#'     '#,    #''#        ######   ,####,        
            ##       ##  ##   ,#'  ##            #'  '#       #        #'  '#        
            ##       ##  #######   ##           ,######,      #####,   #    #        
            '#,     ,#'  ##    ##  '#,     ,#' ,#      #,         ##   #,  ,#        
             '#######'   ##     ##  '#######'  #'      '#     #####' # '####'        



                  #######################################################
                  #                        -***-                        #
                  #          Department of theory and spectroscopy      #
                  #    Directorship and core code : Frank Neese         #
                  #        Max Planck Institute fuer Kohlenforschung    #
                  #                Kaiser Wilhelm Platz 1               #
                  #                 D-45470 Muelheim/Ruhr               #
                  #                      Germany                        #
                  #                                                     #
                  #                  All rights reserved                #
                  #                        -***-                        #
                  #######################################################


                         Program Version 5.0.4 -  RELEASE  -


 With contributions from (in alphabetic order):
   Daniel Aravena         : Magnetic Suceptibility
   Michael Atanasov       : Ab Initio Ligand Field Theory (pilot matlab implementation)
   Alexander A. Auer      : GIAO ZORA, VPT2 properties, NMR spectrum
   Ute Becker             : Parallelization
   Giovanni Bistoni       : ED, misc. LED, open-shell LED, HFLD
   Martin Brehm           : Molecular dynamics
   Dmytro Bykov           : SCF Hessian
   Vijay G. Chilkuri      : MRCI spin determinant printing, contributions to CSF-ICE
   Dipayan Datta          : RHF DLPNO-CCSD density
   Achintya Kumar Dutta   : EOM-CC, STEOM-CC
   Dmitry Ganyushin       : Spin-Orbit,Spin-Spin,Magnetic field MRCI
   Miquel Garcia          : C-PCM and meta-GGA Hessian, CC/C-PCM, Gaussian charge scheme
   Yang Guo               : DLPNO-NEVPT2, F12-NEVPT2, CIM, IAO-localization
   Andreas Hansen         : Spin unrestricted coupled pair/coupled cluster methods
   Benjamin Helmich-Paris : MC-RPA, TRAH-SCF, COSX integrals
   Lee Huntington         : MR-EOM, pCC
   Robert Izsak           : Overlap fitted RIJCOSX, COSX-SCS-MP3, EOM
   Marcus Kettner         : VPT2
   Christian Kollmar      : KDIIS, OOCD, Brueckner-CCSD(T), CCSD density, CASPT2, CASPT2-K
   Simone Kossmann        : Meta GGA functionals, TD-DFT gradient, OOMP2, MP2 Hessian
   Martin Krupicka        : Initial AUTO-CI
   Lucas Lang             : DCDCAS
   Marvin Lechner         : AUTO-CI (C++ implementation), FIC-MRCC
   Dagmar Lenk            : GEPOL surface, SMD
   Dimitrios Liakos       : Extrapolation schemes; Compound Job, initial MDCI parallelization
   Dimitrios Manganas     : Further ROCIS development; embedding schemes
   Dimitrios Pantazis     : SARC Basis sets
   Anastasios Papadopoulos: AUTO-CI, single reference methods and gradients
   Taras Petrenko         : DFT Hessian,TD-DFT gradient, ASA, ECA, R-Raman, ABS, FL, XAS/XES, NRVS
   Peter Pinski           : DLPNO-MP2, DLPNO-MP2 Gradient
   Christoph Reimann      : Effective Core Potentials
   Marius Retegan         : Local ZFS, SOC
   Christoph Riplinger    : Optimizer, TS searches, QM/MM, DLPNO-CCSD(T), (RO)-DLPNO pert. Triples
   Tobias Risthaus        : Range-separated hybrids, TD-DFT gradient, RPA, STAB
   Michael Roemelt        : Original ROCIS implementation
   Masaaki Saitow         : Open-shell DLPNO-CCSD energy and density
   Barbara Sandhoefer     : DKH picture change effects
   Avijit Sen             : IP-ROCIS
   Kantharuban Sivalingam : CASSCF convergence, NEVPT2, FIC-MRCI
   Bernardo de Souza      : ESD, SOC TD-DFT
   Georgi Stoychev        : AutoAux, RI-MP2 NMR, DLPNO-MP2 response
   Willem Van den Heuvel  : Paramagnetic NMR
   Boris Wezisla          : Elementary symmetry handling
   Frank Wennmohs         : Technical directorship


 We gratefully acknowledge several colleagues who have allowed us to
 interface, adapt or use parts of their codes:
   Stefan Grimme, W. Hujo, H. Kruse, P. Pracht,  : VdW corrections, initial TS optimization,
                  C. Bannwarth, S. Ehlert          DFT functionals, gCP, sTDA/sTD-DF
   Ed Valeev, F. Pavosevic, A. Kumar             : LibInt (2-el integral package), F12 methods
   Garnet Chan, S. Sharma, J. Yang, R. Olivares  : DMRG
   Ulf Ekstrom                                   : XCFun DFT Library
   Mihaly Kallay                                 : mrcc  (arbitrary order and MRCC methods)
   Jiri Pittner, Ondrej Demel                    : Mk-CCSD
   Frank Weinhold                                : gennbo (NPA and NBO analysis)
   Christopher J. Cramer and Donald G. Truhlar   : smd solvation model
   Lars Goerigk                                  : TD-DFT with DH, B97 family of functionals
   V. Asgeirsson, H. Jonsson                     : NEB implementation
   FAccTs GmbH                                   : IRC, NEB, NEB-TS, DLPNO-Multilevel, CI-OPT
                                                   MM, QMMM, 2- and 3-layer-ONIOM, Crystal-QMMM,
                                                   LR-CPCM, SF, NACMEs, symmetry and pop. for TD-DFT,
                                                   nearIR, NL-DFT gradient (VV10), updates on ESD,
                                                   ML-optimized integration grids
   S Lehtola, MJT Oliveira, MAL Marques          : LibXC Library
   Liviu Ungur et al                             : ANISO software


 Your calculation uses the libint2 library for the computation of 2-el integrals
 For citations please refer to: http://libint.valeyev.net

 Your ORCA version has been built with support for libXC version: 5.1.0
 For citations please refer to: https://tddft.org/programs/libxc/

 This ORCA versions uses:
   CBLAS   interface :  Fast vector & matrix operations
   LAPACKE interface :  Fast linear algebra routines
   SCALAPACK package :  Parallel linear algebra routines
   Shared memory     :  Shared parallel matrices
   BLAS/LAPACK       :  OpenBLAS 0.3.15  USE64BITINT DYNAMIC_ARCH NO_AFFINITY SkylakeX SINGLE_THREADED
        Core in use  :  SkylakeX
   Copyright (c) 2011-2014, The OpenBLAS Project



Information: The global flag for chemical shieldings has been found
             ==>> will calculate the chemical shieldings for all atoms in the system

================================================================================

----- Orbital basis set information -----
Your calculation utilizes the basis: def2-TZVP
   F. Weigend and R. Ahlrichs, Phys. Chem. Chem. Phys. 7, 3297 (2005).

----- AuxJ basis set information -----
Your calculation utilizes the auxiliary basis: def2/J
   F. Weigend, Phys. Chem. Chem. Phys. 8, 1057 (2006).

================================================================================
                                        WARNINGS
                       Please study these warnings very carefully!
================================================================================


INFO   : the flag for use of the SHARK integral package has been found!

================================================================================
                                       INPUT FILE
================================================================================
NAME = arbr_16_r2scan3c_nmr.inp
|  1> %PAL NPROCS 16 END
|  2> %maxcore 4000
|  3> # arbr_16_r2scan3c.out
|  4> ! NMR B3LYP def2-tzvp 
|  5> * xyz 0 1
|  6>    F        2.97515        -1.46948        -0.00000
|  7>    C        2.03985        -0.51761         0.00000
|  8>    C        2.42150         0.81294        -0.00001
|  9>    N        1.52503         1.79022        -0.00000
| 10>    C        0.23544         1.47963         0.00001
| 11>    C       -0.20788         0.16298         0.00000
| 12>   Br       -2.05825        -0.20428        -0.00000
| 13>    C        0.70771        -0.87437         0.00000
| 14>    H        3.47201         1.07834        -0.00001
| 15>    H       -0.47431         2.29752        -0.00000
| 16>    H        0.40992        -1.91344         0.00000
| 17> *
| 18> 
| 19>                          ****END OF INPUT****
================================================================================

                       ****************************
                       * Single Point Calculation *
                       ****************************

---------------------------------
CARTESIAN COORDINATES (ANGSTROEM)
---------------------------------
  F      2.975150   -1.469480   -0.000000
  C      2.039850   -0.517610    0.000000
  C      2.421500    0.812940   -0.000010
  N      1.525030    1.790220   -0.000000
  C      0.235440    1.479630    0.000010
  C     -0.207880    0.162980    0.000000
  Br    -2.058250   -0.204280   -0.000000
  C      0.707710   -0.874370    0.000000
  H      3.472010    1.078340   -0.000010
  H     -0.474310    2.297520   -0.000000
  H      0.409920   -1.913440    0.000000

----------------------------
CARTESIAN COORDINATES (A.U.)
----------------------------
  NO LB      ZA    FRAG     MASS         X           Y           Z
   0 F     9.0000    0    18.998    5.622219   -2.776915   -0.000000
   1 C     6.0000    0    12.011    3.854758   -0.978141    0.000000
   2 C     6.0000    0    12.011    4.575972    1.536234   -0.000019
   3 N     7.0000    0    14.007    2.881889    3.383026   -0.000000
   4 C     6.0000    0    12.011    0.444917    2.796095    0.000019
   5 C     6.0000    0    12.011   -0.392836    0.307988    0.000000
   6 Br   35.0000    0    79.900   -3.889529   -0.386033   -0.000000
   7 C     6.0000    0    12.011    1.337378   -1.652320    0.000000
   8 H     1.0000    0     1.008    6.561148    2.037767   -0.000019
   9 H     1.0000    0     1.008   -0.896316    4.341684   -0.000000
  10 H     1.0000    0     1.008    0.774637   -3.615878    0.000000

--------------------------------
INTERNAL COORDINATES (ANGSTROEM)
--------------------------------
 F      0   0   0     0.000000000000     0.00000000     0.00000000
 C      1   0   0     1.334482141844     0.00000000     0.00000000
 C      2   1   0     1.384203751295   119.49825209     0.00000000
 N      3   2   1     1.326172937214   121.46467716   180.00052565
 C      4   3   2     1.326464668320   118.98906339     0.00000000
 C      5   4   3     1.389280333482   122.14998139     0.00000000
 Br     6   5   4     1.886464694740   119.83465877   180.00053286
 C      2   1   3     1.379084724446   119.50439408   179.99952443
 H      3   2   1     1.083516691196   120.18328614     0.00000000
 H      5   4   3     1.082907712919   117.40939976   180.00107458
 H      8   2   1     1.080900249329   120.98446460     0.00000000

---------------------------
INTERNAL COORDINATES (A.U.)
---------------------------
 F      0   0   0     0.000000000000     0.00000000     0.00000000
 C      1   0   0     2.521805778693     0.00000000     0.00000000
 C      2   1   0     2.615766003495   119.49825209     0.00000000
 N      3   2   1     2.506103657553   121.46467716   180.00052565
 C      4   3   2     2.506654949447   118.98906339     0.00000000
 C      5   4   3     2.625359353524   122.14998139     0.00000000
 Br     6   5   4     3.564901634370   119.83465877   180.00053286
 C      2   1   3     2.606092444677   119.50439408   179.99952443
 H      3   2   1     2.047549807893   120.18328614     0.00000000
 H      5   4   3     2.046399005728   117.40939976   180.00107458
 H      8   2   1     2.042605449319   120.98446460     0.00000000

---------------------
BASIS SET INFORMATION
---------------------
There are 5 groups of distinct atoms

 Group   1 Type F   : 11s6p2d1f contracted to 5s3p2d1f pattern {62111/411/11/1}
 Group   2 Type C   : 11s6p2d1f contracted to 5s3p2d1f pattern {62111/411/11/1}
 Group   3 Type N   : 11s6p2d1f contracted to 5s3p2d1f pattern {62111/411/11/1}
 Group   4 Type Br  : 17s13p8d1f contracted to 6s5p4d1f pattern {842111/64111/5111/1}
 Group   5 Type H   : 5s1p contracted to 3s1p pattern {311/1}

Atom   0F    basis set group =>   1
Atom   1C    basis set group =>   2
Atom   2C    basis set group =>   2
Atom   3N    basis set group =>   3
Atom   4C    basis set group =>   2
Atom   5C    basis set group =>   2
Atom   6Br   basis set group =>   4
Atom   7C    basis set group =>   2
Atom   8H    basis set group =>   5
Atom   9H    basis set group =>   5
Atom  10H    basis set group =>   5
---------------------------------
AUXILIARY/J BASIS SET INFORMATION
---------------------------------
There are 5 groups of distinct atoms

 Group   1 Type F   : 12s5p4d2f1g contracted to 6s4p3d1f1g pattern {711111/2111/211/2/1}
 Group   2 Type C   : 12s5p4d2f1g contracted to 6s4p3d1f1g pattern {711111/2111/211/2/1}
 Group   3 Type N   : 12s5p4d2f1g contracted to 6s4p3d1f1g pattern {711111/2111/211/2/1}
 Group   4 Type Br  : 19s5p5d3f1g contracted to 8s4p3d2f1g pattern {121111111/2111/311/21/1}
 Group   5 Type H   : 5s2p1d contracted to 3s1p1d pattern {311/2/1}

Atom   0F    basis set group =>   1
Atom   1C    basis set group =>   2
Atom   2C    basis set group =>   2
Atom   3N    basis set group =>   3
Atom   4C    basis set group =>   2
Atom   5C    basis set group =>   2
Atom   6Br   basis set group =>   4
Atom   7C    basis set group =>   2
Atom   8H    basis set group =>   5
Atom   9H    basis set group =>   5
Atom  10H    basis set group =>   5


           ************************************************************
           *        Program running with 16 parallel MPI-processes    *
           *              working on a common directory               *
           ************************************************************
------------------------------------------------------------------------------
                           ORCA GTO INTEGRAL CALCULATION
                           -- RI-GTO INTEGRALS CHOSEN --
------------------------------------------------------------------------------
------------------------------------------------------------------------------
                   ___                                                        
                  /   \      - P O W E R E D   B Y -                         
                 /     \                                                     
                 |  |  |   _    _      __       _____    __    __             
                 |  |  |  | |  | |    /  \     |  _  \  |  |  /  |          
                  \  \/   | |  | |   /    \    | | | |  |  | /  /          
                 / \  \   | |__| |  /  /\  \   | |_| |  |  |/  /          
                |  |  |   |  __  | /  /__\  \  |    /   |      \           
                |  |  |   | |  | | |   __   |  |    \   |  |\   \          
                \     /   | |  | | |  |  |  |  | |\  \  |  | \   \       
                 \___/    |_|  |_| |__|  |__|  |_| \__\ |__|  \__/        
                                                                              
                      - O R C A' S   B I G   F R I E N D -                    
                                      &                                       
                       - I N T E G R A L  F E E D E R -                       
                                                                              
 v1 FN, 2020, v2 2021                                                         
------------------------------------------------------------------------------


Reading SHARK input file arbr_16_r2scan3c_nmr.SHARKINP.tmp ... ok
----------------------
SHARK INTEGRAL PACKAGE
----------------------

Number of atoms                             ...     11
Number of basis functions                   ...    283
Number of shells                            ...    105
Maximum angular momentum                    ...      3
Integral batch strategy                     ... SHARK/LIBINT Hybrid
RI-J (if used) integral strategy            ... SPLIT-RIJ (Revised 2003 algorithm where possible)
Printlevel                                  ...      1
Contraction scheme used                     ... SEGMENTED contraction
Coulomb Range Separation                    ... NOT USED
Exchange Range Separation                   ... NOT USED
Finite Nucleus Model                        ... NOT USED
Auxiliary Coulomb fitting basis             ... AVAILABLE
   # of basis functions in Aux-J            ...    434
   # of shells in Aux-J                     ...    138
   Maximum angular momentum in Aux-J        ...      4
Auxiliary J/K fitting basis                 ... NOT available
Auxiliary Correlation fitting basis         ... NOT available
Auxiliary 'external' fitting basis          ... NOT available
Integral threshold                          ...     1.000000e-10
Primitive cut-off                           ...     1.000000e-11
Primitive pair pre-selection threshold      ...     1.000000e-11

Calculating pre-screening integrals         ... done (  0.1 sec) Dimension = 105
Organizing shell pair data                  ... done (  0.1 sec)
Shell pair information
Total number of shell pairs                 ...      5565
Shell pairs after pre-screening             ...      4980
Total number of primitive shell pairs       ...     19732
Primitive shell pairs kept                  ...     12721
          la=0 lb=0:   1065 shell pairs
          la=1 lb=0:   1321 shell pairs
          la=1 lb=1:    416 shell pairs
          la=2 lb=0:    795 shell pairs
          la=2 lb=1:    486 shell pairs
          la=2 lb=2:    156 shell pairs
          la=3 lb=0:    358 shell pairs
          la=3 lb=1:    216 shell pairs
          la=3 lb=2:    132 shell pairs
          la=3 lb=3:     35 shell pairs

Calculating one electron integrals          ... done (  0.0 sec)
Calculating RI/J V-Matrix + Cholesky decomp.... done (  0.0 sec)
Calculating Nuclear repulsion               ... done (  0.0 sec) ENN=    531.156000879725 Eh

SHARK setup successfully completed in   0.4 seconds

Maximum memory used throughout the entire GTOINT-calculation: 22.4 MB


           ************************************************************
           *        Program running with 16 parallel MPI-processes    *
           *              working on a common directory               *
           ************************************************************
-------------------------------------------------------------------------------
                                 ORCA SCF
-------------------------------------------------------------------------------

------------
SCF SETTINGS
------------
Hamiltonian:
 Density Functional     Method          .... DFT(GTOs)
 Exchange Functional    Exchange        .... B88
   X-Alpha parameter    XAlpha          ....  0.666667
   Becke's b parameter  XBeta           ....  0.004200
 Correlation Functional Correlation     .... LYP
 LDA part of GGA corr.  LDAOpt          .... VWN-5
 Gradients option       PostSCFGGA      .... off
 Hybrid DFT is turned on
   Fraction HF Exchange ScalHFX         ....  0.200000
   Scaling of DF-GGA-X  ScalDFX         ....  0.720000
   Scaling of DF-GGA-C  ScalDFC         ....  0.810000
   Scaling of DF-LDA-C  ScalLDAC        ....  1.000000
   Perturbative correction              ....  0.000000
   Density functional embedding theory  .... OFF
   NL short-range parameter             ....  4.800000
 RI-approximation to the Coulomb term is turned on
   Number of AuxJ basis functions       .... 434
   RIJ-COSX (HFX calculated with COS-X)).... on


General Settings:
 Integral files         IntName         .... arbr_16_r2scan3c_nmr
 Hartree-Fock type      HFTyp           .... RHF
 Total Charge           Charge          ....    0
 Multiplicity           Mult            ....    1
 Number of Electrons    NEL             ....   84
 Basis Dimension        Dim             ....  283
 Nuclear Repulsion      ENuc            ....    531.1560008797 Eh

Convergence Acceleration:
 DIIS                   CNVDIIS         .... on
   Start iteration      DIISMaxIt       ....    12
   Startup error        DIISStart       ....  0.200000
   # of expansion vecs  DIISMaxEq       ....     5
   Bias factor          DIISBfac        ....   1.050
   Max. coefficient     DIISMaxC        ....  10.000
 Trust-Rad. Augm. Hess. CNVTRAH         .... auto
   Auto Start mean grad. ratio tolernc. ....  1.125000
   Auto Start start iteration           ....    20
   Auto Start num. interpolation iter.  ....    10
   Max. Number of Micro iterations      ....    16
   Max. Number of Macro iterations      .... Maxiter - #DIIS iter
   Number of Davidson start vectors     ....     2
   Converg. threshold I  (grad. norm)   ....   5.000e-05
   Converg. threshold II (energy diff.) ....   1.000e-06
   Grad. Scal. Fac. for Micro threshold ....   0.100
   Minimum threshold for Micro iter.    ....   0.010
   NR start threshold (gradient norm)   ....   0.001
   Initial trust radius                 ....   0.400
   Minimum AH scaling param. (alpha)    ....   1.000
   Maximum AH scaling param. (alpha)    .... 1000.000
   Orbital update algorithm             .... Taylor
   White noise on init. David. guess    .... on
   Maximum white noise                  ....   0.010
   Quad. conv. algorithm                .... NR
 SOSCF                  CNVSOSCF        .... on
   Start iteration      SOSCFMaxIt      ....   150
   Startup grad/error   SOSCFStart      ....  0.003300
 Level Shifting         CNVShift        .... on
   Level shift para.    LevelShift      ....    0.2500
   Turn off err/grad.   ShiftErr        ....    0.0010
 Zerner damping         CNVZerner       .... off
 Static damping         CNVDamp         .... on
   Fraction old density DampFac         ....    0.7000
   Max. Damping (<1)    DampMax         ....    0.9800
   Min. Damping (>=0)   DampMin         ....    0.0000
   Turn off err/grad.   DampErr         ....    0.1000
 Fernandez-Rico         CNVRico         .... off

SCF Procedure:
 Maximum # iterations   MaxIter         ....   125
 SCF integral mode      SCFMode         .... Direct
   Integral package                     .... SHARK and LIBINT hybrid scheme
 Reset frequency        DirectResetFreq ....    20
 Integral Threshold     Thresh          ....  1.000e-10 Eh
 Primitive CutOff       TCut            ....  1.000e-11 Eh

Convergence Tolerance:
 Convergence Check Mode ConvCheckMode   .... Total+1el-Energy
 Convergence forced     ConvForced      .... 0
 Energy Change          TolE            ....  1.000e-06 Eh
 1-El. energy change                    ....  1.000e-03 Eh
 Orbital Gradient       TolG            ....  5.000e-05
 Orbital Rotation angle TolX            ....  5.000e-05
 DIIS Error             TolErr          ....  1.000e-06


Diagonalization of the overlap matrix:
Smallest eigenvalue                        ... 5.467e-05
Time for diagonalization                   ...    0.011 sec
Threshold for overlap eigenvalues          ... 1.000e-08
Number of eigenvalues below threshold      ... 0
Time for construction of square roots      ...    0.009 sec
Total time needed                          ...    0.021 sec

Time for model grid setup =    0.107 sec

------------------------------
INITIAL GUESS: MODEL POTENTIAL
------------------------------
Loading Hartree-Fock densities                     ... done
Calculating cut-offs                               ... done
Initializing the effective Hamiltonian             ... done
Setting up the integral package (SHARK)            ... done
Starting the Coulomb interaction                   ... done (   0.0 sec)
Reading the grid                                   ... done
Mapping shells                                     ... done
Starting the XC term evaluation                    ... done (   0.1 sec)
  promolecular density results
     # of electrons  =     83.998604102
     EX              =   -132.950459235
     EC              =     -3.414113049
     EX+EC           =   -136.364572284
Transforming the Hamiltonian                       ... done (   0.0 sec)
Diagonalizing the Hamiltonian                      ... done (   0.0 sec)
Back transforming the eigenvectors                 ... done (   0.0 sec)
Now organizing SCF variables                       ... done
                      ------------------
                      INITIAL GUESS DONE (   0.2 sec)
                      ------------------
-------------------
DFT GRID GENERATION
-------------------

General Integration Accuracy     IntAcc      ... 4.388
Radial Grid Type                 RadialGrid  ... OptM3 with GC (2021)
Angular Grid (max. ang.)         AngularGrid ... 4 (Lebedev-302)
Angular grid pruning method      GridPruning ... 4 (adaptive)
Weight generation scheme         WeightScheme... Becke
Basis function cutoff            BFCut       ... 1.0000e-10
Integration weight cutoff        WCut        ... 1.0000e-14
Angular grids for H and He will be reduced by one unit
Partially contracted basis set               ... off
Rotationally invariant grid construction     ... off

Total number of grid points                  ...    63268
Total number of batches                      ...      994
Average number of points per batch           ...       63
Average number of grid points per atom       ...     5752
Time for grid setup =    0.537 sec

--------------------
COSX GRID GENERATION
--------------------

GRIDX 1
-------
General Integration Accuracy     IntAcc      ... 3.816
Radial Grid Type                 RadialGrid  ... OptM3 with GC (2021)
Angular Grid (max. ang.)         AngularGrid ... 1 (Lebedev-50)
Angular grid pruning method      GridPruning ... 4 (adaptive)
Weight generation scheme         WeightScheme... Becke
Basis function cutoff            BFCut       ... 1.0000e-10
Integration weight cutoff        WCut        ... 1.0000e-14
Angular grids for H and He will be reduced by one unit
Partially contracted basis set               ... on
Rotationally invariant grid construction     ... off

Total number of grid points                  ...     7832
Total number of batches                      ...      126
Average number of points per batch           ...       62
Average number of grid points per atom       ...      712
UseSFitting                                  ... on

GRIDX 2
-------
General Integration Accuracy     IntAcc      ... 4.020
Radial Grid Type                 RadialGrid  ... OptM3 with GC (2021)
Angular Grid (max. ang.)         AngularGrid ... 2 (Lebedev-110)
Angular grid pruning method      GridPruning ... 4 (adaptive)
Weight generation scheme         WeightScheme... Becke
Basis function cutoff            BFCut       ... 1.0000e-10
Integration weight cutoff        WCut        ... 1.0000e-14
Angular grids for H and He will be reduced by one unit
Partially contracted basis set               ... on
Rotationally invariant grid construction     ... off

Total number of grid points                  ...    17744
Total number of batches                      ...      283
Average number of points per batch           ...       62
Average number of grid points per atom       ...     1613
UseSFitting                                  ... on

GRIDX 3
-------
General Integration Accuracy     IntAcc      ... 4.338
Radial Grid Type                 RadialGrid  ... OptM3 with GC (2021)
Angular Grid (max. ang.)         AngularGrid ... 3 (Lebedev-194)
Angular grid pruning method      GridPruning ... 4 (adaptive)
Weight generation scheme         WeightScheme... Becke
Basis function cutoff            BFCut       ... 1.0000e-10
Integration weight cutoff        WCut        ... 1.0000e-14
Angular grids for H and He will be reduced by one unit
Partially contracted basis set               ... on
Rotationally invariant grid construction     ... off

Total number of grid points                  ...    39378
Total number of batches                      ...      620
Average number of points per batch           ...       63
Average number of grid points per atom       ...     3580
UseSFitting                                  ... on

Time for X-Grid setup             =    0.391 sec

--------------
SCF ITERATIONS
--------------
ITER       Energy         Delta-E        Max-DP      RMS-DP      [F,P]     Damp
               ***  Starting incremental Fock matrix formation  ***
  0  -2920.7599279192   0.000000000000 0.09009926  0.00107585  0.2157714 0.7000
  1  -2920.8323032296  -0.072375310309 0.09248122  0.00090729  0.0961290 0.7000
                               ***Turning on DIIS***
  2  -2920.8598307556  -0.027527526010 0.13265752  0.00145458  0.0328157 0.0000
  3  -2920.9023215034  -0.042490747801 0.08098638  0.00076454  0.0479717 0.0000
  4  -2920.9133007086  -0.010979205247 0.02875227  0.00026897  0.0088981 0.0000
  5  -2920.9138875059  -0.000586797245 0.01046640  0.00009966  0.0036123 0.0000
                      *** Initiating the SOSCF procedure ***
                           *** Shutting down DIIS ***
                      *** Re-Reading the Fockian *** 
                      *** Removing any level shift *** 
ITER      Energy       Delta-E        Grad      Rot      Max-DP    RMS-DP
  6  -2920.91393316  -0.0000456559  0.000450  0.000450  0.002229  0.000040
               *** Restarting incremental Fock matrix formation ***
  7  -2920.91393423  -0.0000010687  0.000281  0.001176  0.001191  0.000019
  8  -2920.91392905   0.0000051833  0.000599  0.000872  0.000717  0.000012
  9  -2920.91393590  -0.0000068535  0.000035  0.000091  0.000148  0.000003
 10  -2920.91393589   0.0000000100  0.000044  0.000072  0.000088  0.000002
                  ***Gradient check signals convergence***
              ***Rediagonalizing the Fockian in SOSCF/NRSCF***

               *****************************************************
               *                     SUCCESS                       *
               *           SCF CONVERGED AFTER  11 CYCLES          *
               *****************************************************

Old exchange energy                            =    -26.648438368 Eh
New exchange energy                            =    -26.648451464 Eh
Exchange energy change after final integration =     -0.000013096 Eh
Total energy after final integration           =  -2920.913949017 Eh
Final COS-X integration done in                =     2.233 sec

----------------
TOTAL SCF ENERGY
----------------

Total Energy       :        -2920.91394902 Eh          -79482.10935 eV

Components:
Nuclear Repulsion  :          531.15600088 Eh           14453.48959 eV
Electronic Energy  :        -3452.06994990 Eh          -93935.59893 eV
One Electron Energy:        -5110.33792513 Eh         -139059.36458 eV
Two Electron Energy:         1658.26797523 Eh           45123.76565 eV
Max COSX asymmetry :            0.00000380 Eh               0.00010 eV

Virial components:
Potential Energy   :        -5836.86801954 Eh         -158829.25353 eV
Kinetic Energy     :         2915.95407052 Eh           79347.14419 eV
Virial Ratio       :            2.00170095


DFT components:
N(Alpha)           :       42.000001115455 electrons
N(Beta)            :       42.000001115455 electrons
N(Total)           :       84.000002230911 electrons
E(X)               :     -106.067156048797 Eh       
E(C)               :       -3.998380634291 Eh       
E(XC)              :     -110.065536683087 Eh       
DFET-embed. en.    :        0.000000000000 Eh       

---------------
SCF CONVERGENCE
---------------

  Last Energy change         ...   -3.0505e-08  Tolerance :   1.0000e-06
  Last MAX-Density change    ...    5.7732e-15  Tolerance :   1.0000e-05
  Last RMS-Density change    ...    4.3656e-17  Tolerance :   1.0000e-06
  Last Orbital Gradient      ...    8.6785e-06  Tolerance :   5.0000e-05
  Last Orbital Rotation      ...    1.9870e-05  Tolerance :   5.0000e-05

             **** THE GBW FILE WAS UPDATED (arbr_16_r2scan3c_nmr.gbw) ****
             **** DENSITY arbr_16_r2scan3c_nmr.scfp WAS UPDATED ****
             **** ENERGY FILE WAS UPDATED (arbr_16_r2scan3c_nmr.en.tmp) ****
             **** THE GBW FILE WAS UPDATED (arbr_16_r2scan3c_nmr.gbw) ****
             **** DENSITY arbr_16_r2scan3c_nmr.scfp WAS UPDATED ****
----------------
ORBITAL ENERGIES
----------------

  NO   OCC          E(Eh)            E(eV) 
   0   2.0000    -482.874325    -13139.6784 
   1   2.0000     -62.521774     -1701.3040 
   2   2.0000     -56.337259     -1533.0147 
   3   2.0000     -56.334764     -1532.9469 
   4   2.0000     -56.334734     -1532.9460 
   5   2.0000     -24.715595      -672.5455 
   6   2.0000     -14.338306      -390.1651 
   7   2.0000     -10.283959      -279.8408 
   8   2.0000     -10.253907      -279.0230 
   9   2.0000     -10.227265      -278.2980 
  10   2.0000     -10.226621      -278.2805 
  11   2.0000     -10.217142      -278.0226 
  12   2.0000      -8.712842      -237.0885 
  13   2.0000      -6.542377      -178.0271 
  14   2.0000      -6.531433      -177.7293 
  15   2.0000      -6.531013      -177.7179 
  16   2.0000      -2.657057       -72.3022 
  17   2.0000      -2.653939       -72.2173 
  18   2.0000      -2.653665       -72.2099 
  19   2.0000      -2.644622       -71.9638 
  20   2.0000      -2.644608       -71.9634 
  21   2.0000      -1.254811       -34.1451 
  22   2.0000      -0.975278       -26.5387 
  23   2.0000      -0.861027       -23.4297 
  24   2.0000      -0.811475       -22.0814 
  25   2.0000      -0.761125       -20.7113 
  26   2.0000      -0.668834       -18.1999 
  27   2.0000      -0.649788       -17.6816 
  28   2.0000      -0.564144       -15.3511 
  29   2.0000      -0.546895       -14.8818 
  30   2.0000      -0.535288       -14.5659 
  31   2.0000      -0.499362       -13.5883 
  32   2.0000      -0.453440       -12.3387 
  33   2.0000      -0.444133       -12.0855 
  34   2.0000      -0.431577       -11.7438 
  35   2.0000      -0.424841       -11.5605 
  36   2.0000      -0.400230       -10.8908 
  37   2.0000      -0.350790        -9.5455 
  38   2.0000      -0.310853        -8.4587 
  39   2.0000      -0.299411        -8.1474 
  40   2.0000      -0.282084        -7.6759 
  41   2.0000      -0.266679        -7.2567 
  42   0.0000      -0.057244        -1.5577 
  43   0.0000      -0.035692        -0.9712 
  44   0.0000      -0.015990        -0.4351 
  45   0.0000       0.060848         1.6557 
  46   0.0000       0.078744         2.1427 
  47   0.0000       0.083733         2.2785 
  48   0.0000       0.088456         2.4070 
  49   0.0000       0.105800         2.8790 
  50   0.0000       0.109094         2.9686 
  51   0.0000       0.130461         3.5500 
  52   0.0000       0.176431         4.8009 
  53   0.0000       0.191259         5.2044 
  54   0.0000       0.191454         5.2097 
  55   0.0000       0.206534         5.6201 
  56   0.0000       0.214957         5.8493 
  57   0.0000       0.219282         5.9670 
  58   0.0000       0.225530         6.1370 
  59   0.0000       0.227875         6.2008 
  60   0.0000       0.229710         6.2507 
  61   0.0000       0.261739         7.1223 
  62   0.0000       0.283028         7.7016 
  63   0.0000       0.286012         7.7828 
  64   0.0000       0.296915         8.0795 
  65   0.0000       0.305913         8.3243 
  66   0.0000       0.328687         8.9440 
  67   0.0000       0.333268         9.0687 
  68   0.0000       0.338257         9.2044 
  69   0.0000       0.349377         9.5070 
  70   0.0000       0.358399         9.7525 
  71   0.0000       0.375543        10.2190 
  72   0.0000       0.381668        10.3857 
  73   0.0000       0.392605        10.6833 
  74   0.0000       0.413477        11.2513 
  75   0.0000       0.419800        11.4233 
  76   0.0000       0.432238        11.7618 
  77   0.0000       0.451783        12.2936 
  78   0.0000       0.469650        12.7798 
  79   0.0000       0.481382        13.0991 
  80   0.0000       0.500391        13.6163 
  81   0.0000       0.519912        14.1475 
  82   0.0000       0.557915        15.1816 
  83   0.0000       0.567633        15.4461 
  84   0.0000       0.568982        15.4828 
  85   0.0000       0.606321        16.4988 
  86   0.0000       0.623769        16.9736 
  87   0.0000       0.633188        17.2299 
  88   0.0000       0.636899        17.3309 
  89   0.0000       0.650865        17.7109 
  90   0.0000       0.663233        18.0475 
  91   0.0000       0.665088        18.0980 
  92   0.0000       0.676835        18.4176 
  93   0.0000       0.711874        19.3711 
  94   0.0000       0.761051        20.7092 
  95   0.0000       0.764847        20.8125 
  96   0.0000       0.782639        21.2967 
  97   0.0000       0.786473        21.4010 
  98   0.0000       0.848871        23.0989 
  99   0.0000       0.853912        23.2361 
 100   0.0000       0.894711        24.3463 
 101   0.0000       0.900589        24.5063 
 102   0.0000       0.915725        24.9182 
 103   0.0000       0.934920        25.4405 
 104   0.0000       0.939732        25.5714 
 105   0.0000       0.997468        27.1425 
 106   0.0000       1.030646        28.0453 
 107   0.0000       1.040084        28.3021 
 108   0.0000       1.086757        29.5722 
 109   0.0000       1.094823        29.7916 
 110   0.0000       1.114181        30.3184 
 111   0.0000       1.139123        30.9971 
 112   0.0000       1.159483        31.5511 
 113   0.0000       1.185708        32.2648 
 114   0.0000       1.185731        32.2654 
 115   0.0000       1.241335        33.7785 
 116   0.0000       1.241388        33.7799 
 117   0.0000       1.298173        35.3251 
 118   0.0000       1.309436        35.6316 
 119   0.0000       1.330903        36.2157 
 120   0.0000       1.333583        36.2886 
 121   0.0000       1.346563        36.6418 
 122   0.0000       1.355102        36.8742 
 123   0.0000       1.367285        37.2057 
 124   0.0000       1.407127        38.2899 
 125   0.0000       1.419002        38.6130 
 126   0.0000       1.447562        39.3902 
 127   0.0000       1.461925        39.7810 
 128   0.0000       1.482520        40.3414 
 129   0.0000       1.504824        40.9483 
 130   0.0000       1.510912        41.1140 
 131   0.0000       1.521464        41.4011 
 132   0.0000       1.524361        41.4800 
 133   0.0000       1.542102        41.9627 
 134   0.0000       1.565502        42.5995 
 135   0.0000       1.581522        43.0354 
 136   0.0000       1.596426        43.4410 
 137   0.0000       1.601296        43.5735 
 138   0.0000       1.620245        44.0891 
 139   0.0000       1.649200        44.8770 
 140   0.0000       1.666307        45.3425 
 141   0.0000       1.677741        45.6537 
 142   0.0000       1.695846        46.1463 
 143   0.0000       1.702133        46.3174 
 144   0.0000       1.747089        47.5407 
 145   0.0000       1.769467        48.1496 
 146   0.0000       1.800851        49.0036 
 147   0.0000       1.819172        49.5022 
 148   0.0000       1.840949        50.0948 
 149   0.0000       1.864332        50.7310 
 150   0.0000       1.922327        52.3092 
 151   0.0000       1.924072        52.3567 
 152   0.0000       1.942145        52.8485 
 153   0.0000       1.966337        53.5068 
 154   0.0000       1.986385        54.0523 
 155   0.0000       2.001955        54.4760 
 156   0.0000       2.025022        55.1036 
 157   0.0000       2.080118        56.6029 
 158   0.0000       2.117317        57.6151 
 159   0.0000       2.147337        58.4320 
 160   0.0000       2.206386        60.0388 
 161   0.0000       2.216449        60.3127 
 162   0.0000       2.234774        60.8113 
 163   0.0000       2.282163        62.1008 
 164   0.0000       2.325436        63.2783 
 165   0.0000       2.380591        64.7792 
 166   0.0000       2.416243        65.7493 
 167   0.0000       2.435323        66.2685 
 168   0.0000       2.458736        66.9056 
 169   0.0000       2.467111        67.1335 
 170   0.0000       2.486988        67.6744 
 171   0.0000       2.532955        68.9252 
 172   0.0000       2.580297        70.2134 
 173   0.0000       2.627123        71.4877 
 174   0.0000       2.628186        71.5166 
 175   0.0000       2.635193        71.7072 
 176   0.0000       2.654141        72.2229 
 177   0.0000       2.686346        73.0992 
 178   0.0000       2.709576        73.7313 
 179   0.0000       2.715215        73.8848 
 180   0.0000       2.749391        74.8147 
 181   0.0000       2.802947        76.2721 
 182   0.0000       2.811802        76.5130 
 183   0.0000       2.831156        77.0397 
 184   0.0000       2.831855        77.0587 
 185   0.0000       2.848017        77.4985 
 186   0.0000       2.883166        78.4549 
 187   0.0000       2.896301        78.8124 
 188   0.0000       2.931054        79.7580 
 189   0.0000       2.938726        79.9668 
 190   0.0000       3.015188        82.0474 
 191   0.0000       3.028027        82.3968 
 192   0.0000       3.037881        82.6649 
 193   0.0000       3.081250        83.8451 
 194   0.0000       3.086480        83.9874 
 195   0.0000       3.107875        84.5696 
 196   0.0000       3.109615        84.6169 
 197   0.0000       3.113173        84.7138 
 198   0.0000       3.121604        84.9432 
 199   0.0000       3.150768        85.7368 
 200   0.0000       3.196948        86.9934 
 201   0.0000       3.222709        87.6944 
 202   0.0000       3.228042        87.8395 
 203   0.0000       3.259949        88.7077 
 204   0.0000       3.288028        89.4718 
 205   0.0000       3.302625        89.8690 
 206   0.0000       3.339416        90.8701 
 207   0.0000       3.355499        91.3078 
 208   0.0000       3.368365        91.6579 
 209   0.0000       3.380781        91.9957 
 210   0.0000       3.413418        92.8838 
 211   0.0000       3.430107        93.3379 
 212   0.0000       3.471276        94.4582 
 213   0.0000       3.484478        94.8175 
 214   0.0000       3.521029        95.8121 
 215   0.0000       3.546726        96.5113 
 216   0.0000       3.588631        97.6516 
 217   0.0000       3.633326        98.8678 
 218   0.0000       3.733274       101.5876 
 219   0.0000       3.739688       101.7621 
 220   0.0000       3.764657       102.4415 
 221   0.0000       3.786787       103.0437 
 222   0.0000       3.834886       104.3526 
 223   0.0000       3.940407       107.2239 
 224   0.0000       3.949410       107.4689 
 225   0.0000       3.984804       108.4320 
 226   0.0000       3.986910       108.4893 
 227   0.0000       3.996023       108.7373 
 228   0.0000       4.023213       109.4772 
 229   0.0000       4.055559       110.3574 
 230   0.0000       4.095121       111.4339 
 231   0.0000       4.097862       111.5085 
 232   0.0000       4.157945       113.1434 
 233   0.0000       4.177263       113.6691 
 234   0.0000       4.231518       115.1455 
 235   0.0000       4.287618       116.6720 
 236   0.0000       4.298753       116.9750 
 237   0.0000       4.341571       118.1401 
 238   0.0000       4.363647       118.7409 
 239   0.0000       4.371104       118.9438 
 240   0.0000       4.450947       121.1164 
 241   0.0000       4.483559       122.0039 
 242   0.0000       4.498172       122.4015 
 243   0.0000       4.517144       122.9177 
 244   0.0000       4.587097       124.8212 
 245   0.0000       4.610524       125.4587 
 246   0.0000       4.820073       131.1609 
 247   0.0000       4.840183       131.7081 
 248   0.0000       4.844575       131.8276 
 249   0.0000       4.893582       133.1611 
 250   0.0000       4.950929       134.7216 
 251   0.0000       5.002087       136.1137 
 252   0.0000       5.036608       137.0531 
 253   0.0000       5.060287       137.6974 
 254   0.0000       5.162151       140.4693 
 255   0.0000       5.239748       142.5808 
 256   0.0000       5.269145       143.3807 
 257   0.0000       5.396345       146.8420 
 258   0.0000       5.458774       148.5408 
 259   0.0000       5.553368       151.1148 
 260   0.0000       5.599676       152.3749 
 261   0.0000       5.749297       156.4463 
 262   0.0000       5.976155       162.6194 
 263   0.0000       6.840693       186.1447 
 264   0.0000       6.850170       186.4026 
 265   0.0000       6.964120       189.5033 
 266   0.0000       7.045557       191.7194 
 267   0.0000       7.226464       196.6421 
 268   0.0000       7.427049       202.1003 
 269   0.0000       7.574361       206.1088 
 270   0.0000       7.737384       210.5449 
 271   0.0000       8.316809       226.3119 
 272   0.0000       8.487883       230.9670 
 273   0.0000       8.731766       237.6034 
 274   0.0000       8.931494       243.0383 
 275   0.0000       8.963817       243.9179 
 276   0.0000      22.292195       606.6015 
 277   0.0000      22.675008       617.0183 
 278   0.0000      22.681423       617.1929 
 279   0.0000      22.814040       620.8016 
 280   0.0000      23.082438       628.1051 
 281   0.0000      32.348769       880.2548 
 282   0.0000      57.257257      1558.0492 

                    ********************************
                    * MULLIKEN POPULATION ANALYSIS *
                    ********************************

-----------------------
MULLIKEN ATOMIC CHARGES
-----------------------
   0 F :   -0.195960
   1 C :    0.308805
   2 C :   -0.094653
   3 N :   -0.194339
   4 C :   -0.078625
   5 C :    0.095237
   6 Br:   -0.049981
   7 C :   -0.222844
   8 H :    0.139130
   9 H :    0.140608
  10 H :    0.152624
Sum of atomic charges:   -0.0000000

--------------------------------
MULLIKEN REDUCED ORBITAL CHARGES
--------------------------------
  0 F s       :     3.917171  s :     3.917171
      pz      :     1.879902  p :     5.261866
      px      :     1.693813
      py      :     1.688151
      dz2     :     0.002029  d :     0.016235
      dxz     :     0.002083
      dyz     :     0.002155
      dx2y2   :     0.003581
      dxy     :     0.006386
      f0      :     0.000062  f :     0.000689
      f+1     :     0.000070
      f-1     :     0.000072
      f+2     :     0.000002
      f-2     :     0.000100
      f+3     :     0.000194
      f-3     :     0.000189
  1 C s       :     3.065276  s :     3.065276
      pz      :     0.952826  p :     2.434355
      px      :     0.746979
      py      :     0.734550
      dz2     :     0.007799  d :     0.173066
      dxz     :     0.034533
      dyz     :     0.031856
      dx2y2   :     0.058250
      dxy     :     0.040627
      f0      :     0.002711  f :     0.018499
      f+1     :     0.001002
      f-1     :     0.001023
      f+2     :     0.001103
      f-2     :     0.003130
      f+3     :     0.004707
      f-3     :     0.004823
  2 C s       :     3.207217  s :     3.207217
      pz      :     0.962685  p :     2.780868
      px      :     0.968600
      py      :     0.849582
      dz2     :     0.003050  d :     0.096029
      dxz     :     0.010545
      dyz     :     0.023620
      dx2y2   :     0.040073
      dxy     :     0.018740
      f0      :     0.001865  f :     0.010538
      f+1     :     0.000849
      f-1     :     0.000786
      f+2     :     0.000384
      f-2     :     0.001420
      f+3     :     0.002667
      f-3     :     0.002567
  3 N s       :     3.568858  s :     3.568858
      pz      :     1.078867  p :     3.557319
      px      :     1.015825
      py      :     1.462626
      dz2     :     0.005840  d :     0.064282
      dxz     :     0.014894
      dyz     :     0.010112
      dx2y2   :     0.015697
      dxy     :     0.017739
      f0      :     0.000634  f :     0.003881
      f+1     :     0.000289
      f-1     :     0.000209
      f+2     :     0.000399
      f-2     :     0.000569
      f+3     :     0.000841
      f-3     :     0.000940
  4 C s       :     3.194813  s :     3.194813
      pz      :     0.942107  p :     2.762416
      px      :     0.904955
      py      :     0.915353
      dz2     :     0.003421  d :     0.110794
      dxz     :     0.021032
      dyz     :     0.014262
      dx2y2   :     0.021805
      dxy     :     0.050274
      f0      :     0.001854  f :     0.010603
      f+1     :     0.001007
      f-1     :     0.000617
      f+2     :     0.001505
      f-2     :     0.000300
      f+3     :     0.002366
      f-3     :     0.002954
  5 C s       :     3.194227  s :     3.194227
      pz      :     0.980116  p :     2.552232
      px      :     0.746790
      py      :     0.825325
      dz2     :     0.008632  d :     0.148606
      dxz     :     0.025766
      dyz     :     0.022671
      dx2y2   :     0.053556
      dxy     :     0.037981
      f0      :     0.001874  f :     0.009699
      f+1     :     0.000897
      f-1     :     0.000503
      f+2     :     0.000780
      f-2     :     0.001071
      f+3     :     0.001891
      f-3     :     0.002683
  6 Brs       :     7.908839  s :     7.908839
      pz      :     5.928666  p :    17.078219
      px      :     5.206618
      py      :     5.942934
      dz2     :     2.006689  d :    10.055080
      dxz     :     2.018439
      dyz     :     2.001187
      dx2y2   :     2.018334
      dxy     :     2.010431
      f0      :     0.000840  f :     0.007843
      f+1     :     0.001503
      f-1     :     0.000157
      f+2     :     0.001049
      f-2     :     0.000215
      f+3     :     0.002266
      f-3     :     0.001812
  7 C s       :     3.242145  s :     3.242145
      pz      :     0.974878  p :     2.901618
      px      :     0.949018
      py      :     0.977722
      dz2     :     0.004392  d :     0.071518
      dxz     :     0.020710
      dyz     :     0.007695
      dx2y2   :     0.021336
      dxy     :     0.017385
      f0      :     0.001628  f :     0.007563
      f+1     :     0.000548
      f-1     :     0.000679
      f+2     :     0.000468
      f-2     :     0.000933
      f+3     :     0.001559
      f-3     :     0.001749
  8 H s       :     0.838909  s :     0.838909
      pz      :     0.004522  p :     0.021961
      px      :     0.013809
      py      :     0.003630
  9 H s       :     0.837329  s :     0.837329
      pz      :     0.004440  p :     0.022063
      px      :     0.007745
      py      :     0.009878
 10 H s       :     0.824799  s :     0.824799
      pz      :     0.004536  p :     0.022577
      px      :     0.004279
      py      :     0.013762


                     *******************************
                     * LOEWDIN POPULATION ANALYSIS *
                     *******************************

----------------------
LOEWDIN ATOMIC CHARGES
----------------------
   0 F :    0.205896
   1 C :   -0.274244
   2 C :   -0.185718
   3 N :    0.155634
   4 C :   -0.219765
   5 C :   -0.391466
   6 Br:    0.368328
   7 C :   -0.102544
   8 H :    0.144653
   9 H :    0.141512
  10 H :    0.157715

-------------------------------
LOEWDIN REDUCED ORBITAL CHARGES
-------------------------------
  0 F s       :     3.584623  s :     3.584623
      pz      :     1.810325  p :     5.176670
      px      :     1.685686
      py      :     1.680659
      dz2     :     0.003631  d :     0.031308
      dxz     :     0.004199
      dyz     :     0.004344
      dx2y2   :     0.007915
      dxy     :     0.011218
      f0      :     0.000158  f :     0.001504
      f+1     :     0.000132
      f-1     :     0.000136
      f+2     :     0.000004
      f-2     :     0.000253
      f+3     :     0.000415
      f-3     :     0.000407
  1 C s       :     2.727648  s :     2.727648
      pz      :     0.877992  p :     2.731811
      px      :     0.926712
      py      :     0.927106
      dz2     :     0.052458  d :     0.698793
      dxz     :     0.102215
      dyz     :     0.098963
      dx2y2   :     0.211256
      dxy     :     0.233902
      f0      :     0.007995  f :     0.115991
      f+1     :     0.008613
      f-1     :     0.008796
      f+2     :     0.007640
      f-2     :     0.018870
      f+3     :     0.031547
      f-3     :     0.032530
  2 C s       :     2.774885  s :     2.774885
      pz      :     0.883978  p :     2.879034
      px      :     0.978218
      py      :     1.016838
      dz2     :     0.033288  d :     0.469676
      dxz     :     0.022682
      dyz     :     0.078598
      dx2y2   :     0.210062
      dxy     :     0.125046
      f0      :     0.004460  f :     0.062123
      f+1     :     0.004340
      f-1     :     0.006029
      f+2     :     0.002894
      f-2     :     0.009634
      f+3     :     0.017442
      f-3     :     0.017324
  3 N s       :     3.038310  s :     3.038310
      pz      :     0.991189  p :     3.562270
      px      :     1.177492
      py      :     1.393590
      dz2     :     0.017936  d :     0.224830
      dxz     :     0.050614
      dyz     :     0.014227
      dx2y2   :     0.069559
      dxy     :     0.072494
      f0      :     0.001139  f :     0.018956
      f+1     :     0.002126
      f-1     :     0.000825
      f+2     :     0.001477
      f-2     :     0.002816
      f+3     :     0.004978
      f-3     :     0.005594
  4 C s       :     2.776697  s :     2.776697
      pz      :     0.876782  p :     2.889214
      px      :     0.985284
      py      :     1.027148
      dz2     :     0.033781  d :     0.491690
      dxz     :     0.060262
      dyz     :     0.042707
      dx2y2   :     0.122255
      dxy     :     0.232684
      f0      :     0.004405  f :     0.062164
      f+1     :     0.006099
      f-1     :     0.004229
      f+2     :     0.010371
      f-2     :     0.001912
      f+3     :     0.015238
      f-3     :     0.019909
  5 C s       :     2.789560  s :     2.789560
      pz      :     0.910094  p :     2.988034
      px      :     0.975127
      py      :     1.102814
      dz2     :     0.040632  d :     0.557714
      dxz     :     0.076781
      dyz     :     0.077799
      dx2y2   :     0.201185
      dxy     :     0.161317
      f0      :     0.003884  f :     0.056158
      f+1     :     0.004353
      f-1     :     0.004732
      f+2     :     0.005100
      f-2     :     0.007377
      f+3     :     0.013430
      f-3     :     0.017281
  6 Brs       :     7.582242  s :     7.582242
      pz      :     5.862369  p :    16.911977
      px      :     5.204448
      py      :     5.845160
      dz2     :     2.015407  d :    10.121731
      dxz     :     2.034586
      dyz     :     2.001969
      dx2y2   :     2.041808
      dxy     :     2.027961
      f0      :     0.001551  f :     0.015721
      f+1     :     0.002845
      f-1     :     0.000314
      f+2     :     0.002050
      f-2     :     0.000376
      f+3     :     0.004610
      f-3     :     0.003976
  7 C s       :     2.766385  s :     2.766385
      pz      :     0.879890  p :     2.926054
      px      :     1.045291
      py      :     1.000873
      dz2     :     0.028274  d :     0.364970
      dxz     :     0.070610
      dyz     :     0.019486
      dx2y2   :     0.136109
      dxy     :     0.110491
      f0      :     0.003506  f :     0.045134
      f+1     :     0.004662
      f-1     :     0.003642
      f+2     :     0.003614
      f-2     :     0.006801
      f+3     :     0.010760
      f-3     :     0.012150
  8 H s       :     0.796474  s :     0.796474
      pz      :     0.013010  p :     0.058873
      px      :     0.035272
      py      :     0.010591
  9 H s       :     0.799675  s :     0.799675
      pz      :     0.012856  p :     0.058813
      px      :     0.020313
      py      :     0.025644
 10 H s       :     0.782026  s :     0.782026
      pz      :     0.013184  p :     0.060260
      px      :     0.012186
      py      :     0.034889


                      *****************************
                      * MAYER POPULATION ANALYSIS *
                      *****************************

  NA   - Mulliken gross atomic population
  ZA   - Total nuclear charge
  QA   - Mulliken gross atomic charge
  VA   - Mayer's total valence
  BVA  - Mayer's bonded valence
  FA   - Mayer's free valence

  ATOM       NA         ZA         QA         VA         BVA        FA
  0 F      9.1960     9.0000    -0.1960     1.0973     1.0973     0.0000
  1 C      5.6912     6.0000     0.3088     3.9194     3.9194     0.0000
  2 C      6.0947     6.0000    -0.0947     3.9733     3.9733    -0.0000
  3 N      7.1943     7.0000    -0.1943     3.1155     3.1155    -0.0000
  4 C      6.0786     6.0000    -0.0786     3.9965     3.9965    -0.0000
  5 C      5.9048     6.0000     0.0952     3.8316     3.8316     0.0000
  6 Br    35.0500    35.0000    -0.0500     1.2151     1.2151     0.0000
  7 C      6.2228     6.0000    -0.2228     3.8757     3.8757    -0.0000
  8 H      0.8609     1.0000     0.1391     0.9714     0.9714     0.0000
  9 H      0.8594     1.0000     0.1406     0.9699     0.9699    -0.0000
 10 H      0.8474     1.0000     0.1526     0.9725     0.9725    -0.0000

  Mayer bond orders larger than 0.100000
B(  0-F ,  1-C ) :   1.0365 B(  1-C ,  2-C ) :   1.3598 B(  1-C ,  7-C ) :   1.4138 
B(  2-C ,  3-N ) :   1.4736 B(  2-C ,  8-H ) :   0.9719 B(  3-N ,  4-C ) :   1.4942 
B(  4-C ,  5-C ) :   1.3348 B(  4-C ,  9-H ) :   0.9748 B(  5-C ,  6-Br) :   1.0474 
B(  5-C ,  7-C ) :   1.3542 B(  7-C , 10-H ) :   0.9570 

-------
TIMINGS
-------

Total SCF time: 0 days 0 hours 0 min 16 sec 

Total time                  ....      16.496 sec
Sum of individual times     ....      16.128 sec  ( 97.8%)

Fock matrix formation       ....      14.604 sec  ( 88.5%)
  Split-RI-J                ....       1.586 sec  ( 10.9% of F)
  Chain of spheres X        ....      10.802 sec  ( 74.0% of F)
  XC integration            ....       2.051 sec  ( 14.0% of F)
    Basis function eval.    ....       0.301 sec  ( 14.7% of XC)
    Density eval.           ....       0.302 sec  ( 14.7% of XC)
    XC-Functional eval.     ....       0.053 sec  (  2.6% of XC)
    XC-Potential eval.      ....       0.457 sec  ( 22.3% of XC)
Diagonalization             ....       0.138 sec  (  0.8%)
Density matrix formation    ....       0.016 sec  (  0.1%)
Population analysis         ....       0.019 sec  (  0.1%)
Initial guess               ....       0.131 sec  (  0.8%)
Orbital Transformation      ....       0.000 sec  (  0.0%)
Orbital Orthonormalization  ....       0.000 sec  (  0.0%)
DIIS solution               ....       0.088 sec  (  0.5%)
SOSCF solution              ....       0.097 sec  (  0.6%)
Grid generation             ....       1.035 sec  (  6.3%)

Maximum memory used throughout the entire SCF-calculation: 74.2 MB

-------------------------   --------------------
FINAL SINGLE POINT ENERGY     -2920.913949016835
-------------------------   --------------------


                            ***************************************
                            *     ORCA property calculations      *
                            ***************************************

                                    ---------------------
                                    Active property flags
                                    ---------------------
   (+) Dipole Moment
   (+) Chemical Shifts
   (+) Nuclear properties (Hyperfine,Quadrupole)


------------------------------------------------------------------------------
                       ORCA ELECTRIC PROPERTIES CALCULATION
------------------------------------------------------------------------------

Dipole Moment Calculation                       ... on
Quadrupole Moment Calculation                   ... off
Polarizability Calculation                      ... off
GBWName                                         ... arbr_16_r2scan3c_nmr.gbw
Electron density                                ... arbr_16_r2scan3c_nmr.scfp
The origin for moment calculation is the CENTER OF MASS  = (-0.222489, -0.052776 -0.000000)

-------------
DIPOLE MOMENT
-------------
                                X             Y             Z
Electronic contribution:    -18.77330      -4.75727       0.00001
Nuclear contribution   :     18.68938       4.43370      -0.00001
                        -----------------------------------------
Total Dipole Moment    :     -0.08391      -0.32357      -0.00000
                        -----------------------------------------
Magnitude (a.u.)       :      0.33427
Magnitude (Debye)      :      0.84966



--------------------
Rotational spectrum 
--------------------
 
Rotational constants in cm-1:     0.115277     0.024902     0.020478 
Rotational constants in MHz :  3455.930250   746.550636   613.929485 

 Dipole components along the rotational axes: 
x,y,z [a.u.] :     0.082321    -0.323979    -0.000001 
x,y,z [Debye]:     0.209244    -0.823490    -0.000004 

 


           ************************************************************
           *        Program running with 16 parallel MPI-processes    *
           *              working on a common directory               *
           ************************************************************
------------------------------------------------------------------------------
                                ORCA EPR/NMR CALCULATION
------------------------------------------------------------------------------

GBWName                      ... arbr_16_r2scan3c_nmr.gbw
Electron density             ... arbr_16_r2scan3c_nmr.scfp
Spin density                 ... arbr_16_r2scan3c_nmr.scfr
Treatment of gauge           ... GIAO (approximations 1/2el = 0,0)
Details of the CP(SCF) procedure:
       Solver   = POPLE   
       MaxIter  =    64   
       Tolerance=    1.000e-03
       COSX Grid=     1   
       Op-0     =   0- 41 =>  42-282
Multiplicity                 ... 1
g-tensor                     ... 0
NMR chemical shifts          ... 1
NMR spin-spin couplings      ... 0
NMR spectrum                 ... 0
Number of nuclei for epr/nmr ... 11
   Nucleus:   0F 
       Hyperfine : Isotope=   19 I=   0.500 P= 502.220
       Quadrupole: Isotope=   19 I=   0.500 Q=   0.000
       Spin-Orbit: Zeff=   6.750
       Nuclear Spin-Spin: Gn=   0.000
       EPRNMR Input: 
       rho(0)=N f(grad)=N a(iso)=N a(dip)=N a(orb)=N sigma(nmr)=Y spin-spin(nmr)=all-N,DSO-N,PSO-N,FC-N,SD-N
   Nucleus:   1C 
       Hyperfine : Isotope=   13 I=   0.500 P= 134.188
       Quadrupole: Isotope=   13 I=   0.500 Q=   0.000
       Spin-Orbit: Zeff=   3.600
       Nuclear Spin-Spin: Gn=   0.000
       EPRNMR Input: 
       rho(0)=N f(grad)=N a(iso)=N a(dip)=N a(orb)=N sigma(nmr)=Y spin-spin(nmr)=all-N,DSO-N,PSO-N,FC-N,SD-N
   Nucleus:   2C 
       Hyperfine : Isotope=   13 I=   0.500 P= 134.188
       Quadrupole: Isotope=   13 I=   0.500 Q=   0.000
       Spin-Orbit: Zeff=   3.600
       Nuclear Spin-Spin: Gn=   0.000
       EPRNMR Input: 
       rho(0)=N f(grad)=N a(iso)=N a(dip)=N a(orb)=N sigma(nmr)=Y spin-spin(nmr)=all-N,DSO-N,PSO-N,FC-N,SD-N
   Nucleus:   3N 
       Hyperfine : Isotope=   14 I=   1.000 P=  38.571
       Quadrupole: Isotope=   14 I=   1.000 Q=   0.020
       Spin-Orbit: Zeff=   4.550
       Nuclear Spin-Spin: Gn=   0.000
       EPRNMR Input: 
       rho(0)=N f(grad)=N a(iso)=N a(dip)=N a(orb)=N sigma(nmr)=Y spin-spin(nmr)=all-N,DSO-N,PSO-N,FC-N,SD-N
   Nucleus:   4C 
       Hyperfine : Isotope=   13 I=   0.500 P= 134.188
       Quadrupole: Isotope=   13 I=   0.500 Q=   0.000
       Spin-Orbit: Zeff=   3.600
       Nuclear Spin-Spin: Gn=   0.000
       EPRNMR Input: 
       rho(0)=N f(grad)=N a(iso)=N a(dip)=N a(orb)=N sigma(nmr)=Y spin-spin(nmr)=all-N,DSO-N,PSO-N,FC-N,SD-N
   Nucleus:   5C 
       Hyperfine : Isotope=   13 I=   0.500 P= 134.188
       Quadrupole: Isotope=   13 I=   0.500 Q=   0.000
       Spin-Orbit: Zeff=   3.600
       Nuclear Spin-Spin: Gn=   0.000
       EPRNMR Input: 
       rho(0)=N f(grad)=N a(iso)=N a(dip)=N a(orb)=N sigma(nmr)=Y spin-spin(nmr)=all-N,DSO-N,PSO-N,FC-N,SD-N
   Nucleus:   6Br
       Hyperfine : Isotope=   79 I=   1.500 P= 134.140
       Quadrupole: Isotope=   79 I=   1.500 Q=   0.313
       Spin-Orbit: Zeff=  30.100
       Nuclear Spin-Spin: Gn=   0.000
       EPRNMR Input: 
       rho(0)=N f(grad)=N a(iso)=N a(dip)=N a(orb)=N sigma(nmr)=Y spin-spin(nmr)=all-N,DSO-N,PSO-N,FC-N,SD-N
   Nucleus:   7C 
       Hyperfine : Isotope=   13 I=   0.500 P= 134.188
       Quadrupole: Isotope=   13 I=   0.500 Q=   0.000
       Spin-Orbit: Zeff=   3.600
       Nuclear Spin-Spin: Gn=   0.000
       EPRNMR Input: 
       rho(0)=N f(grad)=N a(iso)=N a(dip)=N a(orb)=N sigma(nmr)=Y spin-spin(nmr)=all-N,DSO-N,PSO-N,FC-N,SD-N
   Nucleus:   8H 
       Hyperfine : Isotope=    1 I=   0.500 P= 533.552
       Quadrupole: Isotope=    2 I=   1.000 Q=   0.003
       Spin-Orbit: Zeff=   1.000
       Nuclear Spin-Spin: Gn=   0.000
       EPRNMR Input: 
       rho(0)=N f(grad)=N a(iso)=N a(dip)=N a(orb)=N sigma(nmr)=Y spin-spin(nmr)=all-N,DSO-N,PSO-N,FC-N,SD-N
   Nucleus:   9H 
       Hyperfine : Isotope=    1 I=   0.500 P= 533.552
       Quadrupole: Isotope=    2 I=   1.000 Q=   0.003
       Spin-Orbit: Zeff=   1.000
       Nuclear Spin-Spin: Gn=   0.000
       EPRNMR Input: 
       rho(0)=N f(grad)=N a(iso)=N a(dip)=N a(orb)=N sigma(nmr)=Y spin-spin(nmr)=all-N,DSO-N,PSO-N,FC-N,SD-N
   Nucleus:  10H 
       Hyperfine : Isotope=    1 I=   0.500 P= 533.552
       Quadrupole: Isotope=    2 I=   1.000 Q=   0.003
       Spin-Orbit: Zeff=   1.000
       Nuclear Spin-Spin: Gn=   0.000
       EPRNMR Input: 
       rho(0)=N f(grad)=N a(iso)=N a(dip)=N a(orb)=N sigma(nmr)=Y spin-spin(nmr)=all-N,DSO-N,PSO-N,FC-N,SD-N
Forming RHS of the CP-SCF equations         ... 
Calculating right hand sides for GIAO treatment        ... 
  Entering RightHandSide GIAO. ScalHFX=    0.2000 NeedHFX=1
     -> 1-electron GIAO integrals will be done analytically
     -> RIJCOSX used in SCF. Same chosen for GIAO calculation.
     Making grid for GIAO integrations   ...

GRID GIAO
---------

General Integration Accuracy     IntAcc      ... 4.388
Radial Grid Type                 RadialGrid  ... OptM3 with GC (2021)
Angular Grid (max. ang.)         AngularGrid ... 4 (Lebedev-302)
Angular grid pruning method      GridPruning ... 4 (adaptive)
Weight generation scheme         WeightScheme... Becke
Basis function cutoff            BFCut       ... 1.0000e-10
Integration weight cutoff        WCut        ... 1.0000e-14
Angular grids for H and He will be reduced by one unit
Partially contracted basis set               ... off
Rotationally invariant grid construction     ... off

Total number of grid points                  ...    63268
Total number of batches                      ...      994
Average number of points per batch           ...       63
Average number of grid points per atom       ...     5752

  One-electron GIAO integrals (SHARK)     ... done
  Calculating G(B)[P]                     ... (RI-J: SHARK-ok) (COSX-ok) (add-J+K:ok) => dG/dB done
  DFT XC-terms                            ... done
  Extracting occupied and virtual blocks  ... 
  Operator  0  NO=  42 NV= 241 
  Transforming and RHS contribution       ... done
  Adding eps_i * S(B)_ai terms            ... done
  Projecting overlap derivatives          ... done
  Building G[dS/dB_ij] (COSX)             ... done
  Transforming to MO basis                ... done
  Summing G[dS/dB_ij] into RHS contribs.  ... done

  GIAO profiling information: 
    Total GIAO time               ...       5.3 sec
       GIAO 1-electron integrals  ...       0.0 sec (  0.5%)
       GIAO G(dS/dB) terms        ...       0.5 sec (  9.1%)
       GIAO RI-J                  ...       0.8 sec ( 14.4%)
       GIAO COSX                  ...       1.5 sec ( 28.2%)
       GIAO XC-terms              ...       1.9 sec ( 36.5%)
       Right hand side assembly   ...       0.0 sec (  0.3%)

  GIAO right hand side done


------------------------------------------------------------------------------
                           ORCA CP-SCF CALCULATION
------------------------------------------------------------------------------

Input orbitals are from        ... arbr_16_r2scan3c_nmr.gbw
Input Perturbation             ... arbr_16_r2scan3c_nmr.pin.tmp
Wavefunction output            ... arbr_16_r2scan3c_nmr.pout.tmp
Perturbation mode              ... Imaginary perturbation
Solver                         ... POPLE
Max. number of iterations      ... 64
Convergence tolerance          ... 1.000e-03
Integral handling              ... Direct
DFT GridXC                     ... 1
COSX GridX                     ... 1
COSX IntAccX                   ... 3.067
COSX Algorithm                 ... Auto
Number of perturbations        ... 3
Number of operators            ... 1
Orbital ranges used for CP-SCF:
 Operator 0:  Orbitals   0... 41  to  42...282
Variables per perturbation     ... 10122
DFT calculation                         ... on
XC functional terms                     ... off
Hybrid DFT                              ... on
   Exchange mixing (SCF)                ...  0.200
   Exchange mixing (CP-SCF)             ...  0.200
   GGA exch. scaling(SCF)               ...  0.720
   GGA exch. scaling (CP-SCF)           ...  0.720
   GGA corr. scaling (SCF)              ...  0.810
   GGA corr. scaling (CP-SCF)           ...  0.810

CP-SCF GRID
-----------

General Integration Accuracy     IntAcc      ... 3.467
Radial Grid Type                 RadialGrid  ... OptM3 with GC (2021)
Angular Grid (max. ang.)         AngularGrid ... 1 (Lebedev-50)
Angular grid pruning method      GridPruning ... 4 (adaptive)
Weight generation scheme         WeightScheme... Becke
Basis function cutoff            BFCut       ... 1.0000e-10
Integration weight cutoff        WCut        ... 1.0000e-14
Angular grids for H and He will be reduced by one unit
Partially contracted basis set               ... off
Rotationally invariant grid construction     ... off

Total number of grid points                  ...    12192
Total number of batches                      ...      196
Average number of points per batch           ...       62
Average number of grid points per atom       ...     1108

CP-SCF GRIDX
------------

General Integration Accuracy     IntAcc      ... 3.067
Radial Grid Type                 RadialGrid  ... OptM3 with GC (2021)
Angular Grid (max. ang.)         AngularGrid ... 1 (Lebedev-50)
Angular grid pruning method      GridPruning ... 4 (adaptive)
Weight generation scheme         WeightScheme... Becke
Basis function cutoff            BFCut       ... 1.0000e-10
Integration weight cutoff        WCut        ... 1.0000e-14
Angular grids for H and He will be reduced by one unit
Partially contracted basis set               ... on
Rotationally invariant grid construction     ... off

Total number of grid points                  ...     4364
Total number of batches                      ...       74
Average number of points per batch           ...       58
Average number of grid points per atom       ...      397

Memory available               ... 3977.2 MB
Memory needed per perturbation ...   2.6 MB
Perturbations treated per batch... 3
Number of batches              ... 1
     CP-SCF ITERATION   0:   4.7942e-01 (   0.4 sec   0/  3 done)
     CP-SCF ITERATION   1:   1.9997e-02 (   0.4 sec   0/  3 done)
     CP-SCF ITERATION   2:   1.0998e-03 (   0.4 sec   1/  3 done)
     CP-SCF ITERATION   3:   8.5910e-05 (   0.4 sec   3/  3 done)
                    *** THE CP-SCF HAS CONVERGED ***

Forming final perturbed densities           ... done
Transforming perturbed density to AO basis  ... done

Magnetic field perturbation calculated in  7.206 sec

---------------
CHEMICAL SHIFTS
---------------

Note: using conversion factor for au to ppm alpha^2/2 =   26.625677252 
GIAO: Analytic para- and diamagnetic shielding integrals (SHARK)       ...done
 --------------
 Nucleus   0F :
 --------------

Diamagnetic contribution to the shielding tensor (ppm) : 
           476.689        -15.772         0.000
           -15.484        477.002        -0.000
            -0.001          0.000       457.443

Paramagnetic contribution to the shielding tensor (ppm): 
          -195.172        -19.693         0.000
            -7.725       -216.907         0.001
            -0.001          0.000       -91.411

Total shielding tensor (ppm): 
           281.517        -35.465         0.000
           -23.208        260.096         0.000
            -0.001          0.000       366.031


 Diagonalized sT*s matrix:
 
 sDSO           462.098          491.593          457.443  iso=     470.378
 sPSO          -222.515         -189.563          -91.411  iso=    -167.830
        ---------------  ---------------  ---------------
 Total          239.583          302.029          366.031  iso=     302.548

 --------------
 Nucleus   1C :
 --------------

Diamagnetic contribution to the shielding tensor (ppm) : 
           262.659         -2.877        -0.000
            -3.184        257.789        -0.000
            -0.001          0.000       220.588

Paramagnetic contribution to the shielding tensor (ppm): 
          -271.395         41.959        -0.000
            60.544       -288.023         0.001
             0.001         -0.000      -133.706

Total shielding tensor (ppm): 
            -8.736         39.083        -0.000
            57.359        -30.234         0.001
            -0.000          0.000        86.882


 Diagonalized sT*s matrix:
 
 sDSO           256.737          263.712          220.588  iso=     247.012
 sPSO          -231.492         -327.926         -133.706  iso=    -231.041
        ---------------  ---------------  ---------------
 Total           25.245          -64.214           86.882  iso=      15.971

 --------------
 Nucleus   2C :
 --------------

Diamagnetic contribution to the shielding tensor (ppm) : 
           257.857         -1.145        -0.000
            -2.724        269.068        -0.000
            -0.002         -0.000       240.308

Paramagnetic contribution to the shielding tensor (ppm): 
          -302.992        -19.331         0.001
            10.765       -235.163         0.000
             0.003          0.001      -101.424

Total shielding tensor (ppm): 
           -45.136        -20.476         0.001
             8.040         33.905         0.000
             0.002          0.000       138.884


 Diagonalized sT*s matrix:
 
 sDSO           266.570          260.355          240.308  iso=     255.744
 sPSO          -257.525         -280.631         -101.424  iso=    -213.193
        ---------------  ---------------  ---------------
 Total            9.045          -20.276          138.884  iso=      42.551

 --------------
 Nucleus   3N :
 --------------

Diamagnetic contribution to the shielding tensor (ppm) : 
           345.611        -10.183        -0.000
            -9.158        313.687         0.000
            -0.001         -0.000       299.946

Paramagnetic contribution to the shielding tensor (ppm): 
          -746.337         73.377         0.006
            76.787       -506.947        -0.001
             0.003          0.001       -24.390

Total shielding tensor (ppm): 
          -400.726         63.193         0.005
            67.629       -193.260        -0.001
             0.003          0.001       275.556


 Diagonalized sT*s matrix:
 
 sDSO           310.987          299.946          348.311  iso=     319.748
 sPSO          -485.349          -24.390         -767.934  iso=    -425.891
        ---------------  ---------------  ---------------
 Total         -174.362          275.556         -419.624  iso=    -106.143

 --------------
 Nucleus   4C :
 --------------

Diamagnetic contribution to the shielding tensor (ppm) : 
           263.530          8.095        -0.000
             7.882        263.977         0.000
             0.000         -0.001       237.623

Paramagnetic contribution to the shielding tensor (ppm): 
          -285.459         53.492         0.000
            34.549       -274.204        -0.000
             0.001          0.001      -112.323

Total shielding tensor (ppm): 
           -21.929         61.587         0.000
            42.432        -10.226        -0.000
             0.001         -0.000       125.300


 Diagonalized sT*s matrix:
 
 sDSO           270.939          256.569          237.623  iso=     255.043
 sPSO          -242.052         -317.610         -112.323  iso=    -223.995
        ---------------  ---------------  ---------------
 Total           28.886          -61.042          125.300  iso=      31.048

 --------------
 Nucleus   5C :
 --------------

Diamagnetic contribution to the shielding tensor (ppm) : 
           271.341          2.023        -0.000
             1.839        254.202         0.000
            -0.000         -0.000       228.277

Paramagnetic contribution to the shielding tensor (ppm): 
          -313.993        -21.329        -0.000
           -42.063       -217.752        -0.001
            -0.001         -0.000      -103.281

Total shielding tensor (ppm): 
           -42.652        -19.306        -0.000
           -40.224         36.450        -0.000
            -0.001         -0.000       124.997


 Diagonalized sT*s matrix:
 
 sDSO           257.034          268.509          228.277  iso=     251.274
 sPSO          -246.065         -285.680         -103.281  iso=    -211.675
        ---------------  ---------------  ---------------
 Total           10.969          -17.171          124.997  iso=      39.598

 --------------
 Nucleus   6Br:
 --------------

Diamagnetic contribution to the shielding tensor (ppm) : 
          3129.117          1.766        -0.000
             1.780       3119.566        -0.000
            -0.001          0.000      3126.225

Paramagnetic contribution to the shielding tensor (ppm): 
          -262.541        232.751        -0.001
           220.616      -1422.296        -0.001
            -0.001         -0.001     -1490.029

Total shielding tensor (ppm): 
          2866.577        234.516        -0.001
           222.396       1697.269        -0.001
            -0.002         -0.001      1636.196


 Diagonalized sT*s matrix:
 
 sDSO          3126.225         3119.248         3129.435  iso=    3124.969
 sPSO         -1490.029        -1465.027         -219.810  iso=   -1058.289
        ---------------  ---------------  ---------------
 Total         1636.196         1654.221         2909.624  iso=    2066.681

 --------------
 Nucleus   7C :
 --------------

Diamagnetic contribution to the shielding tensor (ppm) : 
           271.109         -7.289        -0.000
            -2.280        261.107        -0.000
            -0.000         -0.000       237.122

Paramagnetic contribution to the shielding tensor (ppm): 
          -232.521         -5.457         0.000
           -19.733       -285.605        -0.000
             0.000          0.000       -89.317

Total shielding tensor (ppm): 
            38.588        -12.746         0.000
           -22.014        -24.498        -0.000
             0.000         -0.000       147.805


 Diagonalized sT*s matrix:
 
 sDSO           261.496          270.720          237.122  iso=     256.446
 sPSO          -284.540         -233.586          -89.317  iso=    -202.481
        ---------------  ---------------  ---------------
 Total          -23.044           37.134          147.805  iso=      53.965

 --------------
 Nucleus   8H :
 --------------

Diamagnetic contribution to the shielding tensor (ppm) : 
            42.378          4.270        -0.000
             4.133         27.907        -0.000
            -0.001          0.000        17.345

Paramagnetic contribution to the shielding tensor (ppm): 
           -20.045         -3.424        -0.000
            -3.966         -0.524         0.000
             0.001         -0.000         2.991

Total shielding tensor (ppm): 
            22.333          0.847        -0.000
             0.167         27.383        -0.000
             0.000          0.000        20.336


 Diagonalized sT*s matrix:
 
 sDSO            17.345           41.485           28.801  iso=      29.210
 sPSO             2.991          -19.202           -1.367  iso=      -5.859
        ---------------  ---------------  ---------------
 Total           20.336           22.283           27.433  iso=      23.351

 --------------
 Nucleus   9H :
 --------------

Diamagnetic contribution to the shielding tensor (ppm) : 
            33.815         -6.154         0.000
            -6.313         37.512        -0.000
             0.000         -0.000        21.615

Paramagnetic contribution to the shielding tensor (ppm): 
            -9.999         10.238        -0.000
            10.716        -10.392         0.000
            -0.000          0.000        -2.868

Total shielding tensor (ppm): 
            23.816          4.085        -0.000
             4.403         27.120         0.000
             0.000         -0.000        18.747


 Diagonalized sT*s matrix:
 
 sDSO            21.615           40.827           30.501  iso=      30.981
 sPSO            -2.868          -19.912           -0.479  iso=      -7.753
        ---------------  ---------------  ---------------
 Total           18.747           20.914           30.022  iso=      23.228

 --------------
 Nucleus  10H :
 --------------

Diamagnetic contribution to the shielding tensor (ppm) : 
            30.370          1.661        -0.000
             2.413         40.886         0.000
            -0.000         -0.000        23.325

Paramagnetic contribution to the shielding tensor (ppm): 
            -0.828         -4.586         0.000
            -5.000        -17.826        -0.000
             0.000          0.000        -2.825

Total shielding tensor (ppm): 
            29.543         -2.924        -0.000
            -2.588         23.060        -0.000
             0.000         -0.000        20.500


 Diagonalized sT*s matrix:
 
 sDSO            23.325           40.941           30.315  iso=      31.527
 sPSO            -2.825          -18.894            0.241  iso=      -7.159
        ---------------  ---------------  ---------------
 Total           20.500           22.047           30.556  iso=      24.367



--------------------------------
CHEMICAL SHIELDING SUMMARY (ppm)
--------------------------------


  Nucleus  Element    Isotropic     Anisotropy
  -------  -------  ------------   ------------
      0       F          302.548         95.225 
      1       C           15.971        106.367 
      2       C           42.551        144.500 
      3       N         -106.143       -470.220 
      4       C           31.048        141.378 
      5       C           39.598        128.098 
      6       Br        2066.681       1264.416 
      7       C           53.965        140.760 
      8       H           23.351          6.124 
      9       H           23.228         10.191 
     10       H           24.367          9.282 



Maximum memory used throughout the entire EPRNMR-calculation: 36.4 MB

Timings for individual modules:

Sum of individual times         ...       25.772 sec (=   0.430 min)
GTO integral calculation        ...        0.784 sec (=   0.013 min)   3.0 %
SCF iterations                  ...       16.876 sec (=   0.281 min)  65.5 %
EPR/NMR calculation             ...        8.112 sec (=   0.135 min)  31.5 %
                             ****ORCA TERMINATED NORMALLY****
TOTAL RUN TIME: 0 days 0 hours 0 minutes 26 seconds 345 msec
