
                                 *****************
                                 * O   R   C   A *
                                 *****************

                                            #,                                       
                                            ###                                      
                                            ####                                     
                                            #####                                    
                                            ######                                   
                                           ########,                                 
                                     ,,################,,,,,                         
                               ,,#################################,,                 
                          ,,##########################################,,             
                       ,#########################################, ''#####,          
                    ,#############################################,,   '####,        
                  ,##################################################,,,,####,       
                ,###########''''           ''''###############################       
              ,#####''   ,,,,##########,,,,          '''####'''          '####       
            ,##' ,,,,###########################,,,                        '##       
           ' ,,###''''                  '''############,,,                           
         ,,##''                                '''############,,,,        ,,,,,,###''
      ,#''                                            '''#######################'''  
     '                                                          ''''####''''         
             ,#######,   #######,   ,#######,      ##                                
            ,#'     '#,  ##    ##  ,#'     '#,    #''#        ######   ,####,        
            ##       ##  ##   ,#'  ##            #'  '#       #        #'  '#        
            ##       ##  #######   ##           ,######,      #####,   #    #        
            '#,     ,#'  ##    ##  '#,     ,#' ,#      #,         ##   #,  ,#        
             '#######'   ##     ##  '#######'  #'      '#     #####' # '####'        



                  #######################################################
                  #                        -***-                        #
                  #          Department of theory and spectroscopy      #
                  #    Directorship and core code : Frank Neese         #
                  #        Max Planck Institute fuer Kohlenforschung    #
                  #                Kaiser Wilhelm Platz 1               #
                  #                 D-45470 Muelheim/Ruhr               #
                  #                      Germany                        #
                  #                                                     #
                  #                  All rights reserved                #
                  #                        -***-                        #
                  #######################################################


                         Program Version 5.0.4 -  RELEASE  -


 With contributions from (in alphabetic order):
   Daniel Aravena         : Magnetic Suceptibility
   Michael Atanasov       : Ab Initio Ligand Field Theory (pilot matlab implementation)
   Alexander A. Auer      : GIAO ZORA, VPT2 properties, NMR spectrum
   Ute Becker             : Parallelization
   Giovanni Bistoni       : ED, misc. LED, open-shell LED, HFLD
   Martin Brehm           : Molecular dynamics
   Dmytro Bykov           : SCF Hessian
   Vijay G. Chilkuri      : MRCI spin determinant printing, contributions to CSF-ICE
   Dipayan Datta          : RHF DLPNO-CCSD density
   Achintya Kumar Dutta   : EOM-CC, STEOM-CC
   Dmitry Ganyushin       : Spin-Orbit,Spin-Spin,Magnetic field MRCI
   Miquel Garcia          : C-PCM and meta-GGA Hessian, CC/C-PCM, Gaussian charge scheme
   Yang Guo               : DLPNO-NEVPT2, F12-NEVPT2, CIM, IAO-localization
   Andreas Hansen         : Spin unrestricted coupled pair/coupled cluster methods
   Benjamin Helmich-Paris : MC-RPA, TRAH-SCF, COSX integrals
   Lee Huntington         : MR-EOM, pCC
   Robert Izsak           : Overlap fitted RIJCOSX, COSX-SCS-MP3, EOM
   Marcus Kettner         : VPT2
   Christian Kollmar      : KDIIS, OOCD, Brueckner-CCSD(T), CCSD density, CASPT2, CASPT2-K
   Simone Kossmann        : Meta GGA functionals, TD-DFT gradient, OOMP2, MP2 Hessian
   Martin Krupicka        : Initial AUTO-CI
   Lucas Lang             : DCDCAS
   Marvin Lechner         : AUTO-CI (C++ implementation), FIC-MRCC
   Dagmar Lenk            : GEPOL surface, SMD
   Dimitrios Liakos       : Extrapolation schemes; Compound Job, initial MDCI parallelization
   Dimitrios Manganas     : Further ROCIS development; embedding schemes
   Dimitrios Pantazis     : SARC Basis sets
   Anastasios Papadopoulos: AUTO-CI, single reference methods and gradients
   Taras Petrenko         : DFT Hessian,TD-DFT gradient, ASA, ECA, R-Raman, ABS, FL, XAS/XES, NRVS
   Peter Pinski           : DLPNO-MP2, DLPNO-MP2 Gradient
   Christoph Reimann      : Effective Core Potentials
   Marius Retegan         : Local ZFS, SOC
   Christoph Riplinger    : Optimizer, TS searches, QM/MM, DLPNO-CCSD(T), (RO)-DLPNO pert. Triples
   Tobias Risthaus        : Range-separated hybrids, TD-DFT gradient, RPA, STAB
   Michael Roemelt        : Original ROCIS implementation
   Masaaki Saitow         : Open-shell DLPNO-CCSD energy and density
   Barbara Sandhoefer     : DKH picture change effects
   Avijit Sen             : IP-ROCIS
   Kantharuban Sivalingam : CASSCF convergence, NEVPT2, FIC-MRCI
   Bernardo de Souza      : ESD, SOC TD-DFT
   Georgi Stoychev        : AutoAux, RI-MP2 NMR, DLPNO-MP2 response
   Willem Van den Heuvel  : Paramagnetic NMR
   Boris Wezisla          : Elementary symmetry handling
   Frank Wennmohs         : Technical directorship


 We gratefully acknowledge several colleagues who have allowed us to
 interface, adapt or use parts of their codes:
   Stefan Grimme, W. Hujo, H. Kruse, P. Pracht,  : VdW corrections, initial TS optimization,
                  C. Bannwarth, S. Ehlert          DFT functionals, gCP, sTDA/sTD-DF
   Ed Valeev, F. Pavosevic, A. Kumar             : LibInt (2-el integral package), F12 methods
   Garnet Chan, S. Sharma, J. Yang, R. Olivares  : DMRG
   Ulf Ekstrom                                   : XCFun DFT Library
   Mihaly Kallay                                 : mrcc  (arbitrary order and MRCC methods)
   Jiri Pittner, Ondrej Demel                    : Mk-CCSD
   Frank Weinhold                                : gennbo (NPA and NBO analysis)
   Christopher J. Cramer and Donald G. Truhlar   : smd solvation model
   Lars Goerigk                                  : TD-DFT with DH, B97 family of functionals
   V. Asgeirsson, H. Jonsson                     : NEB implementation
   FAccTs GmbH                                   : IRC, NEB, NEB-TS, DLPNO-Multilevel, CI-OPT
                                                   MM, QMMM, 2- and 3-layer-ONIOM, Crystal-QMMM,
                                                   LR-CPCM, SF, NACMEs, symmetry and pop. for TD-DFT,
                                                   nearIR, NL-DFT gradient (VV10), updates on ESD,
                                                   ML-optimized integration grids
   S Lehtola, MJT Oliveira, MAL Marques          : LibXC Library
   Liviu Ungur et al                             : ANISO software


 Your calculation uses the libint2 library for the computation of 2-el integrals
 For citations please refer to: http://libint.valeyev.net

 Your ORCA version has been built with support for libXC version: 5.1.0
 For citations please refer to: https://tddft.org/programs/libxc/

 This ORCA versions uses:
   CBLAS   interface :  Fast vector & matrix operations
   LAPACKE interface :  Fast linear algebra routines
   SCALAPACK package :  Parallel linear algebra routines
   Shared memory     :  Shared parallel matrices
   BLAS/LAPACK       :  OpenBLAS 0.3.15  USE64BITINT DYNAMIC_ARCH NO_AFFINITY SkylakeX SINGLE_THREADED
        Core in use  :  SkylakeX
   Copyright (c) 2011-2014, The OpenBLAS Project



Information: The global flag for chemical shieldings has been found
             ==>> will calculate the chemical shieldings for all atoms in the system

================================================================================

----- Orbital basis set information -----
Your calculation utilizes the basis: def2-TZVP
   F. Weigend and R. Ahlrichs, Phys. Chem. Chem. Phys. 7, 3297 (2005).

----- AuxJ basis set information -----
Your calculation utilizes the auxiliary basis: def2/J
   F. Weigend, Phys. Chem. Chem. Phys. 8, 1057 (2006).

================================================================================
                                        WARNINGS
                       Please study these warnings very carefully!
================================================================================


INFO   : the flag for use of the SHARK integral package has been found!

================================================================================
                                       INPUT FILE
================================================================================
NAME = arbr_11_r2scan3c_nmr.inp
|  1> %PAL NPROCS 16 END
|  2> %maxcore 4000
|  3> # arbr_11_r2scan3c.out
|  4> ! NMR B3LYP def2-tzvp 
|  5> * xyz 0 1
|  6>    C        5.91290        -1.98854        -0.00002
|  7>    C        5.41014        -0.56644         0.00001
|  8>    O        3.97513        -0.61696         0.00001
|  9>    C        3.35720         0.56217         0.00003
| 10>    O        3.92016         1.62859         0.00002
| 11>    C        1.89453         0.43421         0.00000
| 12>    C        1.07323        -0.65834        -0.00002
| 13>    C       -0.26283        -0.15814        -0.00001
| 14>    C       -1.52489        -0.77109         0.00000
| 15>    C       -2.63261         0.03857         0.00000
| 16>   Br       -4.36033        -0.74801         0.00001
| 17>    C       -2.54183         1.44258        -0.00001
| 18>    C       -1.31449         2.06348        -0.00001
| 19>    C       -0.17631         1.25388        -0.00001
| 20>    N        1.14721         1.58431        -0.00002
| 21>    H        5.56448        -2.52018         0.88481
| 22>    H        7.00268        -1.99283        -0.00002
| 23>    H        5.56447        -2.52015        -0.88485
| 24>    H        5.73818        -0.01372         0.88118
| 25>    H        5.73818        -0.01370        -0.88116
| 26>    H        1.39652        -1.68519        -0.00002
| 27>    H       -1.62406        -1.84771         0.00000
| 28>    H       -3.44914         2.02978        -0.00001
| 29>    H       -1.24010         3.14285        -0.00002
| 30>    H        1.55745         2.50391        -0.00002
| 31> *
| 32> 
| 33>                          ****END OF INPUT****
================================================================================

                       ****************************
                       * Single Point Calculation *
                       ****************************

---------------------------------
CARTESIAN COORDINATES (ANGSTROEM)
---------------------------------
  C      5.912900   -1.988540   -0.000020
  C      5.410140   -0.566440    0.000010
  O      3.975130   -0.616960    0.000010
  C      3.357200    0.562170    0.000030
  O      3.920160    1.628590    0.000020
  C      1.894530    0.434210    0.000000
  C      1.073230   -0.658340   -0.000020
  C     -0.262830   -0.158140   -0.000010
  C     -1.524890   -0.771090    0.000000
  C     -2.632610    0.038570    0.000000
  Br    -4.360330   -0.748010    0.000010
  C     -2.541830    1.442580   -0.000010
  C     -1.314490    2.063480   -0.000010
  C     -0.176310    1.253880   -0.000010
  N      1.147210    1.584310   -0.000020
  H      5.564480   -2.520180    0.884810
  H      7.002680   -1.992830   -0.000020
  H      5.564470   -2.520150   -0.884850
  H      5.738180   -0.013720    0.881180
  H      5.738180   -0.013700   -0.881160
  H      1.396520   -1.685190   -0.000020
  H     -1.624060   -1.847710    0.000000
  H     -3.449140    2.029780   -0.000010
  H     -1.240100    3.142850   -0.000020
  H      1.557450    2.503910   -0.000020

----------------------------
CARTESIAN COORDINATES (A.U.)
----------------------------
  NO LB      ZA    FRAG     MASS         X           Y           Z
   0 C     6.0000    0    12.011   11.173762   -3.757796   -0.000038
   1 C     6.0000    0    12.011   10.223683   -1.070416    0.000019
   2 O     8.0000    0    15.999    7.511907   -1.165885    0.000019
   3 C     6.0000    0    12.011    6.344189    1.062347    0.000057
   4 O     8.0000    0    15.999    7.408029    3.077589    0.000038
   5 C     6.0000    0    12.011    3.580143    0.820538    0.000000
   6 C     6.0000    0    12.011    2.028111   -1.244082   -0.000038
   7 C     6.0000    0    12.011   -0.496677   -0.298841   -0.000019
   8 C     6.0000    0    12.011   -2.881624   -1.457149    0.000000
   9 C     6.0000    0    12.011   -4.974912    0.072887    0.000000
  10 Br   35.0000    0    79.900   -8.239830   -1.413534    0.000019
  11 C     6.0000    0    12.011   -4.803363    2.726081   -0.000019
  12 C     6.0000    0    12.011   -2.484026    3.899412   -0.000019
  13 C     6.0000    0    12.011   -0.333178    2.369490   -0.000019
  14 N     7.0000    0    14.007    2.167913    2.993912   -0.000038
  15 H     1.0000    0     1.008   10.515343   -4.762450    1.672049
  16 H     1.0000    0     1.008   13.233147   -3.765903   -0.000038
  17 H     1.0000    0     1.008   10.515324   -4.762393   -1.672124
  18 H     1.0000    0     1.008   10.843589   -0.025927    1.665189
  19 H     1.0000    0     1.008   10.843589   -0.025889   -1.665151
  20 H     1.0000    0     1.008    2.639040   -3.184548   -0.000038
  21 H     1.0000    0     1.008   -3.069029   -3.491666    0.000000
  22 H     1.0000    0     1.008   -6.517930    3.835728   -0.000019
  23 H     1.0000    0     1.008   -2.343449    5.939126   -0.000038
  24 H     1.0000    0     1.008    2.943154    4.731704   -0.000038

--------------------------------
INTERNAL COORDINATES (ANGSTROEM)
--------------------------------
 C      0   0   0     0.000000000000     0.00000000     0.00000000
 C      1   0   0     1.508355405234     0.00000000     0.00000000
 O      2   1   0     1.435899011247   107.45392388     0.00000000
 C      3   2   1     1.331234405430   115.64076593   180.00023975
 O      4   3   2     1.205892025888   124.51350772     0.00000000
 C      4   3   2     1.468256548223   112.65732379   179.99878526
 C      6   4   3     1.366820834235   131.93292156     0.00000000
 C      7   6   4     1.426624114369   106.40807997   179.99851390
 C      8   7   6     1.403033551345   133.57023427   180.00117382
 C      9   8   7     1.372076132727   117.93135479   180.00038234
 Br    10   9   8     1.898347832959   119.35762966   179.99988408
 C     10   9   8     1.406941750251   122.46453348     0.00000000
 C     12  10   9     1.375456391748   120.53388967     0.00000000
 C     13  12  10     1.396748321066   117.74090922     0.00000000
 N     14  13  12     1.364144118266   130.55743028   179.99944717
 H      1   2   3     1.089477725748   110.69906504   299.74835637
 H      1   2   3     1.089788443919   109.69575588   180.00004963
 H      1   2   3     1.089466284884   110.69949363    60.25052761
 H      2   1   3     1.090674199246   112.18228724   119.25221327
 H      2   1   3     1.090684334764   112.18115139   240.74862744
 H      7   6   4     1.076539523938   125.59089284     0.00000000
 H      9   8   7     1.081177743620   121.16744847     0.00000000
 H     12  10   9     1.080747554288   119.21099181   179.99996863
 H     13  12  10     1.081930436350   120.77700938   179.99985642
 H     15  14  13     1.006956313650   128.05989209     0.00000000

---------------------------
INTERNAL COORDINATES (A.U.)
---------------------------
 C      0   0   0     0.000000000000     0.00000000     0.00000000
 C      1   0   0     2.850378628513     0.00000000     0.00000000
 O      2   1   0     2.713455887225   107.45392388     0.00000000
 C      3   2   1     2.515668446316   115.64076593   180.00023975
 O      4   3   2     2.278805676008   124.51350772     0.00000000
 C      4   3   2     2.774602770478   112.65732379   179.99878526
 C      6   4   3     2.582917050843   131.93292156     0.00000000
 C      7   6   4     2.695928872206   106.40807997   179.99851390
 C      8   7   6     2.651349168745   133.57023427   180.00117382
 C      9   8   7     2.592848125744   117.93135479   180.00038234
 Br    10   9   8     3.587357511215   119.35762966   179.99988408
 C     10   9   8     2.658734594355   122.46453348     0.00000000
 C     12  10   9     2.599235889555   120.53388967     0.00000000
 C     13  12  10     2.639471804829   117.74090922     0.00000000
 N     14  13  12     2.577858790722   130.55743028   179.99944717
 H      1   2   3     2.058814530670   110.69906504   299.74835637
 H      1   2   3     2.059401702920   109.69575588   180.00004963
 H      1   2   3     2.058792910572   110.69949363    60.25052761
 H      2   1   3     2.061075537908   112.18228724   119.25221327
 H      2   1   3     2.061094691262   112.18115139   240.74862744
 H      7   6   4     2.034364872584   125.59089284     0.00000000
 H      9   8   7     2.043129837533   121.16744847     0.00000000
 H     12  10   9     2.042316897510   119.21099181   179.99996863
 H     13  12  10     2.044552220655   120.77700938   179.99985642
 H     15  14  13     1.902871661622   128.05989209     0.00000000

---------------------
BASIS SET INFORMATION
---------------------
There are 5 groups of distinct atoms

 Group   1 Type C   : 11s6p2d1f contracted to 5s3p2d1f pattern {62111/411/11/1}
 Group   2 Type O   : 11s6p2d1f contracted to 5s3p2d1f pattern {62111/411/11/1}
 Group   3 Type Br  : 17s13p8d1f contracted to 6s5p4d1f pattern {842111/64111/5111/1}
 Group   4 Type N   : 11s6p2d1f contracted to 5s3p2d1f pattern {62111/411/11/1}
 Group   5 Type H   : 5s1p contracted to 3s1p pattern {311/1}

Atom   0C    basis set group =>   1
Atom   1C    basis set group =>   1
Atom   2O    basis set group =>   2
Atom   3C    basis set group =>   1
Atom   4O    basis set group =>   2
Atom   5C    basis set group =>   1
Atom   6C    basis set group =>   1
Atom   7C    basis set group =>   1
Atom   8C    basis set group =>   1
Atom   9C    basis set group =>   1
Atom  10Br   basis set group =>   3
Atom  11C    basis set group =>   1
Atom  12C    basis set group =>   1
Atom  13C    basis set group =>   1
Atom  14N    basis set group =>   4
Atom  15H    basis set group =>   5
Atom  16H    basis set group =>   5
Atom  17H    basis set group =>   5
Atom  18H    basis set group =>   5
Atom  19H    basis set group =>   5
Atom  20H    basis set group =>   5
Atom  21H    basis set group =>   5
Atom  22H    basis set group =>   5
Atom  23H    basis set group =>   5
Atom  24H    basis set group =>   5
---------------------------------
AUXILIARY/J BASIS SET INFORMATION
---------------------------------
There are 5 groups of distinct atoms

 Group   1 Type C   : 12s5p4d2f1g contracted to 6s4p3d1f1g pattern {711111/2111/211/2/1}
 Group   2 Type O   : 12s5p4d2f1g contracted to 6s4p3d1f1g pattern {711111/2111/211/2/1}
 Group   3 Type Br  : 19s5p5d3f1g contracted to 8s4p3d2f1g pattern {121111111/2111/311/21/1}
 Group   4 Type N   : 12s5p4d2f1g contracted to 6s4p3d1f1g pattern {711111/2111/211/2/1}
 Group   5 Type H   : 5s2p1d contracted to 3s1p1d pattern {311/2/1}

Atom   0C    basis set group =>   1
Atom   1C    basis set group =>   1
Atom   2O    basis set group =>   2
Atom   3C    basis set group =>   1
Atom   4O    basis set group =>   2
Atom   5C    basis set group =>   1
Atom   6C    basis set group =>   1
Atom   7C    basis set group =>   1
Atom   8C    basis set group =>   1
Atom   9C    basis set group =>   1
Atom  10Br   basis set group =>   3
Atom  11C    basis set group =>   1
Atom  12C    basis set group =>   1
Atom  13C    basis set group =>   1
Atom  14N    basis set group =>   4
Atom  15H    basis set group =>   5
Atom  16H    basis set group =>   5
Atom  17H    basis set group =>   5
Atom  18H    basis set group =>   5
Atom  19H    basis set group =>   5
Atom  20H    basis set group =>   5
Atom  21H    basis set group =>   5
Atom  22H    basis set group =>   5
Atom  23H    basis set group =>   5
Atom  24H    basis set group =>   5


           ************************************************************
           *        Program running with 16 parallel MPI-processes    *
           *              working on a common directory               *
           ************************************************************
------------------------------------------------------------------------------
                           ORCA GTO INTEGRAL CALCULATION
                           -- RI-GTO INTEGRALS CHOSEN --
------------------------------------------------------------------------------
------------------------------------------------------------------------------
                   ___                                                        
                  /   \      - P O W E R E D   B Y -                         
                 /     \                                                     
                 |  |  |   _    _      __       _____    __    __             
                 |  |  |  | |  | |    /  \     |  _  \  |  |  /  |          
                  \  \/   | |  | |   /    \    | | | |  |  | /  /          
                 / \  \   | |__| |  /  /\  \   | |_| |  |  |/  /          
                |  |  |   |  __  | /  /__\  \  |    /   |      \           
                |  |  |   | |  | | |   __   |  |    \   |  |\   \          
                \     /   | |  | | |  |  |  |  | |\  \  |  | \   \       
                 \___/    |_|  |_| |__|  |__|  |_| \__\ |__|  \__/        
                                                                              
                      - O R C A' S   B I G   F R I E N D -                    
                                      &                                       
                       - I N T E G R A L  F E E D E R -                       
                                                                              
 v1 FN, 2020, v2 2021                                                         
------------------------------------------------------------------------------


Reading SHARK input file arbr_11_r2scan3c_nmr.SHARKINP.tmp ... ok
----------------------
SHARK INTEGRAL PACKAGE
----------------------

Number of atoms                             ...     25
Number of basis functions                   ...    542
Number of shells                            ...    210
Maximum angular momentum                    ...      3
Integral batch strategy                     ... SHARK/LIBINT Hybrid
RI-J (if used) integral strategy            ... SPLIT-RIJ (Revised 2003 algorithm where possible)
Printlevel                                  ...      1
Contraction scheme used                     ... SEGMENTED contraction
Coulomb Range Separation                    ... NOT USED
Exchange Range Separation                   ... NOT USED
Finite Nucleus Model                        ... NOT USED
Auxiliary Coulomb fitting basis             ... AVAILABLE
   # of basis functions in Aux-J            ...    854
   # of shells in Aux-J                     ...    278
   Maximum angular momentum in Aux-J        ...      4
Auxiliary J/K fitting basis                 ... NOT available
Auxiliary Correlation fitting basis         ... NOT available
Auxiliary 'external' fitting basis          ... NOT available
Integral threshold                          ...     1.000000e-10
Primitive cut-off                           ...     1.000000e-11
Primitive pair pre-selection threshold      ...     1.000000e-11

Calculating pre-screening integrals         ... done (  0.1 sec) Dimension = 210
Organizing shell pair data                  ... done (  0.3 sec)
Shell pair information
Total number of shell pairs                 ...     22155
Shell pairs after pre-screening             ...     15883
Total number of primitive shell pairs       ...     72414
Primitive shell pairs kept                  ...     35012
          la=0 lb=0:   3877 shell pairs
          la=1 lb=0:   4485 shell pairs
          la=1 lb=1:   1310 shell pairs
          la=2 lb=0:   2343 shell pairs
          la=2 lb=1:   1371 shell pairs
          la=2 lb=2:    381 shell pairs
          la=3 lb=0:   1074 shell pairs
          la=3 lb=1:    629 shell pairs
          la=3 lb=2:    328 shell pairs
          la=3 lb=3:     85 shell pairs

Calculating one electron integrals          ... done (  0.0 sec)
Calculating RI/J V-Matrix + Cholesky decomp.... done (  0.0 sec)
Calculating Nuclear repulsion               ... done (  0.0 sec) ENN=   1191.675181375866 Eh

SHARK setup successfully completed in   0.9 seconds

Maximum memory used throughout the entire GTOINT-calculation: 32.2 MB


           ************************************************************
           *        Program running with 16 parallel MPI-processes    *
           *              working on a common directory               *
           ************************************************************
-------------------------------------------------------------------------------
                                 ORCA SCF
-------------------------------------------------------------------------------

------------
SCF SETTINGS
------------
Hamiltonian:
 Density Functional     Method          .... DFT(GTOs)
 Exchange Functional    Exchange        .... B88
   X-Alpha parameter    XAlpha          ....  0.666667
   Becke's b parameter  XBeta           ....  0.004200
 Correlation Functional Correlation     .... LYP
 LDA part of GGA corr.  LDAOpt          .... VWN-5
 Gradients option       PostSCFGGA      .... off
 Hybrid DFT is turned on
   Fraction HF Exchange ScalHFX         ....  0.200000
   Scaling of DF-GGA-X  ScalDFX         ....  0.720000
   Scaling of DF-GGA-C  ScalDFC         ....  0.810000
   Scaling of DF-LDA-C  ScalLDAC        ....  1.000000
   Perturbative correction              ....  0.000000
   Density functional embedding theory  .... OFF
   NL short-range parameter             ....  4.800000
 RI-approximation to the Coulomb term is turned on
   Number of AuxJ basis functions       .... 854
   RIJ-COSX (HFX calculated with COS-X)).... on


General Settings:
 Integral files         IntName         .... arbr_11_r2scan3c_nmr
 Hartree-Fock type      HFTyp           .... RHF
 Total Charge           Charge          ....    0
 Multiplicity           Mult            ....    1
 Number of Electrons    NEL             ....  134
 Basis Dimension        Dim             ....  542
 Nuclear Repulsion      ENuc            ....   1191.6751813759 Eh

Convergence Acceleration:
 DIIS                   CNVDIIS         .... on
   Start iteration      DIISMaxIt       ....    12
   Startup error        DIISStart       ....  0.200000
   # of expansion vecs  DIISMaxEq       ....     5
   Bias factor          DIISBfac        ....   1.050
   Max. coefficient     DIISMaxC        ....  10.000
 Trust-Rad. Augm. Hess. CNVTRAH         .... auto
   Auto Start mean grad. ratio tolernc. ....  1.125000
   Auto Start start iteration           ....    20
   Auto Start num. interpolation iter.  ....    10
   Max. Number of Micro iterations      ....    16
   Max. Number of Macro iterations      .... Maxiter - #DIIS iter
   Number of Davidson start vectors     ....     2
   Converg. threshold I  (grad. norm)   ....   5.000e-05
   Converg. threshold II (energy diff.) ....   1.000e-06
   Grad. Scal. Fac. for Micro threshold ....   0.100
   Minimum threshold for Micro iter.    ....   0.010
   NR start threshold (gradient norm)   ....   0.001
   Initial trust radius                 ....   0.400
   Minimum AH scaling param. (alpha)    ....   1.000
   Maximum AH scaling param. (alpha)    .... 1000.000
   Orbital update algorithm             .... Taylor
   White noise on init. David. guess    .... on
   Maximum white noise                  ....   0.010
   Quad. conv. algorithm                .... NR
 SOSCF                  CNVSOSCF        .... on
   Start iteration      SOSCFMaxIt      ....   150
   Startup grad/error   SOSCFStart      ....  0.003300
 Level Shifting         CNVShift        .... on
   Level shift para.    LevelShift      ....    0.2500
   Turn off err/grad.   ShiftErr        ....    0.0010
 Zerner damping         CNVZerner       .... off
 Static damping         CNVDamp         .... on
   Fraction old density DampFac         ....    0.7000
   Max. Damping (<1)    DampMax         ....    0.9800
   Min. Damping (>=0)   DampMin         ....    0.0000
   Turn off err/grad.   DampErr         ....    0.1000
 Fernandez-Rico         CNVRico         .... off

SCF Procedure:
 Maximum # iterations   MaxIter         ....   125
 SCF integral mode      SCFMode         .... Direct
   Integral package                     .... SHARK and LIBINT hybrid scheme
 Reset frequency        DirectResetFreq ....    20
 Integral Threshold     Thresh          ....  1.000e-10 Eh
 Primitive CutOff       TCut            ....  1.000e-11 Eh

Convergence Tolerance:
 Convergence Check Mode ConvCheckMode   .... Total+1el-Energy
 Convergence forced     ConvForced      .... 0
 Energy Change          TolE            ....  1.000e-06 Eh
 1-El. energy change                    ....  1.000e-03 Eh
 Orbital Gradient       TolG            ....  5.000e-05
 Orbital Rotation angle TolX            ....  5.000e-05
 DIIS Error             TolErr          ....  1.000e-06


Diagonalization of the overlap matrix:
Smallest eigenvalue                        ... 7.135e-06
Time for diagonalization                   ...    0.069 sec
Threshold for overlap eigenvalues          ... 1.000e-08
Number of eigenvalues below threshold      ... 0
Time for construction of square roots      ...    0.036 sec
Total time needed                          ...    0.108 sec

Time for model grid setup =    0.246 sec

------------------------------
INITIAL GUESS: MODEL POTENTIAL
------------------------------
Loading Hartree-Fock densities                     ... done
Calculating cut-offs                               ... done
Initializing the effective Hamiltonian             ... done
Setting up the integral package (SHARK)            ... done
Starting the Coulomb interaction                   ... done (   0.2 sec)
Reading the grid                                   ... done
Mapping shells                                     ... done
Starting the XC term evaluation                    ... done (   0.1 sec)
  promolecular density results
     # of electrons  =    133.990275590
     EX              =   -172.313817695
     EC              =     -5.095822876
     EX+EC           =   -177.409640571
Transforming the Hamiltonian                       ... done (   0.0 sec)
Diagonalizing the Hamiltonian                      ... done (   0.1 sec)
Back transforming the eigenvectors                 ... done (   0.0 sec)
Now organizing SCF variables                       ... done
                      ------------------
                      INITIAL GUESS DONE (   0.8 sec)
                      ------------------
-------------------
DFT GRID GENERATION
-------------------

General Integration Accuracy     IntAcc      ... 4.388
Radial Grid Type                 RadialGrid  ... OptM3 with GC (2021)
Angular Grid (max. ang.)         AngularGrid ... 4 (Lebedev-302)
Angular grid pruning method      GridPruning ... 4 (adaptive)
Weight generation scheme         WeightScheme... Becke
Basis function cutoff            BFCut       ... 1.0000e-10
Integration weight cutoff        WCut        ... 1.0000e-14
Angular grids for H and He will be reduced by one unit
Partially contracted basis set               ... off
Rotationally invariant grid construction     ... off

Total number of grid points                  ...   127379
Total number of batches                      ...     2003
Average number of points per batch           ...       63
Average number of grid points per atom       ...     5095
Time for grid setup =    1.158 sec

--------------------
COSX GRID GENERATION
--------------------

GRIDX 1
-------
General Integration Accuracy     IntAcc      ... 3.816
Radial Grid Type                 RadialGrid  ... OptM3 with GC (2021)
Angular Grid (max. ang.)         AngularGrid ... 1 (Lebedev-50)
Angular grid pruning method      GridPruning ... 4 (adaptive)
Weight generation scheme         WeightScheme... Becke
Basis function cutoff            BFCut       ... 1.0000e-10
Integration weight cutoff        WCut        ... 1.0000e-14
Angular grids for H and He will be reduced by one unit
Partially contracted basis set               ... on
Rotationally invariant grid construction     ... off

Total number of grid points                  ...    16045
Total number of batches                      ...      264
Average number of points per batch           ...       60
Average number of grid points per atom       ...      642
UseSFitting                                  ... on

GRIDX 2
-------
General Integration Accuracy     IntAcc      ... 4.020
Radial Grid Type                 RadialGrid  ... OptM3 with GC (2021)
Angular Grid (max. ang.)         AngularGrid ... 2 (Lebedev-110)
Angular grid pruning method      GridPruning ... 4 (adaptive)
Weight generation scheme         WeightScheme... Becke
Basis function cutoff            BFCut       ... 1.0000e-10
Integration weight cutoff        WCut        ... 1.0000e-14
Angular grids for H and He will be reduced by one unit
Partially contracted basis set               ... on
Rotationally invariant grid construction     ... off

Total number of grid points                  ...    35165
Total number of batches                      ...      561
Average number of points per batch           ...       62
Average number of grid points per atom       ...     1407
UseSFitting                                  ... on

GRIDX 3
-------
General Integration Accuracy     IntAcc      ... 4.338
Radial Grid Type                 RadialGrid  ... OptM3 with GC (2021)
Angular Grid (max. ang.)         AngularGrid ... 3 (Lebedev-194)
Angular grid pruning method      GridPruning ... 4 (adaptive)
Weight generation scheme         WeightScheme... Becke
Basis function cutoff            BFCut       ... 1.0000e-10
Integration weight cutoff        WCut        ... 1.0000e-14
Angular grids for H and He will be reduced by one unit
Partially contracted basis set               ... on
Rotationally invariant grid construction     ... off

Total number of grid points                  ...    77470
Total number of batches                      ...     1225
Average number of points per batch           ...       63
Average number of grid points per atom       ...     3099
UseSFitting                                  ... on

Time for X-Grid setup             =    0.949 sec

--------------
SCF ITERATIONS
--------------
ITER       Energy         Delta-E        Max-DP      RMS-DP      [F,P]     Damp
               ***  Starting incremental Fock matrix formation  ***
  0  -3203.9295790351   0.000000000000 0.06997247  0.00089161  0.3043007 0.7000
  1  -3204.1228544757  -0.193275440580 0.06429723  0.00066882  0.1189669 0.7000
                               ***Turning on DIIS***
  2  -3204.1959583687  -0.073103892988 0.08452186  0.00107392  0.0384260 0.0000
  3  -3204.3122120778  -0.116253709127 0.05802455  0.00050505  0.0554773 0.0000
  4  -3204.3383827342  -0.026170656405 0.02067654  0.00018500  0.0159283 0.0000
  5  -3204.3400248828  -0.001642148626 0.00640261  0.00007624  0.0090304 0.0000
                      *** Initiating the SOSCF procedure ***
                           *** Shutting down DIIS ***
                      *** Re-Reading the Fockian *** 
                      *** Removing any level shift *** 
ITER      Energy       Delta-E        Grad      Rot      Max-DP    RMS-DP
  6  -3204.34017910  -0.0001542145  0.000336  0.000336  0.001794  0.000029
               *** Restarting incremental Fock matrix formation ***
  7  -3204.34018963  -0.0000105376  0.000173  0.000676  0.002774  0.000040
  8  -3204.34018540   0.0000042384  0.000462  0.000696  0.000522  0.000008
  9  -3204.34019212  -0.0000067257  0.000039  0.000197  0.000460  0.000006
                 **** Energy Check signals convergence ****
              ***Rediagonalizing the Fockian in SOSCF/NRSCF***

               *****************************************************
               *                     SUCCESS                       *
               *           SCF CONVERGED AFTER  10 CYCLES          *
               *****************************************************

Old exchange energy                            =    -34.674199353 Eh
New exchange energy                            =    -34.674124171 Eh
Exchange energy change after final integration =      0.000075182 Eh
Total energy after final integration           =  -3204.340116816 Eh
Final COS-X integration done in                =     9.713 sec

----------------
TOTAL SCF ENERGY
----------------

Total Energy       :        -3204.34011682 Eh          -87194.52746 eV

Components:
Nuclear Repulsion  :         1191.67518138 Eh           32427.13025 eV
Electronic Energy  :        -4396.01529819 Eh         -119621.65771 eV
One Electron Energy:        -6807.00363015 Eh         -185227.98559 eV
Two Electron Energy:         2410.98833196 Eh           65606.32787 eV
Max COSX asymmetry :            0.00000656 Eh               0.00018 eV

Virial components:
Potential Energy   :        -6402.49134043 Eh         -174220.64658 eV
Kinetic Energy     :         3198.15122362 Eh           87026.11912 eV
Virial Ratio       :            2.00193515


DFT components:
N(Alpha)           :       67.000018057559 electrons
N(Beta)            :       67.000018057559 electrons
N(Total)           :      134.000036115118 electrons
E(X)               :     -137.945561498664 Eh       
E(C)               :       -5.982370613852 Eh       
E(XC)              :     -143.927932112516 Eh       
DFET-embed. en.    :        0.000000000000 Eh       

---------------
SCF CONVERGENCE
---------------

  Last Energy change         ...    1.2420e-07  Tolerance :   1.0000e-06
  Last MAX-Density change    ...    3.5527e-15  Tolerance :   1.0000e-05
  Last RMS-Density change    ...    2.4125e-17  Tolerance :   1.0000e-06
  Last Orbital Gradient      ...    6.0462e-05  Tolerance :   5.0000e-05
  Last Orbital Rotation      ...    1.0378e-04  Tolerance :   5.0000e-05

             **** THE GBW FILE WAS UPDATED (arbr_11_r2scan3c_nmr.gbw) ****
             **** DENSITY arbr_11_r2scan3c_nmr.scfp WAS UPDATED ****
             **** ENERGY FILE WAS UPDATED (arbr_11_r2scan3c_nmr.en.tmp) ****
             **** THE GBW FILE WAS UPDATED (arbr_11_r2scan3c_nmr.gbw) ****
             **** DENSITY arbr_11_r2scan3c_nmr.scfp WAS UPDATED ****
----------------
ORBITAL ENERGIES
----------------

  NO   OCC          E(Eh)            E(eV) 
   0   2.0000    -482.851070    -13139.0456 
   1   2.0000     -62.498537     -1700.6717 
   2   2.0000     -56.313960     -1532.3808 
   3   2.0000     -56.311584     -1532.3161 
   4   2.0000     -56.311533     -1532.3147 
   5   2.0000     -19.178718      -521.8794 
   6   2.0000     -19.118351      -520.2368 
   7   2.0000     -14.370303      -391.0358 
   8   2.0000     -10.309558      -280.5373 
   9   2.0000     -10.234301      -278.4895 
  10   2.0000     -10.225497      -278.2499 
  11   2.0000     -10.222032      -278.1556 
  12   2.0000     -10.220702      -278.1194 
  13   2.0000     -10.189898      -277.2812 
  14   2.0000     -10.188098      -277.2322 
  15   2.0000     -10.187596      -277.2186 
  16   2.0000     -10.187268      -277.2097 
  17   2.0000     -10.181357      -277.0488 
  18   2.0000     -10.173844      -276.8444 
  19   2.0000      -8.689549      -236.4546 
  20   2.0000      -6.518872      -177.3875 
  21   2.0000      -6.508179      -177.0966 
  22   2.0000      -6.507943      -177.0901 
  23   2.0000      -2.633538       -71.6622 
  24   2.0000      -2.630548       -71.5808 
  25   2.0000      -2.630378       -71.5762 
  26   2.0000      -2.621529       -71.3354 
  27   2.0000      -2.621524       -71.3353 
  28   2.0000      -1.121538       -30.5186 
  29   2.0000      -1.033055       -28.1109 
  30   2.0000      -1.000754       -27.2319 
  31   2.0000      -0.873218       -23.7615 
  32   2.0000      -0.808924       -22.0119 
  33   2.0000      -0.804305       -21.8862 
  34   2.0000      -0.788055       -21.4441 
  35   2.0000      -0.745975       -20.2990 
  36   2.0000      -0.732037       -19.9197 
  37   2.0000      -0.676853       -18.4181 
  38   2.0000      -0.635300       -17.2874 
  39   2.0000      -0.617044       -16.7906 
  40   2.0000      -0.596946       -16.2437 
  41   2.0000      -0.581977       -15.8364 
  42   2.0000      -0.562180       -15.2977 
  43   2.0000      -0.520040       -14.1510 
  44   2.0000      -0.508733       -13.8433 
  45   2.0000      -0.487659       -13.2699 
  46   2.0000      -0.473819       -12.8933 
  47   2.0000      -0.463195       -12.6042 
  48   2.0000      -0.456194       -12.4137 
  49   2.0000      -0.450455       -12.2575 
  50   2.0000      -0.446176       -12.1411 
  51   2.0000      -0.426729       -11.6119 
  52   2.0000      -0.424777       -11.5588 
  53   2.0000      -0.410977       -11.1833 
  54   2.0000      -0.403284       -10.9739 
  55   2.0000      -0.378747       -10.3062 
  56   2.0000      -0.373279       -10.1574 
  57   2.0000      -0.366666        -9.9775 
  58   2.0000      -0.365245        -9.9388 
  59   2.0000      -0.359048        -9.7702 
  60   2.0000      -0.317308        -8.6344 
  61   2.0000      -0.304901        -8.2968 
  62   2.0000      -0.297317        -8.0904 
  63   2.0000      -0.294933        -8.0255 
  64   2.0000      -0.286718        -7.8020 
  65   2.0000      -0.235292        -6.4026 
  66   2.0000      -0.227057        -6.1785 
  67   0.0000      -0.060303        -1.6409 
  68   0.0000      -0.006092        -0.1658 
  69   0.0000       0.002901         0.0789 
  70   0.0000       0.007349         0.2000 
  71   0.0000       0.031464         0.8562 
  72   0.0000       0.042754         1.1634 
  73   0.0000       0.067877         1.8470 
  74   0.0000       0.070060         1.9064 
  75   0.0000       0.077446         2.1074 
  76   0.0000       0.085667         2.3311 
  77   0.0000       0.089670         2.4400 
  78   0.0000       0.095162         2.5895 
  79   0.0000       0.101578         2.7641 
  80   0.0000       0.104025         2.8307 
  81   0.0000       0.105176         2.8620 
  82   0.0000       0.112382         3.0581 
  83   0.0000       0.127729         3.4757 
  84   0.0000       0.136643         3.7182 
  85   0.0000       0.137110         3.7309 
  86   0.0000       0.148003         4.0274 
  87   0.0000       0.162504         4.4220 
  88   0.0000       0.170151         4.6300 
  89   0.0000       0.181869         4.9489 
  90   0.0000       0.189758         5.1636 
  91   0.0000       0.196193         5.3387 
  92   0.0000       0.202545         5.5115 
  93   0.0000       0.210574         5.7300 
  94   0.0000       0.210722         5.7340 
  95   0.0000       0.215572         5.8660 
  96   0.0000       0.217191         5.9101 
  97   0.0000       0.223885         6.0922 
  98   0.0000       0.233868         6.3639 
  99   0.0000       0.238732         6.4962 
 100   0.0000       0.240270         6.5381 
 101   0.0000       0.252407         6.8684 
 102   0.0000       0.262149         7.1334 
 103   0.0000       0.263819         7.1789 
 104   0.0000       0.269643         7.3373 
 105   0.0000       0.271585         7.3902 
 106   0.0000       0.281986         7.6732 
 107   0.0000       0.282211         7.6794 
 108   0.0000       0.293557         7.9881 
 109   0.0000       0.300416         8.1747 
 110   0.0000       0.305867         8.3231 
 111   0.0000       0.308743         8.4013 
 112   0.0000       0.318366         8.6632 
 113   0.0000       0.327207         8.9037 
 114   0.0000       0.347233         9.4487 
 115   0.0000       0.350773         9.5450 
 116   0.0000       0.357003         9.7145 
 117   0.0000       0.357512         9.7284 
 118   0.0000       0.360953         9.8220 
 119   0.0000       0.374536        10.1916 
 120   0.0000       0.375941        10.2299 
 121   0.0000       0.382475        10.4077 
 122   0.0000       0.383238        10.4284 
 123   0.0000       0.384849        10.4723 
 124   0.0000       0.394766        10.7421 
 125   0.0000       0.406876        11.0716 
 126   0.0000       0.412544        11.2259 
 127   0.0000       0.416654        11.3377 
 128   0.0000       0.421366        11.4660 
 129   0.0000       0.424956        11.5636 
 130   0.0000       0.429529        11.6881 
 131   0.0000       0.441232        12.0065 
 132   0.0000       0.441715        12.0197 
 133   0.0000       0.443074        12.0567 
 134   0.0000       0.455854        12.4044 
 135   0.0000       0.457333        12.4447 
 136   0.0000       0.462090        12.5741 
 137   0.0000       0.471386        12.8271 
 138   0.0000       0.473628        12.8881 
 139   0.0000       0.485829        13.2201 
 140   0.0000       0.490299        13.3417 
 141   0.0000       0.504404        13.7255 
 142   0.0000       0.515287        14.0217 
 143   0.0000       0.532934        14.5019 
 144   0.0000       0.538525        14.6540 
 145   0.0000       0.546082        14.8597 
 146   0.0000       0.557119        15.1600 
 147   0.0000       0.562809        15.3148 
 148   0.0000       0.570514        15.5245 
 149   0.0000       0.577870        15.7246 
 150   0.0000       0.590599        16.0710 
 151   0.0000       0.604307        16.4440 
 152   0.0000       0.605412        16.4741 
 153   0.0000       0.615443        16.7471 
 154   0.0000       0.622407        16.9365 
 155   0.0000       0.623372        16.9628 
 156   0.0000       0.643501        17.5105 
 157   0.0000       0.650728        17.7072 
 158   0.0000       0.665464        18.1082 
 159   0.0000       0.680408        18.5148 
 160   0.0000       0.684776        18.6337 
 161   0.0000       0.694549        18.8996 
 162   0.0000       0.695941        18.9375 
 163   0.0000       0.699932        19.0461 
 164   0.0000       0.700457        19.0604 
 165   0.0000       0.707006        19.2386 
 166   0.0000       0.719232        19.5713 
 167   0.0000       0.731047        19.8928 
 168   0.0000       0.731505        19.9053 
 169   0.0000       0.767133        20.8748 
 170   0.0000       0.773728        21.0542 
 171   0.0000       0.785745        21.3812 
 172   0.0000       0.800051        21.7705 
 173   0.0000       0.819062        22.2878 
 174   0.0000       0.825590        22.4655 
 175   0.0000       0.827370        22.5139 
 176   0.0000       0.838873        22.8269 
 177   0.0000       0.841476        22.8977 
 178   0.0000       0.847064        23.0498 
 179   0.0000       0.849009        23.1027 
 180   0.0000       0.858968        23.3737 
 181   0.0000       0.865653        23.5556 
 182   0.0000       0.879812        23.9409 
 183   0.0000       0.889816        24.2131 
 184   0.0000       0.915466        24.9111 
 185   0.0000       0.921582        25.0775 
 186   0.0000       0.926938        25.2233 
 187   0.0000       0.950931        25.8761 
 188   0.0000       0.957501        26.0549 
 189   0.0000       0.970276        26.4026 
 190   0.0000       0.977618        26.6023 
 191   0.0000       0.995792        27.0969 
 192   0.0000       1.008740        27.4492 
 193   0.0000       1.029603        28.0169 
 194   0.0000       1.032490        28.0955 
 195   0.0000       1.040918        28.3248 
 196   0.0000       1.057127        28.7659 
 197   0.0000       1.060984        28.8708 
 198   0.0000       1.085051        29.5257 
 199   0.0000       1.088481        29.6191 
 200   0.0000       1.103295        30.0222 
 201   0.0000       1.105349        30.0781 
 202   0.0000       1.128618        30.7113 
 203   0.0000       1.132542        30.8180 
 204   0.0000       1.155592        31.4453 
 205   0.0000       1.185020        32.2460 
 206   0.0000       1.190104        32.3844 
 207   0.0000       1.200324        32.6625 
 208   0.0000       1.208261        32.8784 
 209   0.0000       1.212989        33.0071 
 210   0.0000       1.215385        33.0723 
 211   0.0000       1.238578        33.7034 
 212   0.0000       1.262150        34.3449 
 213   0.0000       1.265309        34.4308 
 214   0.0000       1.286507        35.0076 
 215   0.0000       1.290875        35.1265 
 216   0.0000       1.307306        35.5736 
 217   0.0000       1.314397        35.7666 
 218   0.0000       1.335462        36.3398 
 219   0.0000       1.349713        36.7276 
 220   0.0000       1.354792        36.8658 
 221   0.0000       1.361164        37.0392 
 222   0.0000       1.374822        37.4108 
 223   0.0000       1.377991        37.4970 
 224   0.0000       1.382151        37.6102 
 225   0.0000       1.395784        37.9812 
 226   0.0000       1.411483        38.4084 
 227   0.0000       1.427832        38.8533 
 228   0.0000       1.438906        39.1546 
 229   0.0000       1.449493        39.4427 
 230   0.0000       1.452945        39.5366 
 231   0.0000       1.472076        40.0572 
 232   0.0000       1.478699        40.2374 
 233   0.0000       1.481828        40.3226 
 234   0.0000       1.489753        40.5382 
 235   0.0000       1.495871        40.7047 
 236   0.0000       1.512620        41.1605 
 237   0.0000       1.517687        41.2984 
 238   0.0000       1.526936        41.5501 
 239   0.0000       1.539843        41.9013 
 240   0.0000       1.542165        41.9644 
 241   0.0000       1.543069        41.9890 
 242   0.0000       1.544951        42.0403 
 243   0.0000       1.549836        42.1732 
 244   0.0000       1.556947        42.3667 
 245   0.0000       1.563157        42.5357 
 246   0.0000       1.586940        43.1828 
 247   0.0000       1.587295        43.1925 
 248   0.0000       1.599372        43.5211 
 249   0.0000       1.602675        43.6110 
 250   0.0000       1.612602        43.8811 
 251   0.0000       1.622268        44.1441 
 252   0.0000       1.623063        44.1658 
 253   0.0000       1.630656        44.3724 
 254   0.0000       1.641805        44.6758 
 255   0.0000       1.669458        45.4283 
 256   0.0000       1.673352        45.5342 
 257   0.0000       1.681448        45.7545 
 258   0.0000       1.702259        46.3208 
 259   0.0000       1.706203        46.4281 
 260   0.0000       1.718377        46.7594 
 261   0.0000       1.731198        47.1083 
 262   0.0000       1.743137        47.4332 
 263   0.0000       1.769495        48.1504 
 264   0.0000       1.774331        48.2820 
 265   0.0000       1.784361        48.5549 
 266   0.0000       1.792176        48.7676 
 267   0.0000       1.796543        48.8864 
 268   0.0000       1.807241        49.1775 
 269   0.0000       1.816604        49.4323 
 270   0.0000       1.831888        49.8482 
 271   0.0000       1.843679        50.1691 
 272   0.0000       1.845664        50.2231 
 273   0.0000       1.855604        50.4935 
 274   0.0000       1.890895        51.4539 
 275   0.0000       1.903002        51.7833 
 276   0.0000       1.906685        51.8835 
 277   0.0000       1.929000        52.4908 
 278   0.0000       1.941155        52.8215 
 279   0.0000       1.963937        53.4414 
 280   0.0000       1.980292        53.8865 
 281   0.0000       1.991911        54.2026 
 282   0.0000       2.004923        54.5567 
 283   0.0000       2.024946        55.1016 
 284   0.0000       2.029717        55.2314 
 285   0.0000       2.031398        55.2772 
 286   0.0000       2.040626        55.5282 
 287   0.0000       2.063702        56.1562 
 288   0.0000       2.085419        56.7471 
 289   0.0000       2.086569        56.7784 
 290   0.0000       2.094963        57.0068 
 291   0.0000       2.104464        57.2654 
 292   0.0000       2.110271        57.4234 
 293   0.0000       2.117923        57.6316 
 294   0.0000       2.141978        58.2862 
 295   0.0000       2.162654        58.8488 
 296   0.0000       2.212337        60.2007 
 297   0.0000       2.216834        60.3231 
 298   0.0000       2.238864        60.9226 
 299   0.0000       2.250895        61.2500 
 300   0.0000       2.251069        61.2547 
 301   0.0000       2.283326        62.1325 
 302   0.0000       2.303167        62.6724 
 303   0.0000       2.310130        62.8618 
 304   0.0000       2.325137        63.2702 
 305   0.0000       2.325674        63.2848 
 306   0.0000       2.331766        63.4506 
 307   0.0000       2.332130        63.4605 
 308   0.0000       2.348537        63.9069 
 309   0.0000       2.376645        64.6718 
 310   0.0000       2.390289        65.0431 
 311   0.0000       2.403756        65.4095 
 312   0.0000       2.414954        65.7142 
 313   0.0000       2.431678        66.1693 
 314   0.0000       2.439782        66.3899 
 315   0.0000       2.468960        67.1838 
 316   0.0000       2.482944        67.5643 
 317   0.0000       2.501042        68.0568 
 318   0.0000       2.526309        68.7444 
 319   0.0000       2.536783        69.0294 
 320   0.0000       2.565065        69.7990 
 321   0.0000       2.568616        69.8956 
 322   0.0000       2.581520        70.2467 
 323   0.0000       2.589392        70.4609 
 324   0.0000       2.602347        70.8135 
 325   0.0000       2.609245        71.0012 
 326   0.0000       2.613170        71.1080 
 327   0.0000       2.620966        71.3201 
 328   0.0000       2.645777        71.9952 
 329   0.0000       2.646770        72.0223 
 330   0.0000       2.652954        72.1905 
 331   0.0000       2.673695        72.7549 
 332   0.0000       2.683915        73.0330 
 333   0.0000       2.692179        73.2579 
 334   0.0000       2.715854        73.9021 
 335   0.0000       2.723021        74.0972 
 336   0.0000       2.729902        74.2844 
 337   0.0000       2.741525        74.6007 
 338   0.0000       2.748856        74.8002 
 339   0.0000       2.760927        75.1286 
 340   0.0000       2.770163        75.3800 
 341   0.0000       2.772715        75.4494 
 342   0.0000       2.787868        75.8617 
 343   0.0000       2.793103        76.0042 
 344   0.0000       2.806557        76.3703 
 345   0.0000       2.814850        76.5960 
 346   0.0000       2.816319        76.6359 
 347   0.0000       2.848244        77.5047 
 348   0.0000       2.860440        77.8365 
 349   0.0000       2.881027        78.3967 
 350   0.0000       2.889396        78.6244 
 351   0.0000       2.892414        78.7066 
 352   0.0000       2.892554        78.7104 
 353   0.0000       2.907063        79.1052 
 354   0.0000       2.924628        79.5832 
 355   0.0000       2.925433        79.6051 
 356   0.0000       2.929079        79.7043 
 357   0.0000       2.937624        79.9368 
 358   0.0000       2.962857        80.6234 
 359   0.0000       2.972137        80.8760 
 360   0.0000       2.988172        81.3123 
 361   0.0000       2.997597        81.5688 
 362   0.0000       3.005337        81.7794 
 363   0.0000       3.017963        82.1229 
 364   0.0000       3.028494        82.4095 
 365   0.0000       3.048322        82.9490 
 366   0.0000       3.070418        83.5503 
 367   0.0000       3.071287        83.5740 
 368   0.0000       3.071583        83.5820 
 369   0.0000       3.082473        83.8783 
 370   0.0000       3.101774        84.4035 
 371   0.0000       3.102827        84.4322 
 372   0.0000       3.134745        85.3007 
 373   0.0000       3.138701        85.4084 
 374   0.0000       3.149894        85.7130 
 375   0.0000       3.150727        85.7356 
 376   0.0000       3.160990        86.0149 
 377   0.0000       3.182475        86.5995 
 378   0.0000       3.186681        86.7140 
 379   0.0000       3.189936        86.8026 
 380   0.0000       3.210187        87.3536 
 381   0.0000       3.217050        87.5404 
 382   0.0000       3.229130        87.8691 
 383   0.0000       3.240459        88.1774 
 384   0.0000       3.243470        88.2593 
 385   0.0000       3.247714        88.3748 
 386   0.0000       3.266421        88.8838 
 387   0.0000       3.275547        89.1322 
 388   0.0000       3.279797        89.2478 
 389   0.0000       3.290856        89.5487 
 390   0.0000       3.299382        89.7808 
 391   0.0000       3.310843        90.0926 
 392   0.0000       3.345780        91.0433 
 393   0.0000       3.346231        91.0556 
 394   0.0000       3.353810        91.2618 
 395   0.0000       3.357262        91.3558 
 396   0.0000       3.367939        91.6463 
 397   0.0000       3.383163        92.0605 
 398   0.0000       3.394130        92.3590 
 399   0.0000       3.400284        92.5264 
 400   0.0000       3.404599        92.6438 
 401   0.0000       3.405952        92.6807 
 402   0.0000       3.414067        92.9015 
 403   0.0000       3.429480        93.3209 
 404   0.0000       3.433482        93.4298 
 405   0.0000       3.458553        94.1120 
 406   0.0000       3.469661        94.4143 
 407   0.0000       3.479378        94.6787 
 408   0.0000       3.487184        94.8911 
 409   0.0000       3.505261        95.3830 
 410   0.0000       3.528462        96.0143 
 411   0.0000       3.528757        96.0223 
 412   0.0000       3.542715        96.4022 
 413   0.0000       3.554438        96.7212 
 414   0.0000       3.558924        96.8433 
 415   0.0000       3.568953        97.1161 
 416   0.0000       3.584010        97.5259 
 417   0.0000       3.605525        98.1113 
 418   0.0000       3.639789        99.0437 
 419   0.0000       3.654155        99.4346 
 420   0.0000       3.668058        99.8129 
 421   0.0000       3.679110       100.1137 
 422   0.0000       3.708057       100.9014 
 423   0.0000       3.721256       101.2605 
 424   0.0000       3.749092       102.0180 
 425   0.0000       3.769682       102.5783 
 426   0.0000       3.782695       102.9324 
 427   0.0000       3.793870       103.2364 
 428   0.0000       3.815031       103.8123 
 429   0.0000       3.816695       103.8576 
 430   0.0000       3.834544       104.3432 
 431   0.0000       3.849373       104.7468 
 432   0.0000       3.870760       105.3287 
 433   0.0000       3.892985       105.9335 
 434   0.0000       3.914524       106.5196 
 435   0.0000       3.951509       107.5260 
 436   0.0000       3.957583       107.6913 
 437   0.0000       3.975807       108.1872 
 438   0.0000       3.995987       108.7363 
 439   0.0000       4.006714       109.0282 
 440   0.0000       4.008409       109.0743 
 441   0.0000       4.028739       109.6276 
 442   0.0000       4.045850       110.0932 
 443   0.0000       4.063240       110.5664 
 444   0.0000       4.100684       111.5853 
 445   0.0000       4.106639       111.7473 
 446   0.0000       4.143704       112.7559 
 447   0.0000       4.153809       113.0309 
 448   0.0000       4.172858       113.5492 
 449   0.0000       4.187529       113.9485 
 450   0.0000       4.203318       114.3781 
 451   0.0000       4.211318       114.5958 
 452   0.0000       4.242926       115.4559 
 453   0.0000       4.247926       115.5919 
 454   0.0000       4.264248       116.0361 
 455   0.0000       4.295123       116.8762 
 456   0.0000       4.308511       117.2405 
 457   0.0000       4.317529       117.4859 
 458   0.0000       4.358497       118.6007 
 459   0.0000       4.367086       118.8344 
 460   0.0000       4.390416       119.4693 
 461   0.0000       4.394498       119.5804 
 462   0.0000       4.396895       119.6456 
 463   0.0000       4.401102       119.7601 
 464   0.0000       4.434163       120.6597 
 465   0.0000       4.500899       122.4757 
 466   0.0000       4.523736       123.0971 
 467   0.0000       4.557216       124.0082 
 468   0.0000       4.583073       124.7118 
 469   0.0000       4.584896       124.7613 
 470   0.0000       4.610177       125.4493 
 471   0.0000       4.611907       125.4964 
 472   0.0000       4.680795       127.3709 
 473   0.0000       4.706025       128.0574 
 474   0.0000       4.730883       128.7339 
 475   0.0000       4.750330       129.2630 
 476   0.0000       4.753678       129.3542 
 477   0.0000       4.774357       129.9169 
 478   0.0000       4.783517       130.1661 
 479   0.0000       4.800363       130.6245 
 480   0.0000       4.842244       131.7641 
 481   0.0000       4.849273       131.9554 
 482   0.0000       4.870399       132.5303 
 483   0.0000       4.966069       135.1336 
 484   0.0000       4.990556       135.7999 
 485   0.0000       4.993833       135.8891 
 486   0.0000       5.008476       136.2876 
 487   0.0000       5.036163       137.0410 
 488   0.0000       5.113463       139.1444 
 489   0.0000       5.154226       140.2536 
 490   0.0000       5.165494       140.5602 
 491   0.0000       5.201863       141.5499 
 492   0.0000       5.241840       142.6377 
 493   0.0000       5.244831       142.7191 
 494   0.0000       5.283014       143.7581 
 495   0.0000       5.314691       144.6201 
 496   0.0000       5.329616       145.0262 
 497   0.0000       5.374146       146.2380 
 498   0.0000       5.447967       148.2467 
 499   0.0000       5.464145       148.6869 
 500   0.0000       5.493437       149.4840 
 501   0.0000       5.513299       150.0245 
 502   0.0000       5.571580       151.6104 
 503   0.0000       5.626233       153.0976 
 504   0.0000       5.676278       154.4594 
 505   0.0000       5.706858       155.2915 
 506   0.0000       5.724113       155.7610 
 507   0.0000       5.862999       159.5403 
 508   0.0000       5.901437       160.5863 
 509   0.0000       5.998061       163.2155 
 510   0.0000       6.018799       163.7799 
 511   0.0000       6.104822       166.1206 
 512   0.0000       6.190447       168.4506 
 513   0.0000       6.199110       168.6864 
 514   0.0000       6.342723       172.5943 
 515   0.0000       6.369039       173.3104 
 516   0.0000       6.434078       175.0802 
 517   0.0000       6.576574       178.9577 
 518   0.0000       6.655611       181.1084 
 519   0.0000       6.731186       183.1649 
 520   0.0000       6.755092       183.8154 
 521   0.0000       6.892069       187.5427 
 522   0.0000       6.964283       189.5078 
 523   0.0000       7.075000       192.5205 
 524   0.0000       7.158391       194.7897 
 525   0.0000       7.382450       200.8867 
 526   0.0000       7.471724       203.3160 
 527   0.0000       7.765119       211.2996 
 528   0.0000      22.249669       605.4443 
 529   0.0000      22.295345       606.6872 
 530   0.0000      22.462393       611.2328 
 531   0.0000      22.603710       615.0782 
 532   0.0000      22.677541       617.0873 
 533   0.0000      22.713520       618.0663 
 534   0.0000      22.898788       623.1077 
 535   0.0000      22.992742       625.6643 
 536   0.0000      23.274658       633.3356 
 537   0.0000      23.480799       638.9450 
 538   0.0000      23.669797       644.0879 
 539   0.0000      32.478122       883.7746 
 540   0.0000      43.919110      1195.0997 
 541   0.0000      44.260314      1204.3844 

                    ********************************
                    * MULLIKEN POPULATION ANALYSIS *
                    ********************************

-----------------------
MULLIKEN ATOMIC CHARGES
-----------------------
   0 C :   -0.306630
   1 C :   -0.024232
   2 O :   -0.249640
   3 C :    0.296757
   4 O :   -0.353586
   5 C :    0.192113
   6 C :   -0.316877
   7 C :    0.238471
   8 C :   -0.313503
   9 C :    0.142214
  10 Br:   -0.098236
  11 C :   -0.139004
  12 C :   -0.223696
  13 C :    0.156933
  14 N :   -0.250119
  15 H :    0.112601
  16 H :    0.110995
  17 H :    0.112601
  18 H :    0.107853
  19 H :    0.107848
  20 H :    0.115234
  21 H :    0.118071
  22 H :    0.124302
  23 H :    0.109794
  24 H :    0.229735
Sum of atomic charges:    0.0000000

--------------------------------
MULLIKEN REDUCED ORBITAL CHARGES
--------------------------------
  0 C s       :     3.270366  s :     3.270366
      pz      :     1.052721  p :     2.987760
      px      :     1.023761
      py      :     0.911278
      dz2     :     0.003864  d :     0.044798
      dxz     :     0.000694
      dyz     :     0.022412
      dx2y2   :     0.011531
      dxy     :     0.006297
      f0      :     0.000360  f :     0.003706
      f+1     :     0.000408
      f-1     :     0.000867
      f+2     :     0.000326
      f-2     :     0.000190
      f+3     :     0.000947
      f-3     :     0.000608
  1 C s       :     3.225819  s :     3.225819
      pz      :     1.048562  p :     2.666390
      px      :     0.634588
      py      :     0.983239
      dz2     :     0.007502  d :     0.121821
      dxz     :     0.027819
      dyz     :     0.028583
      dx2y2   :     0.028594
      dxy     :     0.029323
      f0      :     0.001250  f :     0.010201
      f+1     :     0.000897
      f-1     :     0.001048
      f+2     :     0.001960
      f-2     :     0.000141
      f+3     :     0.002141
      f-3     :     0.002764
  2 O s       :     3.771815  s :     3.771815
      pz      :     1.705325  p :     4.436229
      px      :     1.272088
      py      :     1.458815
      dz2     :     0.004288  d :     0.039497
      dxz     :     0.005418
      dyz     :     0.005405
      dx2y2   :     0.013471
      dxy     :     0.010916
      f0      :     0.000284  f :     0.002100
      f+1     :     0.000318
      f-1     :     0.000228
      f+2     :     0.000184
      f-2     :     0.000170
      f+3     :     0.000482
      f-3     :     0.000434
  3 C s       :     3.108571  s :     3.108571
      pz      :     0.785777  p :     2.297171
      px      :     0.783266
      py      :     0.728128
      dz2     :     0.008696  d :     0.272308
      dxz     :     0.032772
      dyz     :     0.068159
      dx2y2   :     0.092157
      dxy     :     0.070524
      f0      :     0.003006  f :     0.025193
      f+1     :     0.001024
      f-1     :     0.001671
      f+2     :     0.001826
      f-2     :     0.003614
      f+3     :     0.004326
      f-3     :     0.009726
  4 O s       :     3.813632  s :     3.813632
      pz      :     1.421032  p :     4.508442
      px      :     1.673918
      py      :     1.413491
      dz2     :     0.002482  d :     0.029722
      dxz     :     0.002668
      dyz     :     0.008480
      dx2y2   :     0.008107
      dxy     :     0.007986
      f0      :     0.000203  f :     0.001789
      f+1     :     0.000052
      f-1     :     0.000137
      f+2     :     0.000151
      f-2     :     0.000307
      f+3     :     0.000390
      f-3     :     0.000549
  5 C s       :     3.113258  s :     3.113258
      pz      :     1.016467  p :     2.553326
      px      :     0.763578
      py      :     0.773280
      dz2     :     0.005890  d :     0.126979
      dxz     :     0.019245
      dyz     :     0.037787
      dx2y2   :     0.033132
      dxy     :     0.030925
      f0      :     0.002239  f :     0.014324
      f+1     :     0.001110
      f-1     :     0.000921
      f+2     :     0.000488
      f-2     :     0.002722
      f+3     :     0.002532
      f-3     :     0.004313
  6 C s       :     3.383538  s :     3.383538
      pz      :     1.027181  p :     2.850213
      px      :     0.889055
      py      :     0.933977
      dz2     :     0.004689  d :     0.075249
      dxz     :     0.022615
      dyz     :     0.007710
      dx2y2   :     0.021146
      dxy     :     0.019089
      f0      :     0.001455  f :     0.007877
      f+1     :     0.000517
      f-1     :     0.000783
      f+2     :     0.000451
      f-2     :     0.000970
      f+3     :     0.001797
      f-3     :     0.001905
  7 C s       :     3.107643  s :     3.107643
      pz      :     0.967565  p :     2.517458
      px      :     0.707726
      py      :     0.842167
      dz2     :     0.007144  d :     0.125411
      dxz     :     0.034510
      dyz     :     0.018345
      dx2y2   :     0.032362
      dxy     :     0.033050
      f0      :     0.001965  f :     0.011016
      f+1     :     0.000834
      f-1     :     0.000656
      f+2     :     0.001584
      f-2     :     0.000756
      f+3     :     0.003517
      f-3     :     0.001705
  8 C s       :     3.343830  s :     3.343830
      pz      :     0.985153  p :     2.873860
      px      :     0.923909
      py      :     0.964797
      dz2     :     0.004820  d :     0.088410
      dxz     :     0.027018
      dyz     :     0.005224
      dx2y2   :     0.032524
      dxy     :     0.018824
      f0      :     0.001494  f :     0.007404
      f+1     :     0.000511
      f-1     :     0.000656
      f+2     :     0.000202
      f-2     :     0.001162
      f+3     :     0.002051
      f-3     :     0.001328
  9 C s       :     3.173743  s :     3.173743
      pz      :     1.006429  p :     2.525699
      px      :     0.735925
      py      :     0.783345
      dz2     :     0.007693  d :     0.148654
      dxz     :     0.024755
      dyz     :     0.025515
      dx2y2   :     0.044466
      dxy     :     0.046225
      f0      :     0.001856  f :     0.009691
      f+1     :     0.000803
      f-1     :     0.000594
      f+2     :     0.000951
      f-2     :     0.000943
      f+3     :     0.003029
      f-3     :     0.001514
 10 Brs       :     7.907842  s :     7.907842
      pz      :     5.942750  p :    17.126617
      px      :     5.336874
      py      :     5.846993
      dz2     :     2.006428  d :    10.056178
      dxz     :     2.017909
      dyz     :     2.003841
      dx2y2   :     2.013317
      dxy     :     2.014684
      f0      :     0.000854  f :     0.007599
      f+1     :     0.001249
      f-1     :     0.000340
      f+2     :     0.000584
      f-2     :     0.000699
      f+3     :     0.001402
      f-3     :     0.002470
 11 C s       :     3.194413  s :     3.194413
      pz      :     0.981867  p :     2.853565
      px      :     0.954250
      py      :     0.917447
      dz2     :     0.004947  d :     0.083440
      dxz     :     0.011869
      dyz     :     0.019626
      dx2y2   :     0.022308
      dxy     :     0.024689
      f0      :     0.001576  f :     0.007586
      f+1     :     0.000601
      f-1     :     0.000593
      f+2     :     0.001092
      f-2     :     0.000375
      f+3     :     0.001992
      f-3     :     0.001357
 12 C s       :     3.280659  s :     3.280659
      pz      :     1.011298  p :     2.861082
      px      :     0.878581
      py      :     0.971203
      dz2     :     0.005018  d :     0.074814
      dxz     :     0.024297
      dyz     :     0.004550
      dx2y2   :     0.022821
      dxy     :     0.018127
      f0      :     0.001510  f :     0.007140
      f+1     :     0.000458
      f-1     :     0.000659
      f+2     :     0.000168
      f-2     :     0.001118
      f+3     :     0.001971
      f-3     :     0.001256
 13 C s       :     3.053127  s :     3.053127
      pz      :     0.954316  p :     2.643571
      px      :     0.758208
      py      :     0.931046
      dz2     :     0.003768  d :     0.131992
      dxz     :     0.039075
      dyz     :     0.023747
      dx2y2   :     0.041448
      dxy     :     0.023954
      f0      :     0.002303  f :     0.014378
      f+1     :     0.001261
      f-1     :     0.000683
      f+2     :     0.002233
      f-2     :     0.001114
      f+3     :     0.004194
      f-3     :     0.002590
 14 N s       :     3.452319  s :     3.452319
      pz      :     1.552026  p :     3.725819
      px      :     1.093856
      py      :     1.079938
      dz2     :     0.004979  d :     0.067237
      dxz     :     0.016907
      dyz     :     0.007288
      dx2y2   :     0.017880
      dxy     :     0.020183
      f0      :     0.000820  f :     0.004744
      f+1     :     0.000569
      f-1     :     0.000678
      f+2     :     0.000348
      f-2     :     0.000381
      f+3     :     0.000947
      f-3     :     0.001001
 15 H s       :     0.865990  s :     0.865990
      pz      :     0.009684  p :     0.021408
      px      :     0.005096
      py      :     0.006628
 16 H s       :     0.867499  s :     0.867499
      pz      :     0.004425  p :     0.021506
      px      :     0.012770
      py      :     0.004311
 17 H s       :     0.865991  s :     0.865991
      pz      :     0.009684  p :     0.021408
      px      :     0.005096
      py      :     0.006628
 18 H s       :     0.871002  s :     0.871002
      pz      :     0.010066  p :     0.021145
      px      :     0.003825
      py      :     0.007254
 19 H s       :     0.871007  s :     0.871007
      pz      :     0.010066  p :     0.021144
      px      :     0.003825
      py      :     0.007254
 20 H s       :     0.862109  s :     0.862109
      pz      :     0.005108  p :     0.022657
      px      :     0.004417
      py      :     0.013132
 21 H s       :     0.859474  s :     0.859474
      pz      :     0.004773  p :     0.022456
      px      :     0.003560
      py      :     0.014122
 22 H s       :     0.852917  s :     0.852917
      pz      :     0.004950  p :     0.022781
      px      :     0.011186
      py      :     0.006645
 23 H s       :     0.867819  s :     0.867819
      pz      :     0.005008  p :     0.022387
      px      :     0.003402
      py      :     0.013977
 24 H s       :     0.731145  s :     0.731145
      pz      :     0.011246  p :     0.039120
      px      :     0.009093
      py      :     0.018780


                     *******************************
                     * LOEWDIN POPULATION ANALYSIS *
                     *******************************

----------------------
LOEWDIN ATOMIC CHARGES
----------------------
   0 C :   -0.301941
   1 C :   -0.298390
   2 O :    0.281082
   3 C :   -0.474050
   4 O :    0.100606
   5 C :   -0.185994
   6 C :   -0.085274
   7 C :   -0.110848
   8 C :   -0.109794
   9 C :   -0.383815
  10 Br:    0.327260
  11 C :   -0.146003
  12 C :   -0.116893
  13 C :   -0.151376
  14 N :    0.246623
  15 H :    0.121673
  16 H :    0.125238
  17 H :    0.121671
  18 H :    0.127380
  19 H :    0.127382
  20 H :    0.145746
  21 H :    0.149171
  22 H :    0.147251
  23 H :    0.145954
  24 H :    0.197341

-------------------------------
LOEWDIN REDUCED ORBITAL CHARGES
-------------------------------
  0 C s       :     2.834630  s :     2.834630
      pz      :     1.074934  p :     3.186649
      px      :     1.062463
      py      :     1.049252
      dz2     :     0.037086  d :     0.254685
      dxz     :     0.012574
      dyz     :     0.092507
      dx2y2   :     0.075474
      dxy     :     0.037044
      f0      :     0.002493  f :     0.025978
      f+1     :     0.003121
      f-1     :     0.003998
      f+2     :     0.002308
      f-2     :     0.004446
      f+3     :     0.005462
      f-3     :     0.004149
  1 C s       :     2.805115  s :     2.805115
      pz      :     1.067282  p :     2.916193
      px      :     0.772933
      py      :     1.075978
      dz2     :     0.055959  d :     0.507984
      dxz     :     0.099411
      dyz     :     0.102389
      dx2y2   :     0.136332
      dxy     :     0.113893
      f0      :     0.007306  f :     0.069099
      f+1     :     0.007789
      f-1     :     0.004581
      f+2     :     0.011723
      f-2     :     0.004174
      f+3     :     0.015142
      f-3     :     0.018383
  2 O s       :     3.240820  s :     3.240820
      pz      :     1.568546  p :     4.362927
      px      :     1.306643
      py      :     1.487738
      dz2     :     0.011119  d :     0.108296
      dxz     :     0.016423
      dyz     :     0.009264
      dx2y2   :     0.036835
      dxy     :     0.034654
      f0      :     0.000599  f :     0.006875
      f+1     :     0.000636
      f-1     :     0.000546
      f+2     :     0.000882
      f-2     :     0.000345
      f+3     :     0.001544
      f-3     :     0.002324
  3 C s       :     2.731420  s :     2.731420
      pz      :     0.753811  p :     2.639857
      px      :     0.961509
      py      :     0.924537
      dz2     :     0.063519  d :     0.948244
      dxz     :     0.091607
      dyz     :     0.188883
      dx2y2   :     0.336373
      dxy     :     0.267862
      f0      :     0.009318  f :     0.154529
      f+1     :     0.006630
      f-1     :     0.013000
      f+2     :     0.012266
      f-2     :     0.025134
      f+3     :     0.025739
      f-3     :     0.062442
  4 O s       :     3.391695  s :     3.391695
      pz      :     1.334156  p :     4.433362
      px      :     1.581898
      py      :     1.517309
      dz2     :     0.008140  d :     0.067962
      dxz     :     0.003602
      dyz     :     0.011854
      dx2y2   :     0.020905
      dxy     :     0.023461
      f0      :     0.000492  f :     0.006374
      f+1     :     0.000279
      f-1     :     0.000840
      f+2     :     0.000354
      f-2     :     0.000598
      f+3     :     0.001893
      f-3     :     0.001918
  5 C s       :     2.704404  s :     2.704404
      pz      :     0.910092  p :     2.817824
      px      :     0.957303
      py      :     0.950429
      dz2     :     0.043173  d :     0.583517
      dxz     :     0.057774
      dyz     :     0.126725
      dx2y2   :     0.188860
      dxy     :     0.166985
      f0      :     0.005577  f :     0.080248
      f+1     :     0.005801
      f-1     :     0.005888
      f+2     :     0.003922
      f-2     :     0.017249
      f+3     :     0.014890
      f-3     :     0.026921
  6 C s       :     2.751660  s :     2.751660
      pz      :     0.928207  p :     2.926817
      px      :     0.994010
      py      :     1.004600
      dz2     :     0.025322  d :     0.359359
      dxz     :     0.071513
      dyz     :     0.022516
      dx2y2   :     0.121252
      dxy     :     0.118755
      f0      :     0.003173  f :     0.047438
      f+1     :     0.003812
      f-1     :     0.004124
      f+2     :     0.003099
      f-2     :     0.007706
      f+3     :     0.012442
      f-3     :     0.013082
  7 C s       :     2.684468  s :     2.684468
      pz      :     0.868825  p :     2.838375
      px      :     0.991584
      py      :     0.977965
      dz2     :     0.035824  d :     0.525919
      dxz     :     0.095240
      dyz     :     0.062830
      dx2y2   :     0.176524
      dxy     :     0.155501
      f0      :     0.003988  f :     0.062086
      f+1     :     0.004833
      f-1     :     0.004051
      f+2     :     0.009915
      f-2     :     0.005033
      f+3     :     0.022870
      f-3     :     0.011397
  8 C s       :     2.757558  s :     2.757558
      pz      :     0.890774  p :     2.926583
      px      :     1.042753
      py      :     0.993056
      dz2     :     0.025978  d :     0.381893
      dxz     :     0.084134
      dyz     :     0.013459
      dx2y2   :     0.153266
      dxy     :     0.105056
      f0      :     0.003272  f :     0.043761
      f+1     :     0.004525
      f-1     :     0.003492
      f+2     :     0.001428
      f-2     :     0.008491
      f+3     :     0.013511
[...]

 --------------
 Nucleus   6C :
 --------------

Diamagnetic contribution to the shielding tensor (ppm) : 
           266.390          1.347         0.000
             2.718        262.334         0.000
             0.001          0.003       238.629

Paramagnetic contribution to the shielding tensor (ppm): 
          -226.317         35.077        -0.000
            13.764       -239.962        -0.001
            -0.002         -0.002       -81.146

Total shielding tensor (ppm): 
            40.073         36.424         0.000
            16.482         22.373        -0.001
            -0.001          0.001       157.483


 Diagonalized sT*s matrix:
 
 sDSO           262.302          266.422          238.629  iso=     255.784
 sPSO          -257.651         -208.628          -81.146  iso=    -182.475
        ---------------  ---------------  ---------------
 Total            4.651           57.794          157.483  iso=      73.310

 --------------
 Nucleus   7C :
 --------------

Diamagnetic contribution to the shielding tensor (ppm) : 
           267.562          4.218         0.000
             3.274        252.840        -0.000
             0.001          0.001       229.884

Paramagnetic contribution to the shielding tensor (ppm): 
          -266.565          8.289         0.001
             4.382       -265.984        -0.000
             0.001          0.000       -74.350

Total shielding tensor (ppm): 
             0.996         12.507         0.001
             7.656        -13.144        -0.000
             0.002          0.001       155.534


 Diagonalized sT*s matrix:
 
 sDSO           268.411          251.990          229.884  iso=     250.095
 sPSO          -263.050         -269.499          -74.350  iso=    -202.300
        ---------------  ---------------  ---------------
 Total            5.362          -17.510          155.534  iso=      47.796

 --------------
 Nucleus   8C :
 --------------

Diamagnetic contribution to the shielding tensor (ppm) : 
           272.599          1.828        -0.000
             1.672        261.200         0.000
            -0.001         -0.001       238.108

Paramagnetic contribution to the shielding tensor (ppm): 
          -226.033        -21.156         0.001
           -23.170       -294.837         0.001
             0.002          0.000       -90.896

Total shielding tensor (ppm): 
            46.566        -19.327         0.001
           -21.498        -33.636         0.001
             0.001         -0.001       147.213


 Diagonalized sT*s matrix:
 
 sDSO           261.987          271.812          238.108  iso=     257.303
 sPSO          -299.899         -220.971          -90.896  iso=    -203.922
        ---------------  ---------------  ---------------
 Total          -37.912           50.842          147.213  iso=      53.381

 --------------
 Nucleus   9C :
 --------------

Diamagnetic contribution to the shielding tensor (ppm) : 
           263.588          4.167        -0.001
             3.794        257.163        -0.000
             0.002         -0.000       231.152

Paramagnetic contribution to the shielding tensor (ppm): 
          -280.675        -50.642         0.002
           -52.633       -220.379         0.001
            -0.003         -0.000      -112.490

Total shielding tensor (ppm): 
           -17.088        -46.474         0.001
           -48.839         36.784         0.000
            -0.001         -0.001       118.662


 Diagonalized sT*s matrix:
 
 sDSO           265.286          255.465          231.152  iso=     250.634
 sPSO          -309.789         -191.265         -112.490  iso=    -204.515
        ---------------  ---------------  ---------------
 Total          -44.504           64.200          118.662  iso=      46.119

 --------------
 Nucleus  10Br:
 --------------

Diamagnetic contribution to the shielding tensor (ppm) : 
          3127.238          2.966        -0.000
             3.020       3122.440         0.000
            -0.000         -0.000      3134.646

Paramagnetic contribution to the shielding tensor (ppm): 
          -387.686        493.534        -0.009
           506.325      -1212.954        -0.001
            -0.004         -0.022     -1601.593

Total shielding tensor (ppm): 
          2739.552        496.501        -0.009
           509.345       1909.486        -0.001
            -0.005         -0.023      1533.053


 Diagonalized sT*s matrix:
 
 sDSO          3134.646         3121.003         3128.675  iso=    3128.108
 sPSO         -1601.593        -1448.543         -152.097  iso=   -1067.411
        ---------------  ---------------  ---------------
 Total         1533.053         1672.460         2976.578  iso=    2060.697

 --------------
 Nucleus  11C :
 --------------

Diamagnetic contribution to the shielding tensor (ppm) : 
           266.005          7.055        -0.000
             5.683        265.456        -0.000
            -0.000          0.001       218.317

Paramagnetic contribution to the shielding tensor (ppm): 
          -274.929         37.959         0.000
            46.899       -255.604         0.001
            -0.000          0.001       -69.102

Total shielding tensor (ppm): 
            -8.924         45.014        -0.000
            52.583          9.852         0.000
            -0.001          0.002       149.215


 Diagonalized sT*s matrix:
 
 sDSO           263.514          267.947          218.317  iso=     249.926
 sPSO          -269.094         -261.439          -69.102  iso=    -199.878
        ---------------  ---------------  ---------------
 Total           -5.580            6.507          149.215  iso=      50.048

 --------------
 Nucleus  12C :
 --------------

Diamagnetic contribution to the shielding tensor (ppm) : 
           269.647         -3.312        -0.000
            -1.085        258.071        -0.000
             0.001         -0.005       236.540

Paramagnetic contribution to the shielding tensor (ppm): 
          -212.940          5.999         0.000
             8.156       -276.897         0.001
            -0.001          0.006       -68.809

Total shielding tensor (ppm): 
            56.707          2.687         0.000
             7.071        -18.826         0.001
             0.001          0.002       167.731


 Diagonalized sT*s matrix:
 
 sDSO           258.101          269.618          236.540  iso=     254.753
 sPSO          -276.988         -212.849          -68.809  iso=    -186.216
        ---------------  ---------------  ---------------
 Total          -18.888           56.769          167.731  iso=      68.537

 --------------
 Nucleus  13C :
 --------------

Diamagnetic contribution to the shielding tensor (ppm) : 
           273.476         -0.679        -0.000
             2.028        257.977        -0.000
             0.003         -0.003       249.337

Paramagnetic contribution to the shielding tensor (ppm): 
          -292.512        -24.650         0.000
           -25.340       -254.513         0.001
             0.000         -0.001      -103.645

Total shielding tensor (ppm): 
           -19.036        -25.329         0.000
           -23.312          3.464         0.000
             0.003         -0.004       145.692


 Diagonalized sT*s matrix:
 
 sDSO           262.760          268.693          249.337  iso=     260.263
 sPSO          -243.971         -303.054         -103.645  iso=    -216.890
        ---------------  ---------------  ---------------
 Total           18.788          -34.361          145.692  iso=      43.373

 --------------
 Nucleus  14N :
 --------------

Diamagnetic contribution to the shielding tensor (ppm) : 
           335.410         -1.125        -0.000
             1.306        325.896        -0.001
             0.000          0.003       299.809

Paramagnetic contribution to the shielding tensor (ppm): 
          -223.995        -27.559         0.000
           -20.825       -270.550         0.001
            -0.002         -0.005      -130.393

Total shielding tensor (ppm): 
           111.415        -28.683         0.000
           -19.520         55.347         0.001
            -0.002         -0.002       169.416


 Diagonalized sT*s matrix:
 
 sDSO           327.284          334.022          299.809  iso=     320.372
 sPSO          -280.818         -213.727         -130.393  iso=    -208.313
        ---------------  ---------------  ---------------
 Total           46.466          120.295          169.416  iso=     112.059

 --------------
 Nucleus  15H :
 --------------

Diamagnetic contribution to the shielding tensor (ppm) : 
            24.582         -0.755        -1.744
            -8.295         31.911        -5.642
            -1.090        -10.097        23.174

Paramagnetic contribution to the shielding tensor (ppm): 
             3.897          0.128         0.711
             8.431         -0.120         1.516
             0.410          6.301         7.975

Total shielding tensor (ppm): 
            28.480         -0.627        -1.033
             0.136         31.791        -4.125
            -0.680         -3.795        31.148


 Diagonalized sT*s matrix:
 
 sDSO            17.012           27.303           35.352  iso=      26.556
 sPSO            10.036            1.602            0.114  iso=       3.917
        ---------------  ---------------  ---------------
 Total           27.048           28.905           35.466  iso=      30.473

 --------------
 Nucleus  16H :
 --------------

Diamagnetic contribution to the shielding tensor (ppm) : 
            38.084         -5.064         0.000
            -8.434         16.922         0.000
             0.001          0.001        21.783

Paramagnetic contribution to the shielding tensor (ppm): 
            -1.512          3.014        -0.000
             5.870         11.981        -0.000
            -0.001         -0.001         4.909

Total shielding tensor (ppm): 
            36.572         -2.051        -0.000
            -2.564         28.903         0.000
            -0.000         -0.000        26.691


 Diagonalized sT*s matrix:
 
 sDSO            21.783           14.960           40.046  iso=      25.596
 sPSO             4.909           13.303           -2.834  iso=       5.126
        ---------------  ---------------  ---------------
 Total           26.691           28.262           37.212  iso=      30.722

 --------------
 Nucleus  17H :
 --------------

Diamagnetic contribution to the shielding tensor (ppm) : 
            24.582         -0.755         1.745
            -8.295         31.911         5.643
             1.092         10.097        23.175

Paramagnetic contribution to the shielding tensor (ppm): 
             3.898          0.128        -0.711
             8.432         -0.120        -1.518
            -0.412         -6.301         7.975

Total shielding tensor (ppm): 
            28.480         -0.627         1.033
             0.136         31.791         4.125
             0.680          3.796        31.149


 Diagonalized sT*s matrix:
 
 sDSO            17.011           27.305           35.353  iso=      26.556
 sPSO            10.038            1.601            0.114  iso=       3.917
        ---------------  ---------------  ---------------
 Total           27.048           28.905           35.467  iso=      30.473

 --------------
 Nucleus  18H :
 --------------

Diamagnetic contribution to the shielding tensor (ppm) : 
            32.280          0.332         6.140
             8.591         24.910         6.751
             6.130          1.725        25.157

Paramagnetic contribution to the shielding tensor (ppm): 
            -2.588          0.126        -2.970
            -9.408          2.922        -4.475
            -3.167          0.647         0.395

Total shielding tensor (ppm): 
            29.692          0.458         3.169
            -0.817         27.832         2.276
             2.963          2.373        25.552


 Diagonalized sT*s matrix:
 
 sDSO            20.798           23.328           38.221  iso=      27.449
 sPSO             2.166            5.188           -6.625  iso=       0.243
        ---------------  ---------------  ---------------
 Total           22.964           28.516           31.595  iso=      27.692

 --------------
 Nucleus  19H :
 --------------

Diamagnetic contribution to the shielding tensor (ppm) : 
            32.280          0.332        -6.140
             8.592         24.909        -6.752
            -6.134         -1.724        25.156

Paramagnetic contribution to the shielding tensor (ppm): 
            -2.589          0.127         2.970
            -9.409          2.923         4.476
             3.170         -0.649         0.396

Total shielding tensor (ppm): 
            29.692          0.458        -3.169
            -0.817         27.832        -2.276
            -2.963         -2.373        25.552


 Diagonalized sT*s matrix:
 
 sDSO            20.796           23.327           38.222  iso=      27.448
 sPSO             2.167            5.189           -6.626  iso=       0.243
        ---------------  ---------------  ---------------
 Total           22.964           28.517           31.595  iso=      27.692

 --------------
 Nucleus  20H :
 --------------

Diamagnetic contribution to the shielding tensor (ppm) : 
            31.831         -2.908         0.000
            -4.083         45.139        -0.000
            -0.001         -0.000        30.286

Paramagnetic contribution to the shielding tensor (ppm): 
            -2.933          3.963        -0.000
             4.800        -20.126         0.000
             0.001          0.000       -10.132

Total shielding tensor (ppm): 
            28.898          1.055         0.000
             0.717         25.013        -0.000
             0.000          0.000        20.153


 Diagonalized sT*s matrix:
 
 sDSO            30.286           45.992           30.978  iso=      35.752
 sPSO           -10.132          -21.171           -1.887  iso=     -11.064
        ---------------  ---------------  ---------------
 Total           20.153           24.821           29.090  iso=      24.688

 --------------
 Nucleus  21H :
 --------------

Diamagnetic contribution to the shielding tensor (ppm) : 
            31.972          1.481        -0.000
             0.216         43.600         0.000
            -0.000         -0.000        24.522

Paramagnetic contribution to the shielding tensor (ppm): 
            -0.876         -3.390         0.000
            -1.558        -20.915        -0.000
            -0.000          0.000        -6.314

Total shielding tensor (ppm): 
            31.096         -1.909        -0.000
            -1.342         22.684        -0.000
            -0.000         -0.000        18.208


 Diagonalized sT*s matrix:
 
 sDSO            24.522           43.501           32.071  iso=      33.365
 sPSO            -6.314          -21.119           -0.672  iso=      -9.368
        ---------------  ---------------  ---------------
 Total           18.208           22.382           31.399  iso=      23.996

 --------------
 Nucleus  22H :
 --------------

Diamagnetic contribution to the shielding tensor (ppm) : 
            38.678         -5.599        -0.000
            -5.605         35.324        -0.000
             0.000          0.000        12.973

Paramagnetic contribution to the shielding tensor (ppm): 
           -13.372          9.280         0.000
             8.662         -6.576         0.000
            -0.000         -0.000         6.153

Total shielding tensor (ppm): 
            25.306          3.681        -0.000
             3.056         28.749        -0.000
            -0.000          0.000        19.126


 Diagonalized sT*s matrix:
 
 sDSO            12.973           42.740           31.262  iso=      28.992
 sPSO             6.153          -19.495           -0.452  iso=      -4.598
        ---------------  ---------------  ---------------
 Total           19.126           23.245           30.810  iso=      24.394

 --------------
 Nucleus  23H :
 --------------

Diamagnetic contribution to the shielding tensor (ppm) : 
            28.597          0.196        -0.000
             1.613         44.349        -0.000
             0.001         -0.001        22.679

Paramagnetic contribution to the shielding tensor (ppm): 
             0.174         -0.329         0.000
            -1.409        -19.191         0.000
            -0.001          0.001        -2.966

Total shielding tensor (ppm): 
            28.771         -0.133        -0.000
             0.204         25.158        -0.000
             0.000         -0.000        19.713


 Diagonalized sT*s matrix:
 
 sDSO            22.679           44.336           28.610  iso=      31.875
 sPSO            -2.966          -19.178            0.161  iso=      -7.328
        ---------------  ---------------  ---------------
 Total           19.713           25.158           28.771  iso=      24.547

 --------------
 Nucleus  24H :
 --------------

Diamagnetic contribution to the shielding tensor (ppm) : 
            32.103          6.223        -0.000
             8.269         42.446        -0.000
            -0.000          0.000        25.724

Paramagnetic contribution to the shielding tensor (ppm): 
            -4.855         -4.989         0.000
            -7.260        -14.562         0.000
             0.000         -0.001       -10.590

Total shielding tensor (ppm): 
            27.248          1.233         0.000
             1.009         27.884        -0.000
             0.000         -0.000        15.134


 Diagonalized sT*s matrix:
 
 sDSO            25.724           28.880           45.669  iso=      33.424
 sPSO           -10.590           -2.480          -16.937  iso=     -10.002
        ---------------  ---------------  ---------------
 Total           15.134           26.400           28.731  iso=      23.422



--------------------------------
CHEMICAL SHIELDING SUMMARY (ppm)
--------------------------------


  Nucleus  Element    Isotropic     Anisotropy
  -------  -------  ------------   ------------
      0       C          168.238         22.658 
      1       C          118.447         58.598 
      2       O          125.675        125.084 
      3       C           16.770        -95.614 
      4       O          -53.156        559.900 
      5       C           49.636        101.885 
      6       C           73.310        126.261 
      7       C           47.796        161.608 
      8       C           53.381        140.748 
      9       C           46.119        108.814 
     10       Br        2060.697       1373.821 
     11       C           50.048        148.752 
     12       C           68.537        148.791 
     13       C           43.373        153.478 
     14       N          112.059         86.035 
     15       H           30.473          7.490 
     16       H           30.722          9.736 
     17       H           30.473          7.490 
     18       H           27.692          5.855 
     19       H           27.692          5.855 
     20       H           24.688          6.603 
     21       H           23.996         11.104 
     22       H           24.394          9.624 
     23       H           24.547          6.336 
     24       H           23.422          7.964 



Maximum memory used throughout the entire EPRNMR-calculation: 95.7 MB

Timings for individual modules:

Sum of individual times         ...       88.305 sec (=   1.472 min)
GTO integral calculation        ...        1.334 sec (=   0.022 min)   1.5 %
SCF iterations                  ...       57.765 sec (=   0.963 min)  65.4 %
EPR/NMR calculation             ...       29.206 sec (=   0.487 min)  33.1 %
                             ****ORCA TERMINATED NORMALLY****
TOTAL RUN TIME: 0 days 0 hours 1 minutes 29 seconds 66 msec
