 Entering Gaussian System, Link 0=/usr/local/Gaussian/G16C/g16/g16
 Input=popn/arbr34_wb97xd_popn.com
 Output=popn/arbr34_wb97xd_popn.log
 Initial command:
 /usr/local/Gaussian/G16C/g16/l1.exe "/home/rpaton/opt/midi/Gau-796559.inp" -scrdir="/home/rpaton/opt/midi/"
 Entering Link 1 = /usr/local/Gaussian/G16C/g16/l1.exe PID=    796560.
  
 Copyright (c) 1988-2019, Gaussian, Inc.  All Rights Reserved.
  
 This is part of the Gaussian(R) 16 program.  It is based on
 the Gaussian(R) 09 system (copyright 2009, Gaussian, Inc.),
 the Gaussian(R) 03 system (copyright 2003, Gaussian, Inc.),
 the Gaussian(R) 98 system (copyright 1998, Gaussian, Inc.),
 the Gaussian(R) 94 system (copyright 1995, Gaussian, Inc.),
 the Gaussian 92(TM) system (copyright 1992, Gaussian, Inc.),
 the Gaussian 90(TM) system (copyright 1990, Gaussian, Inc.),
 the Gaussian 88(TM) system (copyright 1988, Gaussian, Inc.),
 the Gaussian 86(TM) system (copyright 1986, Carnegie Mellon
 University), and the Gaussian 82(TM) system (copyright 1983,
 Carnegie Mellon University). Gaussian is a federally registered
 trademark of Gaussian, Inc.
  
 This software contains proprietary and confidential information,
 including trade secrets, belonging to Gaussian, Inc.
  
 This software is provided under written license and may be
 used, copied, transmitted, or stored only in accord with that
 written license.
  
 The following legend is applicable only to US Government
 contracts under FAR:
  
                    RESTRICTED RIGHTS LEGEND
  
 Use, reproduction and disclosure by the US Government is
 subject to restrictions as set forth in subparagraphs (a)
 and (c) of the Commercial Computer Software - Restricted
 Rights clause in FAR 52.227-19.
  
 Gaussian, Inc.
 340 Quinnipiac St., Bldg. 40, Wallingford CT 06492
  
  
 ---------------------------------------------------------------
 Warning -- This program may not be used in any manner that
 competes with the business of Gaussian, Inc. or will provide
 assistance to any competitor of Gaussian, Inc.  The licensee
 of this program is prohibited from giving any competitor of
 Gaussian, Inc. access to this program.  By using this program,
 the user acknowledges that Gaussian, Inc. is engaged in the
 business of creating and licensing software in the field of
 computational chemistry and represents and warrants to the
 licensee that it is not a competitor of Gaussian, Inc. and that
 it will not use this program in any manner prohibited above.
 ---------------------------------------------------------------
  

 Cite this work as:
 Gaussian 16, Revision C.01,
 M. J. Frisch, G. W. Trucks, H. B. Schlegel, G. E. Scuseria, 
 M. A. Robb, J. R. Cheeseman, G. Scalmani, V. Barone, 
 G. A. Petersson, H. Nakatsuji, X. Li, M. Caricato, A. V. Marenich, 
 J. Bloino, B. G. Janesko, R. Gomperts, B. Mennucci, H. P. Hratchian, 
 J. V. Ortiz, A. F. Izmaylov, J. L. Sonnenberg, D. Williams-Young, 
 F. Ding, F. Lipparini, F. Egidi, J. Goings, B. Peng, A. Petrone, 
 T. Henderson, D. Ranasinghe, V. G. Zakrzewski, J. Gao, N. Rega, 
 G. Zheng, W. Liang, M. Hada, M. Ehara, K. Toyota, R. Fukuda, 
 J. Hasegawa, M. Ishida, T. Nakajima, Y. Honda, O. Kitao, H. Nakai, 
 T. Vreven, K. Throssell, J. A. Montgomery, Jr., J. E. Peralta, 
 F. Ogliaro, M. J. Bearpark, J. J. Heyd, E. N. Brothers, K. N. Kudin, 
 V. N. Staroverov, T. A. Keith, R. Kobayashi, J. Normand, 
 K. Raghavachari, A. P. Rendell, J. C. Burant, S. S. Iyengar, 
 J. Tomasi, M. Cossi, J. M. Millam, M. Klene, C. Adamo, R. Cammi, 
 J. W. Ochterski, R. L. Martin, K. Morokuma, O. Farkas, 
 J. B. Foresman, and D. J. Fox, Gaussian, Inc., Wallingford CT, 2019.
 
 ******************************************
 Gaussian 16:  ES64L-G16RevC.01  3-Jul-2019
                25-Sep-2024 
 ******************************************
 %chk=arbr34_wb97xd_popn.chk
 %mem=48GB
 %nprocshared=24
 Will use up to   24 processors via shared memory.
 ------------------------------------------------
 # pop=(nbo6read,savenbos,hirshfeld) wb97xd/midix
 ------------------------------------------------
 1/38=1,163=2,172=1/1;
 2/12=2,17=6,18=5,40=1/2;
 3/5=20,11=2,25=1,30=1,74=-58/1,2,3;
 4//1;
 5/5=2,38=5/2;
 6/7=2,8=2,9=2,10=2,28=1,40=2,73=1,79=1,113=1,114=1,124=2103,126=1/1,12;
 99/5=1,9=1/99;
 -----------------------------------------
 arbr34_wb97xd_popncreated by GaussianPrep
 -----------------------------------------
 Symbolic Z-matrix:
 Charge =  0 Multiplicity = 1
 Br                    3.83154  -0.11031  0. 
 C                     1.94964   0.14419   0.00001 
 C                     1.43583   1.43759  0. 
 C                     0.05808   1.63711   0. 
 C                    -0.7857    0.53513   0. 
 C                    -0.25499  -0.76286   0. 
 C                     1.1125   -0.96912   0. 
 C                    -1.3752   -1.78627  0. 
 C                    -2.61468  -0.9096    0. 
 C                    -3.94872  -1.27683   0. 
 C                    -4.924    -0.27896  0. 
 C                    -4.56115   1.06739   0. 
 C                    -3.21884   1.43846  0. 
 C                    -2.24921   0.44467  0. 
 H                     2.11353   2.28553  0. 
 H                    -0.34327   2.64765   0. 
 H                     1.53421  -1.97061   0. 
 H                    -1.3334   -2.43507  -0.88701 
 H                    -1.3334   -2.43507   0.887 
 H                    -4.23715  -2.326    0. 
 H                    -5.97575  -0.55338  0. 
 H                    -5.33261   1.83313   0. 
 H                    -2.93756   2.48915  0. 
 
                          Input orientation:                          
 ---------------------------------------------------------------------
 Center     Atomic      Atomic             Coordinates (Angstroms)
 Number     Number       Type             X           Y           Z
 ---------------------------------------------------------------------
      1         35           0        3.831541   -0.110310   -0.000001
      2          6           0        1.949640    0.144188    0.000005
      3          6           0        1.435826    1.437592   -0.000001
      4          6           0        0.058084    1.637113    0.000003
      5          6           0       -0.785697    0.535134    0.000001
      6          6           0       -0.254988   -0.762855    0.000002
      7          6           0        1.112498   -0.969119    0.000004
      8          6           0       -1.375197   -1.786266   -0.000003
      9          6           0       -2.614683   -0.909601    0.000002
     10          6           0       -3.948719   -1.276830    0.000001
     11          6           0       -4.923995   -0.278960   -0.000002
     12          6           0       -4.561147    1.067392    0.000002
     13          6           0       -3.218836    1.438459   -0.000004
     14          6           0       -2.249210    0.444674   -0.000002
     15          1           0        2.113525    2.285526   -0.000003
     16          1           0       -0.343268    2.647645    0.000001
     17          1           0        1.534208   -1.970614    0.000002
     18          1           0       -1.333401   -2.435065   -0.887005
     19          1           0       -1.333403   -2.435068    0.886996
     20          1           0       -4.237146   -2.326001   -0.000001
     21          1           0       -5.975748   -0.553380   -0.000003
     22          1           0       -5.332606    1.833126    0.000002
     23          1           0       -2.937557    2.489153   -0.000002
 ---------------------------------------------------------------------
                    Distance matrix (angstroms):
                    1          2          3          4          5
     1  Br   0.000000
     2  C    1.899031   0.000000
     3  C    2.852271   1.391725   0.000000
     4  C    4.158421   2.409732   1.392114   0.000000
     5  C    4.662133   2.763134   2.397831   1.387921   0.000000
     6  C    4.138301   2.383928   2.775035   2.420302   1.402294
     7  C    2.851447   1.392932   2.428333   2.811447   2.421966
     8  C    5.469822   3.844632   4.277278   3.711309   2.395080
     9  C    6.495588   4.684391   4.681446   3.691807   2.330761
    10  C    7.867224   6.067119   6.030042   4.954345   3.645260
    11  C    8.757160   6.886647   6.587403   5.337832   4.217613
    12  C    8.474916   6.575915   6.008389   4.654232   3.812784
    13  C    7.218483   5.328065   4.654662   3.282936   2.595412
    14  C    6.106025   4.209588   3.816461   2.597213   1.466306
    15  H    2.948154   2.147600   1.085481   2.155290   3.386644
    16  H    5.003533   3.394808   2.151605   1.087317   2.158343
    17  H    2.956090   2.155220   3.409626   3.898030   3.414781
    18  H    5.733052   4.268219   4.842816   4.393819   3.147831
    19  H    5.733054   4.268218   4.842818   4.393820   3.147831
    20  H    8.367377   6.661693   6.807881   5.844251   4.483146
    21  H    9.817292   7.956028   7.674334   6.419142   5.302970
    22  H    9.367952   7.475535   6.779979   5.394252   4.728548
    23  H    7.251062   5.420660   4.498028   3.114456   2.906663
                    6          7          8          9         10
     6  C    0.000000
     7  C    1.382954   0.000000
     8  C    1.517313   2.618464   0.000000
     9  C    2.364254   3.727656   1.518179   0.000000
    10  C    3.729319   5.070562   2.623460   1.383658   0.000000
    11  C    4.694015   6.075818   3.855637   2.393873   1.395316
    12  C    4.678975   6.028070   4.277107   2.774387   2.422900
    13  C    3.691907   4.955490   3.714547   2.424538   2.811676
    14  C    2.331319   3.646902   2.396037   1.402723   2.419071
    15  H    3.860373   3.405109   5.361965   5.706557   7.031442
    16  H    3.411642   3.898748   4.552411   4.220584   5.329238
    17  H    2.158681   1.086661   2.915240   4.282411   5.526647
    18  H    2.178541   2.986336   1.099754   2.180712   2.994691
    19  H    2.178539   2.986334   1.099754   2.180708   2.994687
    20  H    4.277968   5.519042   2.912399   2.153735   1.088095
    21  H    5.724594   7.100427   4.762885   3.379889   2.152261
    22  H    5.702747   7.027940   5.362936   3.861302   3.403964
    23  H    4.215653   5.325654   4.551942   3.414056   3.899369
                   11         12         13         14         15
    11  C    0.000000
    12  C    1.394390   0.000000
    13  C    2.420144   1.392656   0.000000
    14  C    2.770942   2.394333   1.388446   0.000000
    15  H    7.490212   6.784917   5.399222   4.735208   0.000000
    16  H    5.435814   4.504187   3.119459   2.913022   2.483337
    17  H    6.676083   6.810494   5.849206   4.488638   4.295385
    18  H    4.281113   4.844825   4.398389   3.149346   5.912026
    19  H    4.281112   4.844824   4.398390   3.149346   5.912029
    20  H    2.159199   3.408826   3.899758   3.410063   7.848389
    21  H    1.086964   2.151278   3.401174   3.857875   8.572965
    22  H    2.151249   1.086967   2.150299   3.381587   7.459861
    23  H    3.407108   2.158112   1.087693   2.157247   5.055185
                   16         17         18         19         20
    16  H    0.000000
    17  H    4.985302   0.000000
    18  H    5.253673   3.037380   0.000000
    19  H    5.253675   3.037379   1.774001   0.000000
    20  H    6.316600   5.782286   3.038158   3.038154   0.000000
    21  H    6.478533   7.642512   5.087130   5.087129   2.482926
    22  H    5.055387   7.849941   5.915900   5.915899   4.300973
    23  H    2.599126   6.315553   5.254333   5.254334   4.987448
                   21         22         23
    21  H    0.000000
    22  H    2.471648   0.000000
    23  H    4.299722   2.483270   0.000000
 Stoichiometry    C13H9Br
 Framework group  C1[X(C13H9Br)]
 Deg. of freedom    63
 Full point group                 C1      NOp   1
 Largest Abelian subgroup         C1      NOp   1
 Largest concise Abelian subgroup C1      NOp   1
                         Standard orientation:                         
 ---------------------------------------------------------------------
 Center     Atomic      Atomic             Coordinates (Angstroms)
 Number     Number       Type             X           Y           Z
 ---------------------------------------------------------------------
      1         35           0       -3.831541   -0.110310    0.000001
      2          6           0       -1.949640    0.144188   -0.000005
      3          6           0       -1.435826    1.437592    0.000001
      4          6           0       -0.058084    1.637113   -0.000003
      5          6           0        0.785697    0.535134   -0.000001
      6          6           0        0.254988   -0.762855   -0.000002
      7          6           0       -1.112498   -0.969119   -0.000004
      8          6           0        1.375197   -1.786266    0.000003
      9          6           0        2.614683   -0.909601   -0.000002
     10          6           0        3.948719   -1.276830   -0.000001
     11          6           0        4.923995   -0.278960    0.000002
     12          6           0        4.561147    1.067392   -0.000002
     13          6           0        3.218836    1.438459    0.000004
     14          6           0        2.249210    0.444674    0.000002
     15          1           0       -2.113525    2.285526    0.000003
     16          1           0        0.343268    2.647645   -0.000001
     17          1           0       -1.534208   -1.970614   -0.000002
     18          1           0        1.333401   -2.435065    0.887005
     19          1           0        1.333403   -2.435068   -0.886996
     20          1           0        4.237146   -2.326001    0.000001
     21          1           0        5.975748   -0.553380    0.000003
     22          1           0        5.332606    1.833126   -0.000002
     23          1           0        2.937557    2.489153    0.000002
 ---------------------------------------------------------------------
 Rotational constants (GHZ):           2.1542214           0.2139549           0.1948630
 Standard basis: MIDIx (5D, 7F)
 There are   164 symmetry adapted cartesian basis functions of A   symmetry.
 There are   162 symmetry adapted basis functions of A   symmetry.
   162 basis functions,   285 primitive gaussians,   164 cartesian basis functions
    61 alpha electrons       61 beta electrons
       nuclear repulsion energy      1039.9692813284 Hartrees.
 NAtoms=   23 NActive=   23 NUniq=   23 SFac= 1.00D+00 NAtFMM=   60 NAOKFM=F Big=F
 Integral buffers will be    131072 words long.
 Raffenetti 2 integral format.
 Two-electron integral symmetry is turned on.
 Nuclear repulsion after empirical dispersion term =     1039.9546596922 Hartrees.
 One-electron integrals computed using PRISM.
 NBasis=   162 RedAO= T EigKep=  1.02D-03  NBF=   162
 NBsUse=   162 1.00D-06 EigRej= -1.00D+00 NBFU=   162
 ExpMin= 1.47D-01 ExpMax= 6.10D+03 ExpMxC= 6.10D+03 IAcc=3 IRadAn=         5 AccDes= 0.00D+00
 Harris functional with IExCor= 4639 and IRadAn=       5 diagonalized for initial guess.
 HarFok:  IExCor= 4639 AccDes= 0.00D+00 IRadAn=         5 IDoV= 1 UseB2=F ITyADJ=14
 ICtDFT=  3500011 ScaDFX=  1.000000  1.000000  1.000000  1.000000
 FoFCou: FMM=F IPFlag=           0 FMFlag=      100000 FMFlg1=           0
         NFxFlg=           0 DoJE=T BraDBF=F KetDBF=T FulRan=T
         wScrn=  0.000000 ICntrl=       500 IOpCl=  0 I1Cent=   200000004 NGrid=           0
         NMat0=    1 NMatS0=      1 NMatT0=    0 NMatD0=    1 NMtDS0=    0 NMtDT0=    0
 Petite list used in FoFCou.
 Requested convergence on RMS density matrix=1.00D-08 within 128 cycles.
 Requested convergence on MAX density matrix=1.00D-06.
 Requested convergence on             energy=1.00D-06.
 No special actions if energy rises.
 Integral accuracy reduced to 1.0D-05 until final iterations.
 Initial convergence to 1.0D-05 achieved.  Increase integral accuracy.
 SCF Done:  E(RwB97XD) =  -3059.76439164     A.U. after   15 cycles
            NFock= 15  Conv=0.67D-08     -V/T= 2.0025

 **********************************************************************

            Population analysis using the SCF Density.

 **********************************************************************

 Orbital symmetries:
       Occupied  (A) (A) (A) (A) (A) (A) (A) (A) (A) (A) (A) (A)
                 (A) (A) (A) (A) (A) (A) (A) (A) (A) (A) (A) (A)
                 (A) (A) (A) (A) (A) (A) (A) (A) (A) (A) (A) (A)
                 (A) (A) (A) (A) (A) (A) (A) (A) (A) (A) (A) (A)
                 (A) (A) (A) (A) (A) (A) (A) (A) (A) (A) (A) (A)
                 (A)
       Virtual   (A) (A) (A) (A) (A) (A) (A) (A) (A) (A) (A) (A)
                 (A) (A) (A) (A) (A) (A) (A) (A) (A) (A) (A) (A)
                 (A) (A) (A) (A) (A) (A) (A) (A) (A) (A) (A) (A)
                 (A) (A) (A) (A) (A) (A) (A) (A) (A) (A) (A) (A)
                 (A) (A) (A) (A) (A) (A) (A) (A) (A) (A) (A) (A)
                 (A) (A) (A) (A) (A) (A) (A) (A) (A) (A) (A) (A)
                 (A) (A) (A) (A) (A) (A) (A) (A) (A) (A) (A) (A)
                 (A) (A) (A) (A) (A) (A) (A) (A) (A) (A) (A) (A)
                 (A) (A) (A) (A) (A)
 The electronic state is 1-A.
 Alpha  occ. eigenvalues -- -480.14516 -62.57907 -56.16804 -56.16379 -56.16365
 Alpha  occ. eigenvalues --  -10.29407 -10.25568 -10.25321 -10.25262 -10.25118
 Alpha  occ. eigenvalues --  -10.24974 -10.24947 -10.24912 -10.24890 -10.24272
 Alpha  occ. eigenvalues --  -10.24166 -10.23996 -10.23942  -8.88751  -6.67231
 Alpha  occ. eigenvalues --   -6.65806  -6.65792  -2.77540  -2.77043  -2.77026
 Alpha  occ. eigenvalues --   -2.75853  -2.75848  -1.01413  -0.97638  -0.93098
 Alpha  occ. eigenvalues --   -0.89613  -0.86879  -0.86011  -0.81294  -0.80241
 Alpha  occ. eigenvalues --   -0.73923  -0.69336  -0.68738  -0.67812  -0.62088
 Alpha  occ. eigenvalues --   -0.58648  -0.57939  -0.54679  -0.54652  -0.53486
 Alpha  occ. eigenvalues --   -0.53266  -0.51234  -0.50480  -0.49417  -0.47509
 Alpha  occ. eigenvalues --   -0.45933  -0.44463  -0.44233  -0.42469  -0.41925
 Alpha  occ. eigenvalues --   -0.40089  -0.36130  -0.34822  -0.33988  -0.32676
 Alpha  occ. eigenvalues --   -0.28889
 Alpha virt. eigenvalues --    0.02939   0.05560   0.07536   0.09153   0.11009
 Alpha virt. eigenvalues --    0.17520   0.19174   0.20244   0.20330   0.22694
 Alpha virt. eigenvalues --    0.23288   0.24559   0.26160   0.28086   0.28582
 Alpha virt. eigenvalues --    0.28601   0.31061   0.33399   0.35768   0.36781
 Alpha virt. eigenvalues --    0.37680   0.39864   0.40459   0.45673   0.46133
 Alpha virt. eigenvalues --    0.47864   0.49165   0.53536   0.54488   0.56464
 Alpha virt. eigenvalues --    0.58162   0.59389   0.60497   0.61450   0.64107
 Alpha virt. eigenvalues --    0.64477   0.64656   0.64883   0.65150   0.66784
 Alpha virt. eigenvalues --    0.68082   0.69181   0.71311   0.72089   0.73726
 Alpha virt. eigenvalues --    0.75662   0.77773   0.78226   0.79298   0.80420
 Alpha virt. eigenvalues --    0.84979   0.85386   0.86558   0.90839   0.91673
 Alpha virt. eigenvalues --    0.93288   0.93398   0.94970   0.95083   0.95684
 Alpha virt. eigenvalues --    0.96192   0.96759   0.97826   0.98002   0.99830
 Alpha virt. eigenvalues --    1.00040   1.00849   1.01089   1.01937   1.02855
 Alpha virt. eigenvalues --    1.03983   1.04484   1.05783   1.05821   1.06174
 Alpha virt. eigenvalues --    1.09492   1.09642   1.12066   1.13576   1.14067
 Alpha virt. eigenvalues --    1.15595   1.18480   1.20256   1.22662   1.23693
 Alpha virt. eigenvalues --    1.26834   1.27836   1.36295   1.41724   1.44591
 Alpha virt. eigenvalues --    1.55167   1.58084   1.59432   1.62141   1.66987
 Alpha virt. eigenvalues --    1.68350   1.80102   1.83416   1.84431   1.97885
 Alpha virt. eigenvalues --    2.02943
          Condensed to atoms (all electrons):
               1          2          3          4          5          6
     1  Br  34.934040   0.212756  -0.039159   0.001787   0.000387   0.002280
     2  C    0.212756   5.043036   0.473845  -0.032339  -0.047099  -0.019835
     3  C   -0.039159   0.473845   4.961399   0.502022  -0.032330  -0.040131
     4  C    0.001787  -0.032339   0.502022   4.853919   0.465641  -0.014908
     5  C    0.000387  -0.047099  -0.032330   0.465641   4.988019   0.466462
     6  C    0.002280  -0.019835  -0.040131  -0.014908   0.466462   5.079060
     7  C   -0.040681   0.483744  -0.038423  -0.024537  -0.022078   0.472103
     8  C   -0.000024   0.000120   0.000802   0.000105  -0.050544   0.322046
     9  C    0.000001  -0.000104  -0.000105   0.000920  -0.045973  -0.082721
    10  C   -0.000000  -0.000000   0.000001   0.000019   0.001070   0.001350
    11  C    0.000000   0.000000   0.000000   0.000001   0.000981  -0.000089
    12  C   -0.000000   0.000000  -0.000001   0.000103   0.000360  -0.000119
    13  C   -0.000000   0.000001   0.000105  -0.001851   0.006199   0.000932
    14  C    0.000001   0.000967   0.000344   0.007162   0.343004  -0.044707
    15  H    0.000684  -0.021979   0.393874  -0.017831   0.002910   0.000116
    16  H   -0.000054   0.002751  -0.020876   0.395715  -0.019725   0.002676
    17  H    0.000736  -0.018825   0.002283   0.000054   0.002483  -0.015149
    18  H    0.000000   0.000046  -0.000005  -0.000017   0.000960  -0.025474
    19  H    0.000000   0.000046  -0.000005  -0.000017   0.000960  -0.025474
    20  H   -0.000000  -0.000000  -0.000000  -0.000000  -0.000119   0.000103
    21  H   -0.000000   0.000000  -0.000000  -0.000000   0.000002   0.000001
    22  H   -0.000000  -0.000000   0.000000  -0.000000  -0.000031   0.000001
    23  H   -0.000000  -0.000000  -0.000015   0.001484  -0.006676   0.000100
               7          8          9         10         11         12
     1  Br  -0.040681  -0.000024   0.000001  -0.000000   0.000000  -0.000000
     2  C    0.483744   0.000120  -0.000104  -0.000000   0.000000   0.000000
     3  C   -0.038423   0.000802  -0.000105   0.000001   0.000000  -0.000001
     4  C   -0.024537   0.000105   0.000920   0.000019   0.000001   0.000103
     5  C   -0.022078  -0.050544  -0.045973   0.001070   0.000981   0.000360
     6  C    0.472103   0.322046  -0.082721   0.001350  -0.000089  -0.000119
     7  C    4.890208   0.006259   0.001504   0.000022  -0.000000   0.000001
     8  C    0.006259   5.013261   0.326186   0.007495  -0.000084   0.000863
     9  C    0.001504   0.326186   5.075852   0.481891  -0.035090  -0.041884
    10  C    0.000022   0.007495   0.481891   4.877340   0.511551  -0.042967
    11  C   -0.000000  -0.000084  -0.035090   0.511551   4.937283   0.504615
    12  C    0.000001   0.000863  -0.041884  -0.042967   0.504615   4.940609
    13  C    0.000016  -0.000139  -0.013221  -0.027556  -0.048124   0.516476
    14  C    0.001128  -0.052085   0.472976  -0.025787  -0.036113  -0.038199
    15  H    0.002502   0.000004   0.000000  -0.000000  -0.000000   0.000000
    16  H   -0.000076  -0.000080   0.000109   0.000001   0.000000  -0.000016
    17  H    0.388229  -0.004630   0.000100   0.000001  -0.000000  -0.000000
    18  H   -0.003718   0.385955  -0.025641  -0.003624   0.000049  -0.000004
    19  H   -0.003718   0.385956  -0.025642  -0.003624   0.000049  -0.000004
    20  H    0.000001  -0.004867  -0.022574   0.396987  -0.020451   0.002541
    21  H   -0.000000  -0.000029   0.003454  -0.025081   0.402002  -0.024107
    22  H   -0.000000   0.000004   0.000162   0.002757  -0.023736   0.401497
    23  H    0.000001  -0.000082   0.002601  -0.000002   0.002590  -0.020364
              13         14         15         16         17         18
     1  Br  -0.000000   0.000001   0.000684  -0.000054   0.000736   0.000000
     2  C    0.000001   0.000967  -0.021979   0.002751  -0.018825   0.000046
     3  C    0.000105   0.000344   0.393874  -0.020876   0.002283  -0.000005
     4  C   -0.001851   0.007162  -0.017831   0.395715   0.000054  -0.000017
     5  C    0.006199   0.343004   0.002910  -0.019725   0.002483   0.000960
     6  C    0.000932  -0.044707   0.000116   0.002676  -0.015149  -0.025474
     7  C    0.000016   0.001128   0.002502  -0.000076   0.388229  -0.003718
     8  C   -0.000139  -0.052085   0.000004  -0.000080  -0.004630   0.385955
     9  C   -0.013221   0.472976   0.000000   0.000109   0.000100  -0.025641
    10  C   -0.027556  -0.025787  -0.000000   0.000001   0.000001  -0.003624
    11  C   -0.048124  -0.036113  -0.000000   0.000000  -0.000000   0.000049
    12  C    0.516476  -0.038199   0.000000  -0.000016  -0.000000  -0.000004
    13  C    4.856019   0.471311  -0.000000   0.001517  -0.000000  -0.000014
    14  C    0.471311   4.974750  -0.000025  -0.006408  -0.000108   0.001039
    15  H   -0.000000  -0.000025   0.433712  -0.003873  -0.000058  -0.000000
    16  H    0.001517  -0.006408  -0.003873   0.447193   0.000006   0.000002
    17  H   -0.000000  -0.000108  -0.000058   0.000006   0.436644   0.000743
    18  H   -0.000014   0.001039  -0.000000   0.000002   0.000743   0.463646
    19  H   -0.000014   0.001039  -0.000000   0.000002   0.000743  -0.023438
    20  H    0.000088   0.002804   0.000000   0.000000   0.000000   0.000799
    21  H    0.002896   0.000093  -0.000000  -0.000000  -0.000000  -0.000000
    22  H   -0.024625   0.003377   0.000000   0.000001   0.000000  -0.000000
    23  H    0.395970  -0.020521   0.000001   0.002389   0.000000   0.000002
              19         20         21         22         23
     1  Br   0.000000  -0.000000  -0.000000  -0.000000  -0.000000
     2  C    0.000046  -0.000000   0.000000  -0.000000  -0.000000
     3  C   -0.000005  -0.000000  -0.000000   0.000000  -0.000015
     4  C   -0.000017  -0.000000  -0.000000  -0.000000   0.001484
     5  C    0.000960  -0.000119   0.000002  -0.000031  -0.006676
     6  C   -0.025474   0.000103   0.000001   0.000001   0.000100
     7  C   -0.003718   0.000001  -0.000000  -0.000000   0.000001
     8  C    0.385956  -0.004867  -0.000029   0.000004  -0.000082
     9  C   -0.025642  -0.022574   0.003454   0.000162   0.002601
    10  C   -0.003624   0.396987  -0.025081   0.002757  -0.000002
    11  C    0.000049  -0.020451   0.402002  -0.023736   0.002590
    12  C   -0.000004   0.002541  -0.024107   0.401497  -0.020364
    13  C   -0.000014   0.000088   0.002896  -0.024625   0.395970
    14  C    0.001039   0.002804   0.000093   0.003377  -0.020521
    15  H   -0.000000   0.000000  -0.000000   0.000000   0.000001
    16  H    0.000002   0.000000  -0.000000   0.000001   0.002389
    17  H    0.000743   0.000000  -0.000000   0.000000   0.000000
    18  H   -0.023438   0.000799  -0.000000  -0.000000   0.000002
    19  H    0.463646   0.000799  -0.000000  -0.000000   0.000002
    20  H    0.000799   0.456511  -0.003849  -0.000064   0.000007
    21  H   -0.000000  -0.003849   0.453891  -0.003815  -0.000063
    22  H   -0.000000  -0.000064  -0.003815   0.453757  -0.003823
    23  H    0.000002   0.000007  -0.000063  -0.003823   0.454763
 Mulliken charges:
               1
     1  Br  -0.072753
     2  C   -0.077132
     3  C   -0.163621
     4  C   -0.137431
     5  C   -0.054863
     6  C   -0.078623
     7  C   -0.112486
     8  C   -0.336492
     9  C   -0.072800
    10  C   -0.151845
    11  C   -0.195432
    12  C   -0.199400
    13  C   -0.135988
    14  C   -0.056041
    15  H    0.209964
    16  H    0.198745
    17  H    0.206748
    18  H    0.228693
    19  H    0.228693
    20  H    0.191286
    21  H    0.194604
    22  H    0.194539
    23  H    0.191636
 Sum of Mulliken charges =  -0.00000
 Mulliken charges with hydrogens summed into heavy atoms:
               1
     1  Br  -0.072753
     2  C   -0.077132
     3  C    0.046343
     4  C    0.061313
     5  C   -0.054863
     6  C   -0.078623
     7  C    0.094262
     8  C    0.120894
     9  C   -0.072800
    10  C    0.039441
    11  C   -0.000828
    12  C   -0.004861
    13  C    0.055648
    14  C   -0.056041
 Electronic spatial extent (au):  <R**2>=           4877.9340
 Charge=             -0.0000 electrons
 Dipole moment (field-independent basis, Debye):
    X=              1.7789    Y=             -0.3541    Z=              0.0000  Tot=              1.8138
 Quadrupole moment (field-independent basis, Debye-Ang):
   XX=            -89.0395   YY=            -81.3821   ZZ=            -98.3848
   XY=             -0.9478   XZ=             -0.0000   YZ=             -0.0000
 Traceless Quadrupole moment (field-independent basis, Debye-Ang):
   XX=              0.5627   YY=              8.2200   ZZ=             -8.7826
   XY=             -0.9478   XZ=             -0.0000   YZ=             -0.0000
 Octapole moment (field-independent basis, Debye-Ang**2):
  XXX=            -83.1478  YYY=             -0.6444  ZZZ=              0.0001  XYY=            -30.0279
  XXY=             -1.5422  XXZ=              0.0001  XZZ=            -53.2305  YZZ=             -5.2478
  YYZ=              0.0001  XYZ=             -0.0001
 Hexadecapole moment (field-independent basis, Debye-Ang**3):
 XXXX=          -4555.0212 YYYY=           -675.7666 ZZZZ=           -108.7031 XXXY=             23.2828
 XXXZ=             -0.0003 YYYX=             10.0115 YYYZ=             -0.0001 ZZZX=             -0.0003
 ZZZY=             -0.0001 XXYY=           -879.2101 XXZZ=           -914.8747 YYZZ=           -149.5097
 XXYZ=             -0.0002 YYXZ=             -0.0001 ZZXY=              1.1385
 N-N= 1.039954659692D+03 E-N=-9.355863159902D+03  KE= 3.052241630058D+03
 There are a total of      525418 grid points.
 ElSum from          density=      122.0000186400
 ElSum from atomic densities=      122.0001586644
 Hirshfeld populations at iteration   1 (CA, CB, DipXYZ):
               1          2          3          4          5
     1  Br  17.525469  17.525469  -0.029289  -0.002151   0.000000
     2  C    2.996488   2.996488  -0.050090  -0.007375  -0.000000
     3  C    3.023001   3.023001  -0.005098   0.037706   0.000000
     4  C    3.017586   3.017586   0.015705   0.045353  -0.000000
     5  C    3.005875   3.005875   0.036331   0.020122   0.000000
     6  C    3.000036   3.000036   0.030126  -0.053365   0.000000
     7  C    3.023832   3.023832  -0.000996  -0.041604  -0.000000
     8  C    3.018084   3.018084  -0.000900  -0.003353   0.000000
     9  C    3.002065   3.002065  -0.037853  -0.049093  -0.000000
    10  C    3.021954   3.021954   0.017064  -0.045769   0.000000
    11  C    3.020531   3.020531   0.040772  -0.011361   0.000000
    12  C    3.021019   3.021019   0.030475   0.029976  -0.000001
    13  C    3.020133   3.020133  -0.010221   0.044977   0.000000
    14  C    3.006934   3.006934  -0.034671   0.023840   0.000000
    15  H    0.476771   0.476771  -0.086726   0.139411   0.000000
    16  H    0.476344   0.476344   0.051683   0.151444   0.000000
    17  H    0.476520   0.476520  -0.048151  -0.154963   0.000000
    18  H    0.476828   0.476828  -0.006203  -0.098474   0.120441
    19  H    0.476829   0.476829  -0.006203  -0.098474  -0.120440
    20  H    0.478333   0.478333   0.045469  -0.153214   0.000000
    21  H    0.478604   0.478604   0.156214  -0.040690   0.000000
    22  H    0.478544   0.478544   0.114619   0.113806   0.000000
    23  H    0.478229   0.478229  -0.033188   0.154567  -0.000000
       Tot  61.000009  61.000009   0.188870   0.001317   0.000003

 Dip from Atomic Chgs              0.510897  -0.140629   0.000002
         Total Dipole              0.699767  -0.139311   0.000005

 Hirshfeld charges, spin densities, dipoles, and CM5 charges using IRadAn=      5:
              Q-H        S-H        Dx         Dy         Dz        Q-CM5   
     1  Br  -0.050939   0.000000  -0.029289  -0.002151   0.000000  -0.036144
     2  C    0.007024   0.000000  -0.050090  -0.007375  -0.000000  -0.014097
     3  C   -0.046002   0.000000  -0.005098   0.037706   0.000000  -0.099270
     4  C   -0.035173   0.000000   0.015705   0.045353  -0.000000  -0.087138
     5  C   -0.011751   0.000000   0.036331   0.020122   0.000000  -0.016619
     6  C   -0.000073   0.000000   0.030126  -0.053365   0.000000  -0.010234
     7  C   -0.047663   0.000000  -0.000996  -0.041604  -0.000000  -0.098244
     8  C   -0.036169   0.000000  -0.000900  -0.003353   0.000000  -0.130520
     9  C   -0.004130   0.000000  -0.037853  -0.049093  -0.000000  -0.014407
    10  C   -0.043909   0.000000   0.017064  -0.045769   0.000000  -0.096424
    11  C   -0.041062   0.000000   0.040772  -0.011361   0.000000  -0.096241
    12  C   -0.042037   0.000000   0.030475   0.029976  -0.000001  -0.097206
    13  C   -0.040267   0.000000  -0.010221   0.044977   0.000000  -0.092330
    14  C   -0.013868   0.000000  -0.034671   0.023840   0.000000  -0.018773
    15  H    0.046459   0.000000  -0.086726   0.139411   0.000000   0.103066
    16  H    0.047313   0.000000   0.051683   0.151444   0.000000   0.103510
    17  H    0.046961   0.000000  -0.048151  -0.154963   0.000000   0.103840
    18  H    0.046343   0.000000  -0.006203  -0.098474   0.120441   0.100957
    19  H    0.046343   0.000000  -0.006203  -0.098474  -0.120440   0.100956
    20  H    0.043334   0.000000   0.045469  -0.153214   0.000000   0.099075
    21  H    0.042793   0.000000   0.156214  -0.040690   0.000000   0.098220
    22  H    0.042911   0.000000   0.114619   0.113806   0.000000   0.098354
    23  H    0.043542   0.000000  -0.033188   0.154567  -0.000000   0.099650
       Tot  -0.000019   0.000000   0.188870   0.001317   0.000003  -0.000019
 Hirshfeld charges with hydrogens summed into heavy atoms:
              Q-H       Q-CM5   
     1  Br  -0.050939  -0.036144
     2  C    0.007024  -0.014097
     3  C    0.000456   0.003796
     4  C    0.012140   0.016372
     5  C   -0.011751  -0.016619
     6  C   -0.000073  -0.010234
     7  C   -0.000702   0.005597
     8  C    0.056517   0.071393
     9  C   -0.004130  -0.014407
    10  C   -0.000575   0.002651
    11  C    0.001731   0.001978
    12  C    0.000874   0.001147
    13  C    0.003276   0.007320
    14  C   -0.013868  -0.018773
 
 EQQ= 0.000000000000E+00 EQD= 0.000000000000E+00 EDD= 0.786551426355E-02
 EQQ+QD+DD= 0.786551426355E-02
 
 Running external command "gaunbo6 R"
         input file       "/home/rpaton/opt/midi/Gau-796560.EIn"
         output file      "/home/rpaton/opt/midi/Gau-796560.EOu"
         message file     "/home/rpaton/opt/midi/Gau-796560.EMs"
         fchk file        "/home/rpaton/opt/midi/Gau-796560.EFC"
         mat. el file     "/home/rpaton/opt/midi/Gau-796560.EUF"

 Writing WrtUnf unformatted file "/home/rpaton/opt/midi/Gau-796560.EUF"
 Gaussian matrix elements                                         Version   2 NLab=11 Len12L=8 Len4L=8
 Write SHELL TO ATOM MAP                   from file      0 offset           0 length                  94 to matrix element file.
 Write SHELL TYPES                         from file      0 offset           0 length                  94 to matrix element file.
 Write NUMBER OF PRIMITIVES PER SHELL      from file      0 offset           0 length                  94 to matrix element file.
 Write PRIMITIVE EXPONENTS                 from file      0 offset           0 length                 169 to matrix element file.
 Write CONTRACTION COEFFICIENTS            from file      0 offset           0 length                 169 to matrix element file.
 Write P(S=P) CONTRACTION COEFFICIENTS     from file      0 offset           0 length                 169 to matrix element file.
 Write COORDINATES OF EACH SHELL           from file      0 offset           0 length                 282 to matrix element file.
 Write BONDS PER ATOM                      from file      0 offset           0 length                  23 to matrix element file.
 Write BONDED ATOMS                        from file      0 offset           0 length                  50 to matrix element file.
 Write BOND TYPES                          from file      0 offset           0 length                  50 to matrix element file.
 Write ONIOM CHARGE/MULT                   from file      0 offset           0 length                  32 to matrix element file.
 Write ONIOM ATOM LAYERS                   from file      0 offset           0 length                  23 to matrix element file.
 Write ONIOM ATOM MODIFIERS                from file      0 offset           0 length                  23 to matrix element file.
 Write ONIOM ATOM TYPES                    from file      0 offset           0 length                  23 to matrix element file.
 Write ONIOM LINK ATOMS                    from file      0 offset           0 length                  23 to matrix element file.
 Write ONIOM LINK CHARGES                  from file      0 offset           0 length                  23 to matrix element file.
 Write ONIOM LINK DISTANCES                from file      0 offset           0 length                  92 to matrix element file.
 Write SYMINF INTS                         from file      0 offset           0 length                  26 to matrix element file.
 Write ROTTR TO SO                         from file      0 offset           0 length                  12 to matrix element file.
 Write GAUSSIAN SCALARS                    from file    501 offset           0 to matrix element file.
 Write OPTIMIZATION FLAGS                  from file      0 offset           0 length                  23 to matrix element file.
 Write INTEGER ISO                         from file      0 offset           0 length                  23 to matrix element file.
 Write INTEGER SPIN                        from file      0 offset           0 length                  23 to matrix element file.
 Write REAL ZEFFECTIVE                     from file      0 offset           0 length                  23 to matrix element file.
 Write REAL QUADRUPOLEMOMENT               from file      0 offset           0 length                  23 to matrix element file.
 Write REAL GFACTOR                        from file      0 offset           0 length                  23 to matrix element file.
 Write REAL ZNUCLEAR                       from file      0 offset           0 length                  23 to matrix element file.
 Write MULLIKEN CHARGES                    from file      0 offset           0 length                  23 to matrix element file.
 Write TYPE 6 CHARGES                      from file      0 offset           0 length                  23 to matrix element file.
 Write TYPE 7 CHARGES                      from file      0 offset           0 length                  23 to matrix element file.
 Write NUCLEAR GRADIENT                    from file  10584 offset           0 length                  69 to matrix element file.
 Array NUCLEAR FORCE CONSTANTS              on  file  10585 does not exist.
 Write ELECTRIC DIPOLE MOMENT              from file      0 offset           0 length                   3 to matrix element file.
 Write NON-ADIABATIC COUPLING              from file  10810 offset           0 length                  69 to matrix element file.
 Write FINITE EM FIELD                     from file  10521 offset           0 length                  35 to matrix element file.
 Write OVERLAP                             from file  10514 offset           0 length               13203 to matrix element file.
 Write CORE HAMILTONIAN ALPHA              from file  10515 offset           0 length               13203 to matrix element file.
 Write CORE HAMILTONIAN BETA               from file  10515 offset       13203 length               13203 to matrix element file.
 Write KINETIC ENERGY                      from file  10516 offset           0 length               13203 to matrix element file.
 Write ORTHOGONAL BASIS                    from file  10685 offset           0 length               26244 to matrix element file.
 Write DIPOLE INTEGRALS                    from file  10518 offset           0 length               39609 to matrix element file.
 Array DIP VEL INTEGRALS                    on  file  10572 does not exist.
 Array R X DEL INTEGRALS                    on  file  10572 does not exist.
 Write ALPHA ORBITAL ENERGIES              from file      0 offset           0 length                 162 to matrix element file.
 Write ALPHA MO COEFFICIENTS               from file  10524 offset           0 length               26244 to matrix element file.
 Write ALPHA DENSITY MATRIX                from file      0 offset           0 length               13203 to matrix element file.
 Write ALPHA FOCK MATRIX                   from file  10536 offset           0 length               13203 to matrix element file.
 Write ENERGY-WEIGHTED DENSITY             from file  10571 offset           0 length               13203 to matrix element file.
 Write ALPHA SCF DENSITY MATRIX            from file      0 offset           0 length               13203 to matrix element file.
 Write INTEGER PARAMETERS                  from file      0 offset           0 length                   2 to matrix element file.
 No 2e integrals to process.
 Perform NBO analysis...

 *********************************** NBO 7.0 ***********************************
             N A T U R A L   A T O M I C   O R B I T A L   A N D
          N A T U R A L   B O N D   O R B I T A L   A N A L Y S I S
 **************************** Robert Paton (I101709) ***************************
  (c) Copyright 1996-2019 Board of Regents of the University of Wisconsin System
      on behalf of the Theoretical Chemistry Institute.  All rights reserved.

          Cite this program [NBO 7.0.5 (4-Jun-2019)] as:

          NBO 7.0.  E. D. Glendening, J. K. Badenhoop, A. E. Reed,
          J. E. Carpenter, J. A. Bohmann, C. M. Morales, P. Karafiloglou,
          C. R. Landis, and F. Weinhold, Theoretical Chemistry Institute,
          University of Wisconsin, Madison, WI (2018)

       /AONBO  / : Checkpoint the AO to NBO transformation
                   NBOs sorted by occupancy
       /BNDIDX / : Print bond indices based on the NAO density matrix

 Filename set to /home/rpaton/opt/midi/Gau-796560

 Job title:  arbr34_wb97xd_popncreated by GaussianPrep


 NATURAL POPULATIONS:  Natural atomic orbital occupancies

  NAO Atom No lang   Type(AO)    Occupancy      Energy
 -------------------------------------------------------
   1   Br  1  s      Cor( 3s)     2.00000     -20.38167
   2   Br  1  s      Cor( 1s)     2.00000    -451.45308
   3   Br  1  s      Cor( 2s)     1.99999     -79.77625
   4   Br  1  s      Val( 4s)     1.87004      -0.76655
   5   Br  1  s      Ryd( 5s)     0.00287       0.85262
   6   Br  1  px     Cor( 3p)     2.00000      -7.16830
   7   Br  1  px     Cor( 2p)     1.99999     -55.67119
   8   Br  1  px     Val( 4p)     1.13301      -0.23166
   9   Br  1  px     Ryd( 5p)     0.00349       0.73761
  10   Br  1  py     Cor( 3p)     2.00000      -7.15411
  11   Br  1  py     Cor( 2p)     1.99999     -55.66767
  12   Br  1  py     Val( 4p)     1.96537      -0.35717
  13   Br  1  py     Ryd( 5p)     0.00136       0.76852
  14   Br  1  pz     Cor( 3p)     2.00000      -7.15399
  15   Br  1  pz     Cor( 2p)     2.00000     -55.66759
  16   Br  1  pz     Val( 4p)     1.94451      -0.35449
  17   Br  1  pz     Ryd( 5p)     0.00075       0.73233
  18   Br  1  dxy    Cor( 3d)     1.99968      -2.76984
  19   Br  1  dxy    Ryd( 4d)     0.00098       0.92738
  20   Br  1  dxz    Cor( 3d)     1.99987      -2.76980
  21   Br  1  dxz    Ryd( 4d)     0.00221       0.72149
  22   Br  1  dyz    Cor( 3d)     1.99999      -2.75868
  23   Br  1  dyz    Ryd( 4d)     0.00008       0.65101
  24   Br  1  dx2y2  Cor( 3d)     1.99944      -2.77005
  25   Br  1  dx2y2  Ryd( 4d)     0.00470       1.00003
  26   Br  1  dz2    Cor( 3d)     1.99980      -2.76243
  27   Br  1  dz2    Ryd( 4d)     0.00160       0.76625

  28    C  2  s      Cor( 1s)     1.99989     -10.29229
  29    C  2  s      Val( 2s)     0.93489      -0.14091
  30    C  2  s      Ryd( 3s)     0.00052       0.72236
  31    C  2  px     Val( 2p)     0.99496      -0.12171
  32    C  2  px     Ryd( 3p)     0.00666       1.35833
  33    C  2  py     Val( 2p)     1.11160      -0.06003
  34    C  2  py     Ryd( 3p)     0.00758       1.11034
  35    C  2  pz     Val( 2p)     1.07250      -0.15546
  36    C  2  pz     Ryd( 3p)     0.00076       0.95014

  37    C  3  s      Cor( 1s)     1.99986     -10.24612
  38    C  3  s      Val( 2s)     0.94601      -0.08187
  39    C  3  s      Ryd( 3s)     0.00092       0.73848
  40    C  3  px     Val( 2p)     1.13039      -0.04261
  41    C  3  px     Ryd( 3p)     0.00622       1.14813
  42    C  3  py     Val( 2p)     1.15898      -0.06256
  43    C  3  py     Ryd( 3p)     0.00522       1.23642
  44    C  3  pz     Val( 2p)     1.00740      -0.12272
  45    C  3  pz     Ryd( 3p)     0.00043       0.93359

  46    C  4  s      Cor( 1s)     1.99983     -10.24613
  47    C  4  s      Val( 2s)     0.93545      -0.06511
  48    C  4  s      Ryd( 3s)     0.00069       0.74024
  49    C  4  px     Val( 2p)     1.08387      -0.02310
  50    C  4  px     Ryd( 3p)     0.00496       1.08200
  51    C  4  py     Val( 2p)     1.19102      -0.06005
  52    C  4  py     Ryd( 3p)     0.00524       1.34113
  53    C  4  pz     Val( 2p)     0.99741      -0.11859
  54    C  4  pz     Ryd( 3p)     0.00034       0.93659

  55    C  5  s      Cor( 1s)     1.99987     -10.24923
  56    C  5  s      Val( 2s)     0.83865      -0.00837
  57    C  5  s      Ryd( 3s)     0.00091       0.76030
  58    C  5  px     Val( 2p)     1.08290      -0.02753
  59    C  5  px     Ryd( 3p)     0.00478       1.50750
  60    C  5  py     Val( 2p)     1.10630      -0.03184
  61    C  5  py     Ryd( 3p)     0.00554       1.47101
  62    C  5  pz     Val( 2p)     1.00534      -0.11295
  63    C  5  pz     Ryd( 3p)     0.00021       1.00689

  64    C  6  s      Cor( 1s)     1.99991     -10.25284
  65    C  6  s      Val( 2s)     0.84750      -0.03288
  66    C  6  s      Ryd( 3s)     0.00101       0.75640
  67    C  6  px     Val( 2p)     1.09511      -0.02938
  68    C  6  px     Ryd( 3p)     0.00490       1.50325
  69    C  6  py     Val( 2p)     1.06365      -0.03569
  70    C  6  py     Ryd( 3p)     0.00415       1.36726
  71    C  6  pz     Val( 2p)     0.98501      -0.11446
  72    C  6  pz     Ryd( 3p)     0.00098       1.00149

  73    C  7  s      Cor( 1s)     1.99984     -10.24781
  74    C  7  s      Val( 2s)     0.93362      -0.06596
  75    C  7  s      Ryd( 3s)     0.00115       0.73063
  76    C  7  px     Val( 2p)     1.09119      -0.02834
  77    C  7  px     Ryd( 3p)     0.00632       1.04060
  78    C  7  py     Val( 2p)     1.19885      -0.07655
  79    C  7  py     Ryd( 3p)     0.00569       1.32878
  80    C  7  pz     Val( 2p)     1.00677      -0.12274
  81    C  7  pz     Ryd( 3p)     0.00036       0.93601

  82    C  8  s      Cor( 1s)     1.99975     -10.24935
  83    C  8  s      Val( 2s)     1.02777      -0.15912
  84    C  8  s      Ryd( 3s)     0.00051       1.20802
  85    C  8  px     Val( 2p)     1.03497      -0.07534
  86    C  8  px     Ryd( 3p)     0.00243       0.95393
  87    C  8  py     Val( 2p)     1.17547      -0.09961
  88    C  8  py     Ryd( 3p)     0.00218       0.95971
  89    C  8  pz     Val( 2p)     1.27284      -0.12869
  90    C  8  pz     Ryd( 3p)     0.00059       1.09674

  91    C  9  s      Cor( 1s)     1.99991     -10.24686
  92    C  9  s      Val( 2s)     0.84817      -0.02875
  93    C  9  s      Ryd( 3s)     0.00102       0.75743
  94    C  9  px     Val( 2p)     1.09563      -0.02720
  95    C  9  px     Ryd( 3p)     0.00494       1.53463
  96    C  9  py     Val( 2p)     1.06391      -0.02829
  97    C  9  py     Ryd( 3p)     0.00402       1.34593
  98    C  9  pz     Val( 2p)     0.99070      -0.11019
  99    C  9  pz     Ryd( 3p)     0.00101       1.00636

 100    C 10  s      Cor( 1s)     1.99984     -10.23844
 101    C 10  s      Val( 2s)     0.93852      -0.06209
 102    C 10  s      Ryd( 3s)     0.00090       0.74753
 103    C 10  px     Val( 2p)     1.08011      -0.01300
 104    C 10  px     Ryd( 3p)     0.00518       1.03661
 105    C 10  py     Val( 2p)     1.20501      -0.06396
 106    C 10  py     Ryd( 3p)     0.00526       1.38224
 107    C 10  pz     Val( 2p)     1.00477      -0.11434
 108    C 10  pz     Ryd( 3p)     0.00031       0.94303

 109    C 11  s      Cor( 1s)     1.99987     -10.23693
 110    C 11  s      Val( 2s)     0.95176      -0.07881
 111    C 11  s      Ryd( 3s)     0.00058       0.75555
 112    C 11  px     Val( 2p)     1.20105      -0.06166
 113    C 11  px     Ryd( 3p)     0.00504       1.37742
 114    C 11  py     Val( 2p)     1.08076      -0.01447
 115    C 11  py     Ryd( 3p)     0.00487       1.05508
 116    C 11  pz     Val( 2p)     1.00210      -0.11398
 117    C 11  pz     Ryd( 3p)     0.00040       0.94047

 118    C 12  s      Cor( 1s)     1.99987     -10.23647
 119    C 12  s      Val( 2s)     0.95104      -0.07781
 120    C 12  s      Ryd( 3s)     0.00060       0.75544
 121    C 12  px     Val( 2p)     1.14055      -0.03723
 122    C 12  px     Ryd( 3p)     0.00493       1.21598
 123    C 12  py     Val( 2p)     1.14343      -0.03913
 124    C 12  py     Ryd( 3p)     0.00501       1.21736
 125    C 12  pz     Val( 2p)     1.00492      -0.11400
 126    C 12  pz     Ryd( 3p)     0.00037       0.94065

 127    C 13  s      Cor( 1s)     1.99983     -10.23931
 128    C 13  s      Val( 2s)     0.93623      -0.06005
 129    C 13  s      Ryd( 3s)     0.00076       0.74231
 130    C 13  px     Val( 2p)     1.07958      -0.01427
 131    C 13  px     Ryd( 3p)     0.00500       1.05779
 132    C 13  py     Val( 2p)     1.19803      -0.05805
 133    C 13  py     Ryd( 3p)     0.00507       1.37339
 134    C 13  pz     Val( 2p)     1.00034      -0.11332
 135    C 13  pz     Ryd( 3p)     0.00038       0.94157

 136    C 14  s      Cor( 1s)     1.99987     -10.24573
 137    C 14  s      Val( 2s)     0.83822      -0.00499
 138    C 14  s      Ryd( 3s)     0.00088       0.76271
 139    C 14  px     Val( 2p)     1.08299      -0.02281
 140    C 14  px     Ryd( 3p)     0.00482       1.52037
 141    C 14  py     Val( 2p)     1.10493      -0.03031
 142    C 14  py     Ryd( 3p)     0.00551       1.46081
 143    C 14  pz     Val( 2p)     1.01011      -0.11034
 144    C 14  pz     Ryd( 3p)     0.00019       1.00900

 145    H 15  s      Val( 1s)     0.73318       0.14512
 146    H 15  s      Ryd( 2s)     0.00117       0.61765

 147    H 16  s      Val( 1s)     0.74431       0.13609
 148    H 16  s      Ryd( 2s)     0.00079       0.64211

 149    H 17  s      Val( 1s)     0.73407       0.13897
 150    H 17  s      Ryd( 2s)     0.00120       0.62205

 151    H 18  s      Val( 1s)     0.71472       0.12205
 152    H 18  s      Ryd( 2s)     0.00089       0.61371

 153    H 19  s      Val( 1s)     0.71472       0.12205
 154    H 19  s      Ryd( 2s)     0.00089       0.61371

 155    H 20  s      Val( 1s)     0.74787       0.13797
 156    H 20  s      Ryd( 2s)     0.00077       0.62144

 157    H 21  s      Val( 1s)     0.74732       0.14389
 158    H 21  s      Ryd( 2s)     0.00075       0.61686

 159    H 22  s      Val( 1s)     0.74695       0.14444
 160    H 22  s      Ryd( 2s)     0.00075       0.61731

 161    H 23  s      Val( 1s)     0.74941       0.13730
 162    H 23  s      Ryd( 2s)     0.00079       0.64608


 Summary of Natural Population Analysis:

                                     Natural Population
             Natural    ---------------------------------------------
  Atom No    Charge        Core      Valence    Rydberg      Total
 --------------------------------------------------------------------
   Br  1    0.07025     27.99875     6.91293    0.01806    34.92975
    C  2   -0.12937      1.99989     4.11396    0.01552     6.12937
    C  3   -0.25543      1.99986     4.24278    0.01279     6.25543
    C  4   -0.21880      1.99983     4.20775    0.01122     6.21880
    C  5   -0.04449      1.99987     4.03319    0.01143     6.04449
    C  6   -0.00222      1.99991     3.99128    0.01103     6.00222
    C  7   -0.24377      1.99984     4.23042    0.01351     6.24377
    C  8   -0.51649      1.99975     4.51105    0.00570     6.51649
    C  9   -0.00931      1.99991     3.99841    0.01099     6.00931
    C 10   -0.23990      1.99984     4.22841    0.01165     6.23990
    C 11   -0.24644      1.99987     4.23567    0.01090     6.24644
    C 12   -0.25071      1.99987     4.23994    0.01090     6.25071
    C 13   -0.22522      1.99983     4.21419    0.01120     6.22522
    C 14   -0.04753      1.99987     4.03625    0.01141     6.04753
    H 15    0.26564      0.00000     0.73318    0.00117     0.73436
    H 16    0.25490      0.00000     0.74431    0.00079     0.74510
    H 17    0.26473      0.00000     0.73407    0.00120     0.73527
    H 18    0.28439      0.00000     0.71472    0.00089     0.71561
    H 19    0.28439      0.00000     0.71472    0.00089     0.71561
    H 20    0.25137      0.00000     0.74787    0.00077     0.74863
    H 21    0.25193      0.00000     0.74732    0.00075     0.74807
    H 22    0.25230      0.00000     0.74695    0.00075     0.74770
    H 23    0.24980      0.00000     0.74941    0.00079     0.75020
 ====================================================================
 * Total *  0.00000     53.99690    67.82879    0.17431   122.00000

                                 Natural Population
 ---------------------------------------------------------
   Core                      53.99690 ( 99.9943% of   54)
   Valence                   67.82879 ( 99.7482% of   68)
   Natural Minimal Basis    121.82569 ( 99.8571% of  122)
   Natural Rydberg Basis      0.17431 (  0.1429% of  122)
 ---------------------------------------------------------

    Atom No         Natural Electron Configuration
 ----------------------------------------------------------------------------
     Br  1      [core]4s( 1.87)4p( 5.04)4d( 0.01)5p( 0.01)
      C  2      [core]2s( 0.93)2p( 3.18)3p( 0.02)
      C  3      [core]2s( 0.95)2p( 3.30)3p( 0.01)
      C  4      [core]2s( 0.94)2p( 3.27)3p( 0.01)
      C  5      [core]2s( 0.84)2p( 3.19)3p( 0.01)
      C  6      [core]2s( 0.85)2p( 3.14)3p( 0.01)
      C  7      [core]2s( 0.93)2p( 3.30)3p( 0.01)
      C  8      [core]2s( 1.03)2p( 3.48)3p( 0.01)
      C  9      [core]2s( 0.85)2p( 3.15)3p( 0.01)
      C 10      [core]2s( 0.94)2p( 3.29)3p( 0.01)
      C 11      [core]2s( 0.95)2p( 3.28)3p( 0.01)
      C 12      [core]2s( 0.95)2p( 3.29)3p( 0.01)
      C 13      [core]2s( 0.94)2p( 3.28)3p( 0.01)
      C 14      [core]2s( 0.84)2p( 3.20)3p( 0.01)
      H 15            1s( 0.73)
      H 16            1s( 0.74)
      H 17            1s( 0.73)
      H 18            1s( 0.71)
      H 19            1s( 0.71)
      H 20            1s( 0.75)
      H 21            1s( 0.75)
      H 22            1s( 0.75)
      H 23            1s( 0.75)


 Wiberg bond index matrix in the NAO basis:

     Atom    1       2       3       4       5       6       7       8       9
     ---- ------  ------  ------  ------  ------  ------  ------  ------  ------
   1. Br  0.0000  1.0341  0.0354  0.0117  0.0114  0.0111  0.0351  0.0012  0.0014
   2.  C  1.0341  0.0000  1.4023  0.0139  0.0931  0.0142  1.3961  0.0068  0.0089
   3.  C  0.0354  1.4023  0.0000  1.4338  0.0117  0.1016  0.0148  0.0011  0.0002
   4.  C  0.0117  0.0139  1.4338  0.0000  1.3774  0.0138  0.1046  0.0055  0.0191
   5.  C  0.0114  0.0931  0.0117  1.3774  0.0000  1.3315  0.0130  0.0109  0.0110
   6.  C  0.0111  0.0142  0.1016  0.0138  1.3315  0.0000  1.4226  1.0067  0.0184
   7.  C  0.0351  1.3961  0.0148  0.1046  0.0130  1.4226  0.0000  0.0120  0.0044
   8.  C  0.0012  0.0068  0.0011  0.0055  0.0109  1.0067  0.0120  0.0000  1.0066
   9.  C  0.0014  0.0089  0.0002  0.0191  0.0110  0.0184  0.0044  1.0066  0.0000
  10.  C  0.0001  0.0003  0.0002  0.0001  0.0057  0.0042  0.0001  0.0117  1.4235
  11.  C  0.0010  0.0067  0.0002  0.0093  0.0003  0.0091  0.0004  0.0072  0.0124
  12.  C  0.0000  0.0002  0.0001  0.0003  0.0074  0.0003  0.0002  0.0010  0.1038
  13.  C  0.0013  0.0086  0.0003  0.0138  0.0120  0.0185  0.0002  0.0056  0.0140
  14.  C  0.0004  0.0004  0.0074  0.0124  1.0549  0.0111  0.0058  0.0104  1.3343
  15.  H  0.0048  0.0041  0.9026  0.0047  0.0058  0.0002  0.0058  0.0002  0.0001
  16.  H  0.0009  0.0058  0.0043  0.9077  0.0043  0.0070  0.0001  0.0004  0.0001
  17.  H  0.0048  0.0042  0.0058  0.0002  0.0071  0.0052  0.9005  0.0026  0.0000
  18.  H  0.0000  0.0001  0.0028  0.0002  0.0077  0.0027  0.0049  0.8822  0.0026
  19.  H  0.0000  0.0001  0.0028  0.0002  0.0077  0.0027  0.0049  0.8822  0.0026
  20.  H  0.0000  0.0000  0.0000  0.0001  0.0002  0.0000  0.0000  0.0025  0.0043
  21.  H  0.0000  0.0000  0.0000  0.0000  0.0002  0.0001  0.0000  0.0003  0.0057
  22.  H  0.0000  0.0000  0.0000  0.0000  0.0002  0.0002  0.0000  0.0002  0.0002
  23.  H  0.0000  0.0000  0.0001  0.0001  0.0021  0.0001  0.0000  0.0003  0.0070

     Atom   10      11      12      13      14      15      16      17      18
     ---- ------  ------  ------  ------  ------  ------  ------  ------  ------
   1. Br  0.0001  0.0010  0.0000  0.0013  0.0004  0.0048  0.0009  0.0048  0.0000
   2.  C  0.0003  0.0067  0.0002  0.0086  0.0004  0.0041  0.0058  0.0042  0.0001
   3.  C  0.0002  0.0002  0.0001  0.0003  0.0074  0.9026  0.0043  0.0058  0.0028
   4.  C  0.0001  0.0093  0.0003  0.0138  0.0124  0.0047  0.9077  0.0002  0.0002
   5.  C  0.0057  0.0003  0.0074  0.0120  1.0549  0.0058  0.0043  0.0071  0.0077
   6.  C  0.0042  0.0091  0.0003  0.0185  0.0111  0.0002  0.0070  0.0052  0.0027
   7.  C  0.0001  0.0004  0.0002  0.0002  0.0058  0.0058  0.0001  0.9005  0.0049
   8.  C  0.0117  0.0072  0.0010  0.0056  0.0104  0.0002  0.0004  0.0026  0.8822
   9.  C  1.4235  0.0124  0.1038  0.0140  1.3343  0.0001  0.0001  0.0000  0.0026
  10.  C  0.0000  1.4219  0.0114  0.1075  0.0134  0.0000  0.0000  0.0000  0.0049
  11.  C  1.4219  0.0000  1.4263  0.0115  0.0995  0.0000  0.0000  0.0000  0.0001
  12.  C  0.0114  1.4263  0.0000  1.4370  0.0120  0.0000  0.0001  0.0000  0.0028
  13.  C  0.1075  0.0115  1.4370  0.0000  1.3783  0.0000  0.0001  0.0001  0.0003
  14.  C  0.0134  0.0995  0.0120  1.3783  0.0000  0.0002  0.0021  0.0002  0.0076
  15.  H  0.0000  0.0000  0.0000  0.0000  0.0002  0.0000  0.0022  0.0003  0.0000
  16.  H  0.0000  0.0000  0.0001  0.0001  0.0021  0.0022  0.0000  0.0003  0.0001
  17.  H  0.0000  0.0000  0.0000  0.0001  0.0002  0.0003  0.0003  0.0000  0.0001
  18.  H  0.0049  0.0001  0.0028  0.0003  0.0076  0.0000  0.0001  0.0001  0.0000
  19.  H  0.0049  0.0001  0.0028  0.0003  0.0076  0.0000  0.0001  0.0001  0.0010
  20.  H  0.9103  0.0042  0.0062  0.0001  0.0071  0.0000  0.0000  0.0000  0.0001
  21.  H  0.0038  0.9126  0.0040  0.0061  0.0002  0.0000  0.0000  0.0000  0.0000
  22.  H  0.0062  0.0040  0.9122  0.0038  0.0059  0.0000  0.0000  0.0000  0.0000
  23.  H  0.0001  0.0062  0.0043  0.9109  0.0041  0.0000  0.0005  0.0000  0.0001

     Atom   19      20      21      22      23
     ---- ------  ------  ------  ------  ------
   1. Br  0.0000  0.0000  0.0000  0.0000  0.0000
   2.  C  0.0001  0.0000  0.0000  0.0000  0.0000
   3.  C  0.0028  0.0000  0.0000  0.0000  0.0001
   4.  C  0.0002  0.0001  0.0000  0.0000  0.0001
   5.  C  0.0077  0.0002  0.0002  0.0002  0.0021
   6.  C  0.0027  0.0000  0.0001  0.0002  0.0001
   7.  C  0.0049  0.0000  0.0000  0.0000  0.0000
   8.  C  0.8822  0.0025  0.0003  0.0002  0.0003
   9.  C  0.0026  0.0043  0.0057  0.0002  0.0070
  10.  C  0.0049  0.9103  0.0038  0.0062  0.0001
  11.  C  0.0001  0.0042  0.9126  0.0040  0.0062
  12.  C  0.0028  0.0062  0.0040  0.9122  0.0043
  13.  C  0.0003  0.0001  0.0061  0.0038  0.9109
  14.  C  0.0076  0.0071  0.0002  0.0059  0.0041
  15.  H  0.0000  0.0000  0.0000  0.0000  0.0000
  16.  H  0.0001  0.0000  0.0000  0.0000  0.0005
  17.  H  0.0001  0.0000  0.0000  0.0000  0.0000
  18.  H  0.0010  0.0001  0.0000  0.0000  0.0001
  19.  H  0.0000  0.0001  0.0000  0.0000  0.0001
  20.  H  0.0001  0.0000  0.0021  0.0003  0.0003
  21.  H  0.0000  0.0021  0.0000  0.0021  0.0003
  22.  H  0.0000  0.0003  0.0021  0.0000  0.0021
  23.  H  0.0001  0.0003  0.0003  0.0021  0.0000


 Wiberg bond index, Totals by atom:

     Atom    1
     ---- ------
   1. Br  1.1552
   2.  C  4.0002
   3.  C  3.9275
   4.  C  3.9292
   5.  C  3.9755
   6.  C  3.9813
   7.  C  3.9255
   8.  C  3.8576
   9.  C  3.9806
  10.  C  3.9303
  11.  C  3.9332
  12.  C  3.9325
  13.  C  3.9305
  14.  C  3.9753
  15.  H  0.9312
  16.  H  0.9362
  17.  H  0.9317
  18.  H  0.9204
  19.  H  0.9204
  20.  H  0.9380
  21.  H  0.9376
  22.  H  0.9375
  23.  H  0.9388


 NBI: Natural Binding Index (NCU strength parameters)

     Atom    1       2       3       4       5       6       7       8       9
     ---- ------  ------  ------  ------  ------  ------  ------  ------  ------
   1. Br  0.0000  1.0169  0.1883  0.1082  0.1069  0.1055  0.1874  0.0348  0.0378
   2.  C  1.0169  0.0000  1.1842  0.1180  0.3051  0.1191  1.1816  0.0827  0.0945
   3.  C  0.1883  1.1842  0.0000  1.1974  0.1082  0.3187  0.1215  0.0335  0.0147
   4.  C  0.1082  0.1180  1.1974  0.0000  1.1736  0.1176  0.3234  0.0744  0.1380
   5.  C  0.1069  0.3051  0.1082  1.1736  0.0000  1.1539  0.1138  0.1045  0.1049
   6.  C  0.1055  0.1191  0.3187  0.1176  1.1539  0.0000  1.1927  1.0033  0.1355
   7.  C  0.1874  1.1816  0.1215  0.3234  0.1138  1.1927  0.0000  0.1095  0.0662
   8.  C  0.0348  0.0827  0.0335  0.0744  0.1045  1.0033  0.1095  0.0000  1.0033
   9.  C  0.0378  0.0945  0.0147  0.1380  0.1049  0.1355  0.0662  1.0033  0.0000
  10.  C  0.0106  0.0185  0.0146  0.0120  0.0755  0.0650  0.0099  0.1084  1.1931
  11.  C  0.0319  0.0818  0.0136  0.0966  0.0163  0.0954  0.0210  0.0850  0.1113
  12.  C  0.0037  0.0151  0.0093  0.0180  0.0857  0.0160  0.0151  0.0318  0.3222
  13.  C  0.0362  0.0929  0.0164  0.1177  0.1096  0.1361  0.0133  0.0746  0.1183
  14.  C  0.0203  0.0188  0.0858  0.1114  1.0271  0.1053  0.0764  0.1017  1.1551
  15.  H  0.0694  0.0644  0.9501  0.0685  0.0759  0.0144  0.0759  0.0135  0.0122
  16.  H  0.0308  0.0760  0.0658  0.9527  0.0656  0.0834  0.0101  0.0190  0.0113
  17.  H  0.0695  0.0650  0.0759  0.0123  0.0840  0.0721  0.9490  0.0514  0.0068
  18.  H  0.0059  0.0117  0.0532  0.0145  0.0879  0.0520  0.0698  0.9392  0.0515
  19.  H  0.0059  0.0117  0.0532  0.0145  0.0879  0.0520  0.0698  0.9392  0.0515
  20.  H  0.0020  0.0024  0.0051  0.0113  0.0154  0.0063  0.0045  0.0497  0.0652
  21.  H  0.0029  0.0030  0.0005  0.0027  0.0143  0.0122  0.0038  0.0177  0.0758
  22.  H  0.0005  0.0017  0.0030  0.0037  0.0147  0.0123  0.0040  0.0147  0.0135
  23.  H  0.0027  0.0031  0.0096  0.0117  0.0457  0.0113  0.0052  0.0184  0.0834

     Atom   10      11      12      13      14      15      16      17      18
     ---- ------  ------  ------  ------  ------  ------  ------  ------  ------
   1. Br  0.0106  0.0319  0.0037  0.0362  0.0203  0.0694  0.0308  0.0695  0.0059
   2.  C  0.0185  0.0818  0.0151  0.0929  0.0188  0.0644  0.0760  0.0650  0.0117
   3.  C  0.0146  0.0136  0.0093  0.0164  0.0858  0.9501  0.0658  0.0759  0.0532
   4.  C  0.0120  0.0966  0.0180  0.1177  0.1114  0.0685  0.9527  0.0123  0.0145
   5.  C  0.0755  0.0163  0.0857  0.1096  1.0271  0.0759  0.0656  0.0840  0.0879
   6.  C  0.0650  0.0954  0.0160  0.1361  0.1053  0.0144  0.0834  0.0721  0.0520
   7.  C  0.0099  0.0210  0.0151  0.0133  0.0764  0.0759  0.0101  0.9490  0.0698
   8.  C  0.1084  0.0850  0.0318  0.0746  0.1017  0.0135  0.0190  0.0514  0.9392
   9.  C  1.1931  0.1113  0.3222  0.1183  1.1551  0.0122  0.0113  0.0068  0.0515
  10.  C  0.0000  1.1924  0.1066  0.3279  0.1156  0.0041  0.0056  0.0051  0.0697
  11.  C  1.1924  0.0000  1.1943  0.1072  0.3155  0.0016  0.0037  0.0028  0.0120
  12.  C  0.1066  1.1943  0.0000  1.1988  0.1098  0.0030  0.0100  0.0050  0.0533
  13.  C  0.3279  0.1072  1.1988  0.0000  1.1740  0.0038  0.0121  0.0112  0.0164
  14.  C  0.1156  0.3155  0.1098  1.1740  0.0000  0.0137  0.0458  0.0144  0.0872
  15.  H  0.0041  0.0016  0.0030  0.0038  0.0137  0.0000  0.0473  0.0182  0.0009
  16.  H  0.0056  0.0037  0.0100  0.0121  0.0458  0.0473  0.0000  0.0170  0.0091
  17.  H  0.0051  0.0028  0.0050  0.0112  0.0144  0.0182  0.0170  0.0000  0.0091
  18.  H  0.0697  0.0120  0.0533  0.0164  0.0872  0.0009  0.0091  0.0091  0.0000
  19.  H  0.0697  0.0120  0.0533  0.0164  0.0872  0.0009  0.0091  0.0091  0.0317
  20.  H  0.9541  0.0645  0.0787  0.0106  0.0845  0.0036  0.0039  0.0013  0.0092
  21.  H  0.0615  0.9553  0.0632  0.0782  0.0131  0.0005  0.0018  0.0015  0.0008
  22.  H  0.0785  0.0633  0.9551  0.0620  0.0770  0.0005  0.0037  0.0037  0.0009
  23.  H  0.0103  0.0790  0.0653  0.9544  0.0639  0.0037  0.0215  0.0037  0.0091

     Atom   19      20      21      22      23
     ---- ------  ------  ------  ------  ------
   1. Br  0.0059  0.0020  0.0029  0.0005  0.0027
   2.  C  0.0117  0.0024  0.0030  0.0017  0.0031
   3.  C  0.0532  0.0051  0.0005  0.0030  0.0096
   4.  C  0.0145  0.0113  0.0027  0.0037  0.0117
   5.  C  0.0879  0.0154  0.0143  0.0147  0.0457
   6.  C  0.0520  0.0063  0.0122  0.0123  0.0113
   7.  C  0.0698  0.0045  0.0038  0.0040  0.0052
   8.  C  0.9392  0.0497  0.0177  0.0147  0.0184
   9.  C  0.0515  0.0652  0.0758  0.0135  0.0834
  10.  C  0.0697  0.9541  0.0615  0.0785  0.0103
  11.  C  0.0120  0.0645  0.9553  0.0633  0.0790
  12.  C  0.0533  0.0787  0.0632  0.9551  0.0653
  13.  C  0.0164  0.0106  0.0782  0.0620  0.9544
  14.  C  0.0872  0.0845  0.0131  0.0770  0.0639
  15.  H  0.0009  0.0036  0.0005  0.0005  0.0037
  16.  H  0.0091  0.0039  0.0018  0.0037  0.0215
  17.  H  0.0091  0.0013  0.0015  0.0037  0.0037
  18.  H  0.0317  0.0092  0.0008  0.0009  0.0091
  19.  H  0.0000  0.0092  0.0008  0.0009  0.0091
  20.  H  0.0092  0.0000  0.0458  0.0171  0.0182
  21.  H  0.0008  0.0458  0.0000  0.0457  0.0172
  22.  H  0.0009  0.0171  0.0457  0.0000  0.0459
  23.  H  0.0091  0.0182  0.0172  0.0459  0.0000


 NATURAL BOND ORBITAL ANALYSIS:

                            Occupancies       Lewis Structure    Low   High
         Max    Occ     -------------------  -----------------   occ   occ
  Cycle  Ctr   Thresh    Lewis   non-Lewis     CR  BD  nC  LP    (L)   (NL)
 ============================================================================
    1     2     1.90   115.45852   6.54148     27  25   0   9     6      6
    2     2     1.68   116.06894   5.93106     27  26   0   8     5      6
    3     2     1.67   117.40362   4.59638     27  28   0   6     3      6
    4     2     1.66   118.06314   3.93686     27  29   0   5     2      6
    5     2     1.64   118.68616   3.31384     27  30   0   4     1      6
    6     2     1.63   119.31113   2.68887     27  31   0   3     0      6
    7     2     1.61   119.31113   2.68887     27  31   0   3     0      6
    8     2     1.60   119.31113   2.68887     27  31   0   3     0      6
    9     2     1.63   119.31113   2.68887     27  31   0   3     0      6
 ----------------------------------------------------------------------------

 Structure accepted: No low occupancy Lewis orbitals

 -------------------------------------------------------
   Core                     53.99690 ( 99.994% of  54)
   Valence Lewis            65.31423 ( 96.050% of  68)
  ==================      =============================
   Total Lewis             119.31113 ( 97.796% of 122)
  -----------------------------------------------------
   Valence non-Lewis         2.55984 (  2.098% of 122)
   Rydberg non-Lewis         0.12903 (  0.106% of 122)
  ==================      =============================
   Total non-Lewis           2.68887 (  2.204% of 122)
 -------------------------------------------------------


     (Occupancy)   Bond orbital / Coefficients / Hybrids
 ------------------ Lewis ------------------------------------------------------
   1. (2.00000) CR ( 1)Br  1            s(100.00%)
                                         1.0000  0.0000  0.0000  0.0000  0.0000
                                         0.0000  0.0000  0.0000  0.0000  0.0000
                                         0.0000  0.0000  0.0000  0.0000  0.0000
                                         0.0000  0.0000  0.0000  0.0000  0.0000
                                         0.0000  0.0000  0.0000  0.0000  0.0000
                                         0.0000  0.0000
   2. (2.00000) CR ( 2)Br  1            s(100.00%)
                                         0.0000  1.0000  0.0000  0.0000  0.0000
                                         0.0000  0.0000  0.0000  0.0000  0.0000
                                         0.0000  0.0000  0.0000  0.0000  0.0000
                                         0.0000  0.0000  0.0000  0.0000  0.0000
                                         0.0000  0.0000  0.0000  0.0000  0.0000
                                         0.0000  0.0000
   3. (1.99999) CR ( 3)Br  1            s(100.00%)
                                         0.0000  0.0000  1.0000  0.0000  0.0000
                                         0.0000  0.0000  0.0000  0.0000  0.0000
                                         0.0000  0.0000  0.0000  0.0000  0.0000
                                         0.0000  0.0000  0.0000  0.0000  0.0000
                                         0.0000  0.0000  0.0000  0.0000  0.0000
                                         0.0000  0.0000
   4. (2.00000) CR ( 4)Br  1            s(  0.00%)p 1.00(100.00%)
                                         0.0000  0.0000  0.0000  0.0000  0.0000
                                         1.0000  0.0000  0.0000  0.0000  0.0000
                                         0.0000  0.0000  0.0000  0.0000  0.0000
                                         0.0000  0.0000  0.0000  0.0000  0.0000
                                         0.0000  0.0000  0.0000  0.0000  0.0000
                                         0.0000  0.0000
   5. (1.99999) CR ( 5)Br  1            s(  0.00%)p 1.00(100.00%)
                                         0.0000  0.0000  0.0000  0.0000  0.0000
                                         0.0000  1.0000  0.0000  0.0000  0.0000
                                         0.0000  0.0000  0.0000  0.0000  0.0000
                                         0.0000  0.0000  0.0000  0.0000  0.0000
                                         0.0000  0.0000  0.0000  0.0000  0.0000
                                         0.0000  0.0000
   6. (2.00000) CR ( 6)Br  1            s(  0.00%)p 1.00(100.00%)
                                         0.0000  0.0000  0.0000  0.0000  0.0000
                                         0.0000  0.0000  0.0000  0.0000  1.0000
                                         0.0000  0.0000  0.0000  0.0000  0.0000
                                         0.0000  0.0000  0.0000  0.0000  0.0000
                                         0.0000  0.0000  0.0000  0.0000  0.0000
                                         0.0000  0.0000
   7. (1.99999) CR ( 7)Br  1            s(  0.00%)p 1.00(100.00%)
                                         0.0000  0.0000  0.0000  0.0000  0.0000
                                         0.0000  0.0000  0.0000  0.0000  0.0000
                                         1.0000  0.0000  0.0000  0.0000  0.0000
                                         0.0000  0.0000  0.0000  0.0000  0.0000
                                         0.0000  0.0000  0.0000  0.0000  0.0000
                                         0.0000  0.0000
   8. (2.00000) CR ( 8)Br  1            s(  0.00%)p 1.00(100.00%)
                                         0.0000  0.0000  0.0000  0.0000  0.0000
                                         0.0000  0.0000  0.0000  0.0000  0.0000
                                         0.0000  0.0000  0.0000  1.0000  0.0000
                                         0.0000  0.0000  0.0000  0.0000  0.0000
                                         0.0000  0.0000  0.0000  0.0000  0.0000
                                         0.0000  0.0000
   9. (2.00000) CR ( 9)Br  1            s(  0.00%)p 1.00(100.00%)
                                         0.0000  0.0000  0.0000  0.0000  0.0000
                                         0.0000  0.0000  0.0000  0.0000  0.0000
                                         0.0000  0.0000  0.0000  0.0000  1.0000
                                         0.0000  0.0000  0.0000  0.0000  0.0000
                                         0.0000  0.0000  0.0000  0.0000  0.0000
                                         0.0000  0.0000
  10. (1.99968) CR (10)Br  1            s(  0.00%)p 0.00(  0.00%)d 1.00(100.00%)
                                         0.0000  0.0000  0.0000  0.0000  0.0000
                                         0.0000  0.0000  0.0000  0.0000  0.0000
                                         0.0000  0.0000  0.0000  0.0000  0.0000
                                         0.0000  0.0000  1.0000  0.0000  0.0000
                                         0.0000  0.0000  0.0000  0.0000  0.0000
                                         0.0000  0.0000
  11. (1.99987) CR (11)Br  1            s(  0.00%)p 0.00(  0.00%)d 1.00(100.00%)
                                         0.0000  0.0000  0.0000  0.0000  0.0000
                                         0.0000  0.0000  0.0000  0.0000  0.0000
                                         0.0000  0.0000  0.0000  0.0000  0.0000
                                         0.0000  0.0000  0.0000  0.0000  1.0000
                                         0.0000  0.0000  0.0000  0.0000  0.0000
                                         0.0000  0.0000
  12. (1.99999) CR (12)Br  1            s(  0.00%)p 0.00(  0.00%)d 1.00(100.00%)
                                         0.0000  0.0000  0.0000  0.0000  0.0000
                                         0.0000  0.0000  0.0000  0.0000  0.0000
                                         0.0000  0.0000  0.0000  0.0000  0.0000
                                         0.0000  0.0000  0.0000  0.0000  0.0000
                                         0.0000  1.0000  0.0000  0.0000  0.0000
                                         0.0000  0.0000
  13. (1.99944) CR (13)Br  1            s(  0.00%)p 0.00(  0.00%)d 1.00(100.00%)
                                         0.0000  0.0000  0.0000  0.0000  0.0000
                                         0.0000  0.0000  0.0000  0.0000  0.0000
                                         0.0000  0.0000  0.0000  0.0000  0.0000
                                         0.0000  0.0000  0.0000  0.0000  0.0000
                                         0.0000  0.0000  0.0000  1.0000  0.0000
                                         0.0000  0.0000
  14. (1.99980) CR (14)Br  1            s(  0.00%)p 0.00(  0.00%)d 1.00(100.00%)
                                         0.0000  0.0000  0.0000  0.0000  0.0000
                                         0.0000  0.0000  0.0000  0.0000  0.0000
                                         0.0000  0.0000  0.0000  0.0000  0.0000
                                         0.0000  0.0000  0.0000  0.0000  0.0000
                                         0.0000  0.0000  0.0000  0.0000  0.0000
                                         1.0000  0.0000
  15. (1.99989) CR ( 1) C  2            s(100.00%)
                                         1.0000  0.0000  0.0000  0.0000  0.0000
                                         0.0000  0.0000  0.0000  0.0000
  16. (1.99986) CR ( 1) C  3            s(100.00%)
                                         1.0000  0.0000  0.0000  0.0000  0.0000
                                         0.0000  0.0000  0.0000  0.0000
  17. (1.99983) CR ( 1) C  4            s(100.00%)
                                         1.0000  0.0000  0.0000  0.0000  0.0000
                                         0.0000  0.0000  0.0000  0.0000
  18. (1.99987) CR ( 1) C  5            s(100.00%)
                                         1.0000  0.0000  0.0000  0.0000  0.0000
                                         0.0000  0.0000  0.0000  0.0000
  19. (1.99991) CR ( 1) C  6            s(100.00%)
                                         1.0000  0.0000  0.0000  0.0000  0.0000
                                         0.0000  0.0000  0.0000  0.0000
  20. (1.99984) CR ( 1) C  7            s(100.00%)
                                         1.0000  0.0000  0.0000  0.0000  0.0000
                                         0.0000  0.0000  0.0000  0.0000
  21. (1.99975) CR ( 1) C  8            s(100.00%)
                                         1.0000  0.0000  0.0000  0.0000  0.0000
                                         0.0000  0.0000  0.0000  0.0000
  22. (1.99991) CR ( 1) C  9            s(100.00%)
                                         1.0000  0.0000  0.0000  0.0000  0.0000
                                         0.0000  0.0000  0.0000  0.0000
  23. (1.99984) CR ( 1) C 10            s(100.00%)
                                         1.0000  0.0000  0.0000  0.0000  0.0000
                                         0.0000  0.0000  0.0000  0.0000
  24. (1.99987) CR ( 1) C 11            s(100.00%)
                                         1.0000  0.0000  0.0000  0.0000  0.0000
                                         0.0000  0.0000  0.0000  0.0000
  25. (1.99987) CR ( 1) C 12            s(100.00%)
                                         1.0000  0.0000  0.0000  0.0000  0.0000
                                         0.0000  0.0000  0.0000  0.0000
  26. (1.99983) CR ( 1) C 13            s(100.00%)
                                         1.0000  0.0000  0.0000  0.0000  0.0000
                                         0.0000  0.0000  0.0000  0.0000
  27. (1.99987) CR ( 1) C 14            s(100.00%)
                                         1.0000  0.0000  0.0000  0.0000  0.0000
                                         0.0000  0.0000  0.0000  0.0000
  28. (1.99728) LP ( 1)Br  1            s( 87.29%)p 0.15( 12.71%)d 0.00(  0.00%)
                                         0.0000  0.0000  0.0000  0.9343 -0.0096
                                         0.0000  0.0000 -0.3532 -0.0134  0.0000
                                         0.0000 -0.0458 -0.0018  0.0000  0.0000
                                         0.0000  0.0000  0.0000 -0.0010  0.0000
                                         0.0000  0.0000  0.0000  0.0000 -0.0039
                                         0.0000  0.0010
  29. (1.98195) LP ( 2)Br  1            s(  0.00%)p 1.00( 99.98%)d 0.00(  0.02%)
                                         0.0000  0.0000  0.0000  0.0020 -0.0002
                                         0.0000  0.0000  0.1338 -0.0023  0.0000
                                         0.0000 -0.9908  0.0160  0.0000  0.0000
                                         0.0000  0.0000  0.0000 -0.0140  0.0000
                                         0.0000  0.0000  0.0000  0.0000  0.0038
                                         0.0000 -0.0001
  30. (1.94539) LP ( 3)Br  1            s(  0.00%)p 1.00( 99.97%)d 0.00(  0.03%)
                                         0.0000  0.0000  0.0000  0.0000  0.0000
                                         0.0000  0.0000  0.0000  0.0000  0.0000
                                         0.0000  0.0000  0.0000  0.0000  0.0000
                                         0.9998 -0.0140  0.0000  0.0000  0.0000
                                         0.0158  0.0000  0.0020  0.0000  0.0000
                                         0.0000  0.0000
  31. (1.98757) BD ( 1)Br  1- C  2
               ( 49.82%)   0.7059*Br  1 s( 12.90%)p 6.70( 86.48%)d 0.05(  0.62%)
                                         0.0000  0.0000  0.0000  0.3556  0.0510
                                         0.0000  0.0000  0.9199  0.0543  0.0000
                                         0.0000  0.1249  0.0074  0.0000  0.0000
                                         0.0000  0.0000  0.0000  0.0182  0.0000
                                         0.0000  0.0000  0.0000  0.0000  0.0660
[...]
                                                     82(g),151(v),83(v),75(g)
                                                     78(g),79(g),72(v),119(v)
                                                     71(v)
   47. BD ( 1) C  8- H 18       1.96700    -0.56439  74(v),81(v),132(v),120(v)
                                                     71(v),77(g),82(v),75(g)
   48. BD ( 1) C  8- H 19       1.96700    -0.56439  74(v),81(v),132(v),120(v)
                                                     71(v),77(g),82(v),75(g)
   49. BD ( 1) C  9- C 10       1.97662    -0.69549  82(g),83(g),77(g),84(g)
                                                     87(v),139(v),72(v),138(v)
                                                     151(v),126(v),150(v)
   50. BD ( 2) C  9- C 10       1.66442    -0.30936  86(v),91(v),78(v),79(v)
                                                     141(v),153(v)
   51. BD ( 1) C  9- C 14       1.96596    -0.67093  90(g),80(g),68(v),72(g)
                                                     84(v),92(v),114(v),135(v)
                                                     77(g),147(v),146(v),75(v)
                                                     127(v),134(v)
   52. BD ( 1) C 10- C 11       1.97884    -0.68571  77(v),80(g),85(g),131(v)
                                                     89(v),143(v),84(g),87(g)
                                                     142(v)
   53. BD ( 1) C 10- H 20       1.98393    -0.57309  82(v),85(v),130(v),138(v)
                                                     80(g),83(g),77(v)
   54. BD ( 1) C 11- C 12       1.98054    -0.68768  88(g),83(g),92(v),84(v)
                                                     147(v),89(g),87(g),135(v)
                                                     134(v),146(v)
   55. BD ( 2) C 11- C 12       1.66602    -0.30628  91(v),81(v),149(v),137(v)
   56. BD ( 1) C 11- H 21       1.98471    -0.57141  88(v),80(v),142(v),134(v)
                                                     85(g),83(g)
   57. BD ( 1) C 12- C 13       1.97928    -0.68687  72(v),90(g),85(g),150(v)
                                                     87(v),139(v),92(g),89(g)
                                                     138(v),151(v)
   58. BD ( 1) C 12- H 22       1.98462    -0.57102  83(v),90(v),138(v),146(v)
                                                     85(g),88(g)
   59. BD ( 1) C 13- C 14       1.97467    -0.69043  82(g),72(g),88(g),92(g)
                                                     89(v),114(v),143(v),77(v)
                                                     142(v),130(v),115(v),131(v)
   60. BD ( 2) C 13- C 14       1.64120    -0.30476  86(v),81(v),69(v),145(v)
                                                     132(v)
   61. BD ( 1) C 13- H 23       1.98364    -0.57361  82(v),85(v),151(v),142(v)
                                                     90(g),88(g)
 ------ non-Lewis ----------------------------------
   62. BD*( 1)Br  1- C  2       0.02391     0.18297
   63. BD*( 1) C  2- C  3       0.02177     0.65427
   64. BD*( 2) C  2- C  3       0.39441     0.05052
   65. BD*( 1) C  2- C  7       0.02161     0.65280
   66. BD*( 1) C  3- C  4       0.01505     0.67242
   67. BD*( 1) C  3- H 15       0.01086     0.57777
   68. BD*( 1) C  4- C  5       0.02223     0.68938
   69. BD*( 2) C  4- C  5       0.36658     0.07658
   70. BD*( 1) C  4- H 16       0.01145     0.57108
   71. BD*( 1) C  5- C  6       0.02558     0.65632
   72. BD*( 1) C  5- C 14       0.02986     0.58532
   73. BD*( 1) C  6- C  7       0.02167     0.69358
   74. BD*( 2) C  6- C  7       0.32526     0.07810
   75. BD*( 1) C  6- C  8       0.01797     0.49210
   76. BD*( 1) C  7- H 17       0.01244     0.56987
   77. BD*( 1) C  8- C  9       0.01836     0.49402
   78. BD*( 1) C  8- H 18       0.01098     0.52349
   79. BD*( 1) C  8- H 19       0.01098     0.52349
   80. BD*( 1) C  9- C 10       0.02086     0.69892
   81. BD*( 2) C  9- C 10       0.33117     0.08362
   82. BD*( 1) C  9- C 14       0.02590     0.66027
   83. BD*( 1) C 10- C 11       0.01479     0.67469
   84. BD*( 1) C 10- H 20       0.01174     0.57365
   85. BD*( 1) C 11- C 12       0.01491     0.67586
   86. BD*( 2) C 11- C 12       0.34139     0.07520
   87. BD*( 1) C 11- H 21       0.01005     0.58151
   88. BD*( 1) C 12- C 13       0.01436     0.67860
   89. BD*( 1) C 12- H 22       0.01020     0.58181
   90. BD*( 1) C 13- C 14       0.02245     0.69310
   91. BD*( 2) C 13- C 14       0.36938     0.08026
   92. BD*( 1) C 13- H 23       0.01164     0.57399
   93. RY ( 1)Br  1             0.00211     0.68473
   94. RY ( 2)Br  1             0.00096     0.74966
   95. RY ( 3)Br  1             0.00059     1.12938
   96. RY ( 4)Br  1             0.00024     0.81636
   97. RY ( 5)Br  1             0.00010     0.94123
   98. RY ( 6)Br  1             0.00004     0.65043
   99. RY ( 7)Br  1             0.00003     0.67743
  100. RY ( 8)Br  1             0.00002     0.77000
  101. RY ( 9)Br  1             0.00001     0.72059
  102. RY ( 1) C  2             0.00641     1.09871
  103. RY ( 2) C  2             0.00508     1.36758
  104. RY ( 3) C  2             0.00078     0.94982
  105. RY ( 4) C  2             0.00035     0.71956
  106. RY ( 1) C  3             0.00534     1.35367
  107. RY ( 2) C  3             0.00336     1.02773
  108. RY ( 3) C  3             0.00044     0.73057
  109. RY ( 4) C  3             0.00034     0.93427
  110. RY ( 1) C  4             0.00439     1.40801
  111. RY ( 2) C  4             0.00340     1.00177
  112. RY ( 3) C  4             0.00031     0.74177
  113. RY ( 4) C  4             0.00023     0.93753
  114. RY ( 1) C  5             0.00498     1.45395
  115. RY ( 2) C  5             0.00445     1.51664
  116. RY ( 3) C  5             0.00069     0.76708
  117. RY ( 4) C  5             0.00021     1.00661
  118. RY ( 1) C  6             0.00425     1.55251
  119. RY ( 2) C  6             0.00340     1.29727
  120. RY ( 3) C  6             0.00097     1.00140
  121. RY ( 4) C  6             0.00067     0.77737
  122. RY ( 1) C  7             0.00563     1.32317
  123. RY ( 2) C  7             0.00366     1.03434
  124. RY ( 3) C  7             0.00056     0.73014
  125. RY ( 4) C  7             0.00028     0.93714
  126. RY ( 1) C  8             0.00213     0.96263
  127. RY ( 2) C  8             0.00179     0.94738
  128. RY ( 3) C  8             0.00036     1.20322
  129. RY ( 4) C  8             0.00019     1.09839
  130. RY ( 1) C  9             0.00415     1.56936
  131. RY ( 2) C  9             0.00337     1.28887
  132. RY ( 3) C  9             0.00101     1.00636
  133. RY ( 4) C  9             0.00068     0.77992
  134. RY ( 1) C 10             0.00453     1.41017
  135. RY ( 2) C 10             0.00346     0.99735
  136. RY ( 3) C 10             0.00044     0.74702
  137. RY ( 4) C 10             0.00018     0.94425
  138. RY ( 1) C 11             0.00438     1.40736
  139. RY ( 2) C 11             0.00308     1.02065
  140. RY ( 3) C 11             0.00026     0.74963
  141. RY ( 4) C 11             0.00020     0.94201
  142. RY ( 1) C 12             0.00437     1.40833
  143. RY ( 2) C 12             0.00308     1.02065
  144. RY ( 3) C 12             0.00027     0.74936
  145. RY ( 4) C 12             0.00017     0.94220
  146. RY ( 1) C 13             0.00426     1.41052
  147. RY ( 2) C 13             0.00338     1.00643
  148. RY ( 3) C 13             0.00036     0.74466
  149. RY ( 4) C 13             0.00025     0.94264
  150. RY ( 1) C 14             0.00498     1.45732
  151. RY ( 2) C 14             0.00450     1.51718
  152. RY ( 3) C 14             0.00069     0.76825
  153. RY ( 4) C 14             0.00019     1.00876
  154. RY ( 1) H 15             0.00118     0.61629
  155. RY ( 1) H 16             0.00080     0.64100
  156. RY ( 1) H 17             0.00120     0.62057
  157. RY ( 1) H 18             0.00089     0.61300
  158. RY ( 1) H 19             0.00089     0.61300
  159. RY ( 1) H 20             0.00077     0.62036
  160. RY ( 1) H 21             0.00075     0.61591
  161. RY ( 1) H 22             0.00075     0.61635
  162. RY ( 1) H 23             0.00079     0.64500
          -------------------------------
                 Total Lewis  119.31113  ( 97.7960%)
           Valence non-Lewis    2.55984  (  2.0982%)
           Rydberg non-Lewis    0.12903  (  0.1058%)
          -------------------------------
               Total unit  1  122.00000  (100.0000%)
              Charge unit  1    0.00000

 $CHOOSE
   LONE 1 3 END
   BOND S 1 2 D 2 3 S 2 7 S 3 4 S 3 15 D 4 5 S 4 16 S 5 6 S 5 14 D 6 7 S 6 8
        S 7 17 S 8 9 S 8 18 S 8 19 D 9 10 S 9 14 S 10 11 S 10 20 D 11 12
        S 11 21 S 12 13 S 12 22 D 13 14 S 13 23 END
 $END


 Checkpoint NBOs sorted by occupancy:

  Sort    Occ       Energy   Orig   Label
 -----------------------------------------------------------
    1.  2.00000   -20.38167    1.   CR ( 1)Br  1
    2.  2.00000  -451.45308    2.   CR ( 2)Br  1
    3.  2.00000    -7.16830    4.   CR ( 4)Br  1
    4.  2.00000    -7.15411    6.   CR ( 6)Br  1
    5.  2.00000    -7.15399    8.   CR ( 8)Br  1
    6.  2.00000   -55.66759    9.   CR ( 9)Br  1
    7.  1.99999   -55.66767    7.   CR ( 7)Br  1
    8.  1.99999    -2.75868   12.   CR (12)Br  1
    9.  1.99999   -79.77625    3.   CR ( 3)Br  1
   10.  1.99999   -55.67119    5.   CR ( 5)Br  1
   11.  1.99991   -10.24686   22.   CR ( 1) C  9
   12.  1.99991   -10.25284   19.   CR ( 1) C  6
   13.  1.99989   -10.29229   15.   CR ( 1) C  2
   14.  1.99987    -2.76980   11.   CR (11)Br  1
   15.  1.99987   -10.24923   18.   CR ( 1) C  5
   16.  1.99987   -10.24573   27.   CR ( 1) C 14
   17.  1.99987   -10.23693   24.   CR ( 1) C 11
   18.  1.99987   -10.23647   25.   CR ( 1) C 12
   19.  1.99986   -10.24612   16.   CR ( 1) C  3
   20.  1.99984   -10.23844   23.   CR ( 1) C 10
   21.  1.99984   -10.24781   20.   CR ( 1) C  7
   22.  1.99983   -10.23931   26.   CR ( 1) C 13
   23.  1.99983   -10.24613   17.   CR ( 1) C  4
   24.  1.99980    -2.76243   14.   CR (14)Br  1
   25.  1.99975   -10.24935   21.   CR ( 1) C  8
   26.  1.99968    -2.76984   10.   CR (10)Br  1
   27.  1.99944    -2.77005   13.   CR (13)Br  1
   28.  1.99728    -0.75564   28.   LP ( 1)Br  1
   29.  1.98757    -0.62842   31.   BD ( 1)Br  1- C  2
   30.  1.98471    -0.57141   56.   BD ( 1) C 11- H 21
   31.  1.98462    -0.57102   58.   BD ( 1) C 12- H 22
   32.  1.98393    -0.57309   53.   BD ( 1) C 10- H 20
   33.  1.98364    -0.57361   61.   BD ( 1) C 13- H 23
   34.  1.98243    -0.57807   39.   BD ( 1) C  4- H 16
   35.  1.98226    -0.57751   36.   BD ( 1) C  3- H 15
   36.  1.98195    -0.35959   29.   LP ( 2)Br  1
   37.  1.98148    -0.57913   45.   BD ( 1) C  7- H 17
   38.  1.98066    -0.71914   32.   BD ( 1) C  2- C  3
   39.  1.98054    -0.68768   54.   BD ( 1) C 11- C 12
   40.  1.97928    -0.68687   57.   BD ( 1) C 12- C 13
   41.  1.97920    -0.71702   34.   BD ( 1) C  2- C  7
   42.  1.97884    -0.68571   52.   BD ( 1) C 10- C 11
   43.  1.97751    -0.62546   46.   BD ( 1) C  8- C  9
   44.  1.97679    -0.62807   44.   BD ( 1) C  6- C  8
   45.  1.97662    -0.69549   49.   BD ( 1) C  9- C 10
   46.  1.97489    -0.69592   37.   BD ( 1) C  4- C  5
   47.  1.97467    -0.69043   59.   BD ( 1) C 13- C 14
   48.  1.97354    -0.69407   35.   BD ( 1) C  3- C  4
   49.  1.97109    -0.70221   42.   BD ( 1) C  6- C  7
   50.  1.96912    -0.64698   41.   BD ( 1) C  5- C 14
   51.  1.96700    -0.56439   47.   BD ( 1) C  8- H 18
   52.  1.96700    -0.56439   48.   BD ( 1) C  8- H 19
   53.  1.96623    -0.67582   40.   BD ( 1) C  5- C  6
   54.  1.96596    -0.67093   51.   BD ( 1) C  9- C 14
   55.  1.94539    -0.35481   30.   LP ( 3)Br  1
   56.  1.68555    -0.32904   33.   BD ( 2) C  2- C  3
   57.  1.66660    -0.31634   43.   BD ( 2) C  6- C  7
   58.  1.66602    -0.30628   55.   BD ( 2) C 11- C 12
   59.  1.66442    -0.30936   50.   BD ( 2) C  9- C 10
   60.  1.64120    -0.30476   60.   BD ( 2) C 13- C 14
   61.  1.63627    -0.30878   38.   BD ( 2) C  4- C  5
   62.  0.39441     0.05052   64.   BD*( 2) C  2- C  3
   63.  0.36938     0.08026   91.   BD*( 2) C 13- C 14
   64.  0.36658     0.07658   69.   BD*( 2) C  4- C  5
   65.  0.34139     0.07520   86.   BD*( 2) C 11- C 12
   66.  0.33117     0.08362   81.   BD*( 2) C  9- C 10
   67.  0.32526     0.07810   74.   BD*( 2) C  6- C  7
   68.  0.02986     0.58532   72.   BD*( 1) C  5- C 14
   69.  0.02590     0.66027   82.   BD*( 1) C  9- C 14
   70.  0.02558     0.65632   71.   BD*( 1) C  5- C  6
   71.  0.02391     0.18297   62.   BD*( 1)Br  1- C  2
   72.  0.02245     0.69310   90.   BD*( 1) C 13- C 14
   73.  0.02223     0.68938   68.   BD*( 1) C  4- C  5
   74.  0.02177     0.65427   63.   BD*( 1) C  2- C  3
   75.  0.02167     0.69358   73.   BD*( 1) C  6- C  7
   76.  0.02161     0.65280   65.   BD*( 1) C  2- C  7
   77.  0.02086     0.69892   80.   BD*( 1) C  9- C 10
   78.  0.01836     0.49402   77.   BD*( 1) C  8- C  9
   79.  0.01797     0.49210   75.   BD*( 1) C  6- C  8
   80.  0.01505     0.67242   66.   BD*( 1) C  3- C  4
   81.  0.01491     0.67586   85.   BD*( 1) C 11- C 12
   82.  0.01479     0.67469   83.   BD*( 1) C 10- C 11
   83.  0.01436     0.67860   88.   BD*( 1) C 12- C 13
   84.  0.01244     0.56987   76.   BD*( 1) C  7- H 17
   85.  0.01174     0.57365   84.   BD*( 1) C 10- H 20
   86.  0.01164     0.57399   92.   BD*( 1) C 13- H 23
   87.  0.01145     0.57108   70.   BD*( 1) C  4- H 16
   88.  0.01098     0.52349   78.   BD*( 1) C  8- H 18
   89.  0.01098     0.52349   79.   BD*( 1) C  8- H 19
   90.  0.01086     0.57777   67.   BD*( 1) C  3- H 15
   91.  0.01020     0.58181   89.   BD*( 1) C 12- H 22
   92.  0.01005     0.58151   87.   BD*( 1) C 11- H 21
   93.  0.00641     1.09871  102.   RY ( 1) C  2
   94.  0.00563     1.32317  122.   RY ( 1) C  7
   95.  0.00534     1.35367  106.   RY ( 1) C  3
   96.  0.00508     1.36758  103.   RY ( 2) C  2
   97.  0.00498     1.45395  114.   RY ( 1) C  5
   98.  0.00498     1.45732  150.   RY ( 1) C 14
   99.  0.00453     1.41017  134.   RY ( 1) C 10
  100.  0.00450     1.51718  151.   RY ( 2) C 14
  101.  0.00445     1.51664  115.   RY ( 2) C  5
  102.  0.00439     1.40801  110.   RY ( 1) C  4
  103.  0.00438     1.40736  138.   RY ( 1) C 11
  104.  0.00437     1.40833  142.   RY ( 1) C 12
  105.  0.00426     1.41052  146.   RY ( 1) C 13
  106.  0.00425     1.55251  118.   RY ( 1) C  6
  107.  0.00415     1.56936  130.   RY ( 1) C  9
  108.  0.00366     1.03434  123.   RY ( 2) C  7
  109.  0.00346     0.99735  135.   RY ( 2) C 10
  110.  0.00340     1.29727  119.   RY ( 2) C  6
  111.  0.00340     1.00177  111.   RY ( 2) C  4
  112.  0.00338     1.00643  147.   RY ( 2) C 13
  113.  0.00337     1.28887  131.   RY ( 2) C  9
  114.  0.00336     1.02773  107.   RY ( 2) C  3
  115.  0.00308     1.02065  143.   RY ( 2) C 12
  116.  0.00308     1.02065  139.   RY ( 2) C 11
  117.  0.00213     0.96263  126.   RY ( 1) C  8
  118.  0.00211     0.68473   93.   RY ( 1)Br  1
  119.  0.00179     0.94738  127.   RY ( 2) C  8
  120.  0.00120     0.62057  156.   RY ( 1) H 17
  121.  0.00118     0.61629  154.   RY ( 1) H 15
  122.  0.00101     1.00636  132.   RY ( 3) C  9
  123.  0.00097     1.00140  120.   RY ( 3) C  6
  124.  0.00096     0.74966   94.   RY ( 2)Br  1
  125.  0.00089     0.61300  157.   RY ( 1) H 18
  126.  0.00089     0.61300  158.   RY ( 1) H 19
  127.  0.00080     0.64100  155.   RY ( 1) H 16
  128.  0.00079     0.64500  162.   RY ( 1) H 23
  129.  0.00078     0.94982  104.   RY ( 3) C  2
  130.  0.00077     0.62036  159.   RY ( 1) H 20
  131.  0.00075     0.61591  160.   RY ( 1) H 21
  132.  0.00075     0.61635  161.   RY ( 1) H 22
  133.  0.00069     0.76708  116.   RY ( 3) C  5
  134.  0.00069     0.76825  152.   RY ( 3) C 14
  135.  0.00068     0.77992  133.   RY ( 4) C  9
  136.  0.00067     0.77737  121.   RY ( 4) C  6
  137.  0.00059     1.12938   95.   RY ( 3)Br  1
  138.  0.00056     0.73014  124.   RY ( 3) C  7
  139.  0.00044     0.73057  108.   RY ( 3) C  3
  140.  0.00044     0.74702  136.   RY ( 3) C 10
  141.  0.00036     1.20322  128.   RY ( 3) C  8
  142.  0.00036     0.74466  148.   RY ( 3) C 13
  143.  0.00035     0.71956  105.   RY ( 4) C  2
  144.  0.00034     0.93427  109.   RY ( 4) C  3
  145.  0.00031     0.74177  112.   RY ( 3) C  4
  146.  0.00028     0.93714  125.   RY ( 4) C  7
  147.  0.00027     0.74936  144.   RY ( 3) C 12
  148.  0.00026     0.74963  140.   RY ( 3) C 11
  149.  0.00025     0.94264  149.   RY ( 4) C 13
  150.  0.00024     0.81636   96.   RY ( 4)Br  1
  151.  0.00023     0.93753  113.   RY ( 4) C  4
  152.  0.00021     1.00661  117.   RY ( 4) C  5
  153.  0.00020     0.94201  141.   RY ( 4) C 11
  154.  0.00019     1.00876  153.   RY ( 4) C 14
  155.  0.00019     1.09839  129.   RY ( 4) C  8
  156.  0.00018     0.94425  137.   RY ( 4) C 10
  157.  0.00017     0.94220  145.   RY ( 4) C 12
  158.  0.00010     0.94123   97.   RY ( 5)Br  1
  159.  0.00004     0.65043   98.   RY ( 6)Br  1
  160.  0.00003     0.67743   99.   RY ( 7)Br  1
  161.  0.00002     0.77000  100.   RY ( 8)Br  1
  162.  0.00001     0.72059  101.   RY ( 9)Br  1

 NBO analysis completed in 0.48 CPU seconds (1 wall second)
 Maximum scratch memory used by NBO was 693983 words (5.29 MB)
 Maximum scratch memory used by G16NBO was 48898 words (0.37 MB)

 Opening RunExU unformatted file "/home/rpaton/opt/midi/Gau-796560.EUF"
 Read unf file /home/rpaton/opt/midi/Gau-796560.EUF:
 Label Gaussian matrix elements                                         IVers= 2 NLab= 2 Version=ES64L-G16RevC.01
 Title arbr34_wb97xd_popncreated by GaussianPrep                       
 NAtoms=    23 NBasis=   162 NBsUse=   162 ICharg=     0 Multip=     1 NE=   122 Len12L=8 Len4L=8 IOpCl= 0 ICGU=111
 GAUSSIAN SCALARS                    NI= 1 NR= 1 NTot=       1 LenBuf=    2 NRI=1 N=    1000
 ALPHA ORBITAL ENERGIES              NI= 0 NR= 1 NTot=     162 LenBuf= 2048 NRI=1 N=     162
 ALPHA MO COEFFICIENTS               NI= 0 NR= 1 NTot=   26244 LenBuf= 2048 NRI=1 N=     162     162
 Store file  10524 Len=   26244.
 NPA CHARGES                         NI= 0 NR= 1 NTot=      23 LenBuf= 2048 NRI=1 N=      23
 Recovered energy= -3059.76439164     dipole=      0.699874354305     -0.139304340582      0.000004504947
 Unable to Open any file for archive entry.
 1\1\GINC-DYNAMO\SP\RwB97XD\MIDIx\C13H9Br1\RPATON\25-Sep-2024\0\\# pop=
 (nbo6read,savenbos,hirshfeld) wb97xd/midix\\arbr34_wb97xd_popncreated 
 by GaussianPrep\\0,1\Br,0,3.831541,-0.11031,-0.000001\C,0,1.94964,0.14
 4188,0.000005\C,0,1.435826,1.437592,-0.000001\C,0,0.058084,1.637113,0.
 000003\C,0,-0.785697,0.535134,0.000001\C,0,-0.254988,-0.762855,0.00000
 2\C,0,1.112498,-0.969119,0.000004\C,0,-1.375197,-1.786266,-0.000003\C,
 0,-2.614683,-0.909601,0.000002\C,0,-3.948719,-1.27683,0.000001\C,0,-4.
 923995,-0.27896,-0.000002\C,0,-4.561147,1.067392,0.000002\C,0,-3.21883
 6,1.438459,-0.000004\C,0,-2.24921,0.444674,-0.000002\H,0,2.113525,2.28
 5526,-0.000003\H,0,-0.343268,2.647645,0.000001\H,0,1.534208,-1.970614,
 0.000002\H,0,-1.333401,-2.435065,-0.887005\H,0,-1.333403,-2.435068,0.8
 86996\H,0,-4.237146,-2.326001,-0.000001\H,0,-5.975748,-0.55338,-0.0000
 03\H,0,-5.332606,1.833126,0.000002\H,0,-2.937557,2.489153,-0.000002\\V
 ersion=ES64L-G16RevC.01\State=1-A\HF=-3059.7643916\RMSD=6.664e-09\Dipo
 le=-0.6998744,-0.1393044,-0.0000045\Quadrupole=0.4183282,6.1113497,-6.
 5296779,0.70464,-0.0000031,0.0000121\PG=C01 [X(C13H9Br1)]\\@
 The archive entry for this job was punched.


 HONESTY IN A LAWYER IS LIKE A HEN'S HIND LEGS.
  -- MAGNUS OLESON, LAKE WOBEGON PATRIARCH, C.1875
 Job cpu time:       0 days  0 hours  4 minutes  1.7 seconds.
 Elapsed time:       0 days  0 hours  0 minutes 10.3 seconds.
 File lengths (MBytes):  RWF=     18 Int=      0 D2E=      0 Chk=      2 Scr=      1
 Normal termination of Gaussian 16 at Wed Sep 25 23:33:31 2024.
