 Entering Gaussian System, Link 0=/usr/local/Gaussian/G16C/g16/g16
 Input=popn/arbr47_wb97xd_popn.com
 Output=popn/arbr47_wb97xd_popn.log
 Initial command:
 /usr/local/Gaussian/G16C/g16/l1.exe "/home/rpaton/opt/midi/Gau-804337.inp" -scrdir="/home/rpaton/opt/midi/"
 Entering Link 1 = /usr/local/Gaussian/G16C/g16/l1.exe PID=    804338.
  
 Copyright (c) 1988-2019, Gaussian, Inc.  All Rights Reserved.
  
 This is part of the Gaussian(R) 16 program.  It is based on
 the Gaussian(R) 09 system (copyright 2009, Gaussian, Inc.),
 the Gaussian(R) 03 system (copyright 2003, Gaussian, Inc.),
 the Gaussian(R) 98 system (copyright 1998, Gaussian, Inc.),
 the Gaussian(R) 94 system (copyright 1995, Gaussian, Inc.),
 the Gaussian 92(TM) system (copyright 1992, Gaussian, Inc.),
 the Gaussian 90(TM) system (copyright 1990, Gaussian, Inc.),
 the Gaussian 88(TM) system (copyright 1988, Gaussian, Inc.),
 the Gaussian 86(TM) system (copyright 1986, Carnegie Mellon
 University), and the Gaussian 82(TM) system (copyright 1983,
 Carnegie Mellon University). Gaussian is a federally registered
 trademark of Gaussian, Inc.
  
 This software contains proprietary and confidential information,
 including trade secrets, belonging to Gaussian, Inc.
  
 This software is provided under written license and may be
 used, copied, transmitted, or stored only in accord with that
 written license.
  
 The following legend is applicable only to US Government
 contracts under FAR:
  
                    RESTRICTED RIGHTS LEGEND
  
 Use, reproduction and disclosure by the US Government is
 subject to restrictions as set forth in subparagraphs (a)
 and (c) of the Commercial Computer Software - Restricted
 Rights clause in FAR 52.227-19.
  
 Gaussian, Inc.
 340 Quinnipiac St., Bldg. 40, Wallingford CT 06492
  
  
 ---------------------------------------------------------------
 Warning -- This program may not be used in any manner that
 competes with the business of Gaussian, Inc. or will provide
 assistance to any competitor of Gaussian, Inc.  The licensee
 of this program is prohibited from giving any competitor of
 Gaussian, Inc. access to this program.  By using this program,
 the user acknowledges that Gaussian, Inc. is engaged in the
 business of creating and licensing software in the field of
 computational chemistry and represents and warrants to the
 licensee that it is not a competitor of Gaussian, Inc. and that
 it will not use this program in any manner prohibited above.
 ---------------------------------------------------------------
  

 Cite this work as:
 Gaussian 16, Revision C.01,
 M. J. Frisch, G. W. Trucks, H. B. Schlegel, G. E. Scuseria, 
 M. A. Robb, J. R. Cheeseman, G. Scalmani, V. Barone, 
 G. A. Petersson, H. Nakatsuji, X. Li, M. Caricato, A. V. Marenich, 
 J. Bloino, B. G. Janesko, R. Gomperts, B. Mennucci, H. P. Hratchian, 
 J. V. Ortiz, A. F. Izmaylov, J. L. Sonnenberg, D. Williams-Young, 
 F. Ding, F. Lipparini, F. Egidi, J. Goings, B. Peng, A. Petrone, 
 T. Henderson, D. Ranasinghe, V. G. Zakrzewski, J. Gao, N. Rega, 
 G. Zheng, W. Liang, M. Hada, M. Ehara, K. Toyota, R. Fukuda, 
 J. Hasegawa, M. Ishida, T. Nakajima, Y. Honda, O. Kitao, H. Nakai, 
 T. Vreven, K. Throssell, J. A. Montgomery, Jr., J. E. Peralta, 
 F. Ogliaro, M. J. Bearpark, J. J. Heyd, E. N. Brothers, K. N. Kudin, 
 V. N. Staroverov, T. A. Keith, R. Kobayashi, J. Normand, 
 K. Raghavachari, A. P. Rendell, J. C. Burant, S. S. Iyengar, 
 J. Tomasi, M. Cossi, J. M. Millam, M. Klene, C. Adamo, R. Cammi, 
 J. W. Ochterski, R. L. Martin, K. Morokuma, O. Farkas, 
 J. B. Foresman, and D. J. Fox, Gaussian, Inc., Wallingford CT, 2019.
 
 ******************************************
 Gaussian 16:  ES64L-G16RevC.01  3-Jul-2019
                25-Sep-2024 
 ******************************************
 %chk=arbr47_wb97xd_popn.chk
 %mem=48GB
 %nprocshared=24
 Will use up to   24 processors via shared memory.
 ------------------------------------------------
 # pop=(nbo6read,savenbos,hirshfeld) wb97xd/midix
 ------------------------------------------------
 1/38=1,163=2,172=1/1;
 2/12=2,17=6,18=5,40=1/2;
 3/5=20,11=2,25=1,30=1,74=-58/1,2,3;
 4//1;
 5/5=2,38=5/2;
 6/7=2,8=2,9=2,10=2,28=1,40=2,73=1,79=1,113=1,114=1,124=2103,126=1/1,12;
 99/5=1,9=1/99;
 -----------------------------------------
 arbr47_wb97xd_popncreated by GaussianPrep
 -----------------------------------------
 Symbolic Z-matrix:
 Charge =  0 Multiplicity = 1
 O                    -4.10992  -1.63072   0.58599 
 C                    -3.29858  -0.84432   0.14496 
 C                    -3.44283   0.66077   0.40329 
 O                    -2.51803   1.47764  -0.33201 
 C                    -1.21234   1.04117  -0.20859 
 C                    -0.20138   1.96928   0.00479 
 C                     1.11798   1.54028   0.09029 
 C                     1.40915   0.18607  -0.02821 
 Br                    3.20646  -0.40689   0.11013 
 C                     0.39717  -0.74077  -0.25096 
 C                    -0.91954  -0.3147   -0.35813 
 C                    -2.07079  -1.23234  -0.6735 
 H                    -4.44487   0.97875   0.09766 
 H                    -3.33552   0.83341   1.48677 
 H                    -0.4626    3.01779   0.10476 
 H                     1.9169    2.25531   0.2592 
 H                     0.63809  -1.79541  -0.35569 
 H                    -1.84491  -2.28655  -0.48374 
 H                    -2.34275  -1.13006  -1.73891 
 
                          Input orientation:                          
 ---------------------------------------------------------------------
 Center     Atomic      Atomic             Coordinates (Angstroms)
 Number     Number       Type             X           Y           Z
 ---------------------------------------------------------------------
      1          8           0       -4.109919   -1.630722    0.585986
      2          6           0       -3.298579   -0.844315    0.144959
      3          6           0       -3.442827    0.660766    0.403285
      4          8           0       -2.518027    1.477641   -0.332009
      5          6           0       -1.212342    1.041167   -0.208586
      6          6           0       -0.201379    1.969279    0.004793
      7          6           0        1.117978    1.540279    0.090290
      8          6           0        1.409152    0.186066   -0.028205
      9         35           0        3.206462   -0.406892    0.110128
     10          6           0        0.397170   -0.740770   -0.250961
     11          6           0       -0.919538   -0.314696   -0.358131
     12          6           0       -2.070795   -1.232337   -0.673500
     13          1           0       -4.444867    0.978749    0.097656
     14          1           0       -3.335515    0.833408    1.486767
     15          1           0       -0.462596    3.017789    0.104758
     16          1           0        1.916902    2.255313    0.259203
     17          1           0        0.638091   -1.795408   -0.355692
     18          1           0       -1.844914   -2.286553   -0.483742
     19          1           0       -2.342752   -1.130055   -1.738911
 ---------------------------------------------------------------------
                    Distance matrix (angstroms):
                    1          2          3          4          5
     1  O    0.000000
     2  C    1.212936   0.000000
     3  C    2.393597   1.533887   0.000000
     4  O    3.610922   2.495644   1.436383   0.000000
     5  C    4.020732   2.834153   2.343961   1.382229   0.000000
     6  C    5.345510   4.186718   3.518236   2.392071   1.388873
     7  C    6.134482   5.019487   4.655368   3.660982   2.401839
     8  C    5.842781   4.822282   4.894203   4.145262   2.763325
     9  Br   7.433279   6.519824   6.740837   6.042907   4.660931
    10  C    4.669727   3.718338   4.139797   3.664190   2.401588
    11  C    3.577962   2.488661   2.810386   2.401733   1.395157
    12  C    2.429618   1.525742   2.574058   2.767781   2.474249
    13  H    2.675817   2.154014   1.094809   2.036226   3.247599
    14  H    2.735515   2.148620   1.102386   2.095535   2.724931
    15  H    5.928170   4.791687   3.811358   2.605306   2.137133
    16  H    7.178484   6.068112   5.593750   4.541244   3.388974
    17  H    4.843292   4.080760   4.823145   4.546921   3.389971
    18  H    2.589340   2.142068   3.467972   3.826913   3.398467
    19  H    2.962886   2.131717   3.001035   2.968194   2.886854
                    6          7          8          9         10
     6  C    0.000000
     7  C    1.389983   0.000000
     8  C    2.403070   1.390222   0.000000
     9  Br   4.155799   2.855457   1.897646   0.000000
    10  C    2.787120   2.416444   1.390235   2.852014   0.000000
    11  C    2.421571   2.791681   2.404664   4.153510   1.388072
    12  C    3.768971   4.294071   3.812913   5.398599   2.551672
    13  H    4.358551   5.591119   5.908784   7.775795   5.150107
    14  H    3.648186   4.720531   5.022555   6.799334   4.408024
    15  H    1.085173   2.163668   3.397024   5.019009   3.872015
    16  H    2.152592   1.085396   2.149929   2.961845   3.397994
    17  H    3.873955   3.399412   2.151284   2.956602   1.086864
    18  H    4.588244   4.873693   4.112214   5.422380   2.733235
    19  H    4.151127   4.738493   4.328449   5.893699   3.142087
                   11         12         13         14         15
    11  C    0.000000
    12  C    1.505628   0.000000
    13  H    3.782682   3.334637   0.000000
    14  H    3.249421   3.245547   1.783652   0.000000
    15  H    3.395367   4.610375   4.473949   3.864600   0.000000
    16  H    3.877040   5.379160   6.490595   5.578227   2.503444
    17  H    2.149121   2.784980   5.808436   5.108314   4.958870
    18  H    2.181816   1.094715   4.214259   3.979818   5.513001
    19  H    2.144039   1.104320   3.498417   3.904582   4.913116
                   16         17         18         19
    16  H    0.000000
    17  H    4.292062   0.000000
    18  H    5.944054   2.534351   0.000000
    19  H    5.796363   3.352822   1.777858   0.000000
 Stoichiometry    C9H7BrO2
 Framework group  C1[X(C9H7BrO2)]
 Deg. of freedom    51
 Full point group                 C1      NOp   1
 Largest Abelian subgroup         C1      NOp   1
 Largest concise Abelian subgroup C1      NOp   1
                         Standard orientation:                         
 ---------------------------------------------------------------------
 Center     Atomic      Atomic             Coordinates (Angstroms)
 Number     Number       Type             X           Y           Z
 ---------------------------------------------------------------------
      1          8           0        4.109919   -1.630722   -0.585986
      2          6           0        3.298579   -0.844315   -0.144959
      3          6           0        3.442827    0.660766   -0.403285
      4          8           0        2.518027    1.477641    0.332009
      5          6           0        1.212342    1.041167    0.208586
      6          6           0        0.201379    1.969279   -0.004793
      7          6           0       -1.117978    1.540279   -0.090290
      8          6           0       -1.409152    0.186066    0.028205
      9         35           0       -3.206462   -0.406892   -0.110128
     10          6           0       -0.397170   -0.740770    0.250961
     11          6           0        0.919538   -0.314696    0.358131
     12          6           0        2.070795   -1.232337    0.673500
     13          1           0        4.444867    0.978749   -0.097656
     14          1           0        3.335515    0.833408   -1.486767
     15          1           0        0.462596    3.017789   -0.104758
     16          1           0       -1.916902    2.255313   -0.259203
     17          1           0       -0.638091   -1.795408    0.355692
     18          1           0        1.844914   -2.286553    0.483742
     19          1           0        2.342752   -1.130055    1.738911
 ---------------------------------------------------------------------
 Rotational constants (GHZ):           1.8803317           0.3084309           0.2719014
 Standard basis: MIDIx (5D, 7F)
 There are   154 symmetry adapted cartesian basis functions of A   symmetry.
 There are   150 symmetry adapted basis functions of A   symmetry.
   150 basis functions,   261 primitive gaussians,   154 cartesian basis functions
    56 alpha electrons       56 beta electrons
       nuclear repulsion energy       905.5555691979 Hartrees.
 NAtoms=   19 NActive=   19 NUniq=   19 SFac= 1.00D+00 NAtFMM=   60 NAOKFM=F Big=F
 Integral buffers will be    131072 words long.
 Raffenetti 2 integral format.
 Two-electron integral symmetry is turned on.
 Nuclear repulsion after empirical dispersion term =      905.5444915996 Hartrees.
 One-electron integrals computed using PRISM.
 NBasis=   150 RedAO= T EigKep=  1.05D-03  NBF=   150
 NBsUse=   150 1.00D-06 EigRej= -1.00D+00 NBFU=   150
 ExpMin= 1.47D-01 ExpMax= 6.10D+03 ExpMxC= 6.10D+03 IAcc=3 IRadAn=         5 AccDes= 0.00D+00
 Harris functional with IExCor= 4639 and IRadAn=       5 diagonalized for initial guess.
 HarFok:  IExCor= 4639 AccDes= 0.00D+00 IRadAn=         5 IDoV= 1 UseB2=F ITyADJ=14
 ICtDFT=  3500011 ScaDFX=  1.000000  1.000000  1.000000  1.000000
 FoFCou: FMM=F IPFlag=           0 FMFlag=      100000 FMFlg1=           0
         NFxFlg=           0 DoJE=T BraDBF=F KetDBF=T FulRan=T
         wScrn=  0.000000 ICntrl=       500 IOpCl=  0 I1Cent=   200000004 NGrid=           0
         NMat0=    1 NMatS0=      1 NMatT0=    0 NMatD0=    1 NMtDS0=    0 NMtDT0=    0
 Petite list used in FoFCou.
 Requested convergence on RMS density matrix=1.00D-08 within 128 cycles.
 Requested convergence on MAX density matrix=1.00D-06.
 Requested convergence on             energy=1.00D-06.
 No special actions if energy rises.
 Integral accuracy reduced to 1.0D-05 until final iterations.
 Initial convergence to 1.0D-05 achieved.  Increase integral accuracy.
 SCF Done:  E(RwB97XD) =  -3056.61094956     A.U. after   16 cycles
            NFock= 16  Conv=0.93D-08     -V/T= 2.0025

 **********************************************************************

            Population analysis using the SCF Density.

 **********************************************************************

 Orbital symmetries:
       Occupied  (A) (A) (A) (A) (A) (A) (A) (A) (A) (A) (A) (A)
                 (A) (A) (A) (A) (A) (A) (A) (A) (A) (A) (A) (A)
                 (A) (A) (A) (A) (A) (A) (A) (A) (A) (A) (A) (A)
                 (A) (A) (A) (A) (A) (A) (A) (A) (A) (A) (A) (A)
                 (A) (A) (A) (A) (A) (A) (A) (A)
       Virtual   (A) (A) (A) (A) (A) (A) (A) (A) (A) (A) (A) (A)
                 (A) (A) (A) (A) (A) (A) (A) (A) (A) (A) (A) (A)
                 (A) (A) (A) (A) (A) (A) (A) (A) (A) (A) (A) (A)
                 (A) (A) (A) (A) (A) (A) (A) (A) (A) (A) (A) (A)
                 (A) (A) (A) (A) (A) (A) (A) (A) (A) (A) (A) (A)
                 (A) (A) (A) (A) (A) (A) (A) (A) (A) (A) (A) (A)
                 (A) (A) (A) (A) (A) (A) (A) (A) (A) (A) (A) (A)
                 (A) (A) (A) (A) (A) (A) (A) (A) (A) (A)
 The electronic state is 1-A.
 Alpha  occ. eigenvalues -- -480.14942 -62.58329 -56.17230 -56.16801 -56.16786
 Alpha  occ. eigenvalues --  -19.19396 -19.15943 -10.34061 -10.30964 -10.30494
 Alpha  occ. eigenvalues --  -10.29754 -10.26710 -10.26182 -10.25978 -10.25768
 Alpha  occ. eigenvalues --  -10.25217  -8.89168  -6.67657  -6.66216  -6.66208
 Alpha  occ. eigenvalues --   -2.77965  -2.77467  -2.77444  -2.76263  -2.76258
 Alpha  occ. eigenvalues --   -1.18184  -1.16236  -1.00015  -0.92757  -0.90898
 Alpha  occ. eigenvalues --   -0.85945  -0.84524  -0.79567  -0.72890  -0.71254
 Alpha  occ. eigenvalues --   -0.64831  -0.62888  -0.59943  -0.59563  -0.55911
 Alpha  occ. eigenvalues --   -0.55443  -0.54077  -0.53100  -0.51892  -0.50324
 Alpha  occ. eigenvalues --   -0.49432  -0.47921  -0.45857  -0.45429  -0.42995
 Alpha  occ. eigenvalues --   -0.41415  -0.37344  -0.36586  -0.35100  -0.32636
 Alpha  occ. eigenvalues --   -0.30412
 Alpha virt. eigenvalues --    0.04367   0.05879   0.06276   0.08742   0.17231
 Alpha virt. eigenvalues --    0.19531   0.20223   0.20730   0.22048   0.23826
 Alpha virt. eigenvalues --    0.24251   0.25561   0.26033   0.30173   0.30649
 Alpha virt. eigenvalues --    0.34871   0.38405   0.38933   0.41314   0.42756
 Alpha virt. eigenvalues --    0.45455   0.48056   0.53635   0.56126   0.57807
 Alpha virt. eigenvalues --    0.59117   0.61568   0.64087   0.64281   0.64793
 Alpha virt. eigenvalues --    0.66575   0.67206   0.69202   0.71693   0.71813
 Alpha virt. eigenvalues --    0.73154   0.75028   0.76264   0.78150   0.81589
 Alpha virt. eigenvalues --    0.84021   0.84750   0.85382   0.86147   0.91445
 Alpha virt. eigenvalues --    0.92002   0.93886   0.94475   0.95594   0.96528
 Alpha virt. eigenvalues --    0.97728   0.98316   0.99289   1.00326   1.00644
 Alpha virt. eigenvalues --    1.01684   1.01999   1.03515   1.03939   1.07125
 Alpha virt. eigenvalues --    1.09062   1.10564   1.13415   1.16415   1.20776
 Alpha virt. eigenvalues --    1.24648   1.26599   1.29913   1.32948   1.36972
 Alpha virt. eigenvalues --    1.39418   1.40904   1.52739   1.56809   1.57187
 Alpha virt. eigenvalues --    1.64959   1.66731   1.70627   1.73052   1.77522
 Alpha virt. eigenvalues --    1.85566   1.87809   1.89149   1.91092   1.91436
 Alpha virt. eigenvalues --    1.96108   2.01676   2.05930   2.08745   2.24208
 Alpha virt. eigenvalues --    2.25910   2.48658   2.64049   3.00422
          Condensed to atoms (all electrons):
               1          2          3          4          5          6
     1  O    8.146851   0.500409  -0.073942   0.000576   0.000037   0.000002
     2  C    0.500409   4.689730   0.266483  -0.016269  -0.016537  -0.000324
     3  C   -0.073942   0.266483   5.176623   0.157532  -0.057720   0.001745
     4  O    0.000576  -0.016269   0.157532   8.386568   0.273288  -0.046000
     5  C    0.000037  -0.016537  -0.057720   0.273288   4.612461   0.518706
     6  C    0.000002  -0.000324   0.001745  -0.046000   0.518706   4.987333
     7  C   -0.000000   0.000018  -0.000158   0.002613  -0.031826   0.455848
     8  C   -0.000000  -0.000060   0.000019  -0.000035  -0.036517  -0.039898
     9  Br  -0.000000   0.000000  -0.000000   0.000000   0.000489   0.001471
    10  C    0.000003   0.001116   0.000165   0.002052  -0.016997  -0.019078
    11  C    0.002622  -0.036026   0.015842  -0.062064   0.432239  -0.054103
    12  C   -0.074225   0.275312  -0.170885   0.002835  -0.026310   0.001195
    13  H    0.003830  -0.020876   0.361109  -0.018764   0.004668  -0.000001
    14  H    0.003887  -0.047338   0.364312  -0.019167  -0.000124   0.001544
    15  H   -0.000000   0.000035   0.000010   0.001648  -0.024746   0.390947
    16  H    0.000000  -0.000000   0.000002  -0.000020   0.002310  -0.014319
    17  H   -0.000002   0.000027  -0.000006  -0.000020   0.001788   0.000051
    18  H    0.006293  -0.022551   0.006976   0.000018   0.002447  -0.000051
    19  H    0.001758  -0.028664   0.004279   0.001924  -0.003336   0.000062
               7          8          9         10         11         12
     1  O   -0.000000  -0.000000  -0.000000   0.000003   0.002622  -0.074225
     2  C    0.000018  -0.000060   0.000000   0.001116  -0.036026   0.275312
     3  C   -0.000158   0.000019  -0.000000   0.000165   0.015842  -0.170885
     4  O    0.002613  -0.000035   0.000000   0.002052  -0.062064   0.002835
     5  C   -0.031826  -0.036517   0.000489  -0.016997   0.432239  -0.026310
     6  C    0.455848  -0.039898   0.001471  -0.019078  -0.054103   0.001195
     7  C    4.995741   0.473969  -0.036956  -0.042514  -0.031350   0.000276
     8  C    0.473969   5.037342   0.210514   0.490497  -0.024857   0.001026
     9  Br  -0.036956   0.210514  34.927178  -0.038600   0.001970  -0.000031
    10  C   -0.042514   0.490497  -0.038600   4.917918   0.445230  -0.010285
    11  C   -0.031350  -0.024857   0.001970   0.445230   5.340823   0.182808
    12  C    0.000276   0.001026  -0.000031  -0.010285   0.182808   5.485787
    13  H    0.000002   0.000000   0.000000   0.000008  -0.000274   0.005239
    14  H   -0.000055  -0.000017   0.000000  -0.000000  -0.001329   0.006456
    15  H   -0.018555   0.002940  -0.000048  -0.000470   0.004895  -0.000035
    16  H    0.389101  -0.019840   0.000688   0.002541  -0.000001   0.000005
    17  H    0.002396  -0.016693   0.000834   0.383462  -0.013270  -0.003880
    18  H    0.000004   0.000150  -0.000008  -0.003148  -0.020142   0.358841
    19  H    0.000005  -0.000021   0.000001  -0.002621  -0.023324   0.361859
              13         14         15         16         17         18
     1  O    0.003830   0.003887  -0.000000   0.000000  -0.000002   0.006293
     2  C   -0.020876  -0.047338   0.000035  -0.000000   0.000027  -0.022551
     3  C    0.361109   0.364312   0.000010   0.000002  -0.000006   0.006976
     4  O   -0.018764  -0.019167   0.001648  -0.000020  -0.000020   0.000018
     5  C    0.004668  -0.000124  -0.024746   0.002310   0.001788   0.002447
     6  C   -0.000001   0.001544   0.390947  -0.014319   0.000051  -0.000051
     7  C    0.000002  -0.000055  -0.018555   0.389101   0.002396   0.000004
     8  C    0.000000  -0.000017   0.002940  -0.019840  -0.016693   0.000150
     9  Br   0.000000   0.000000  -0.000048   0.000688   0.000834  -0.000008
    10  C    0.000008  -0.000000  -0.000470   0.002541   0.383462  -0.003148
    11  C   -0.000274  -0.001329   0.004895  -0.000001  -0.013270  -0.020142
    12  C    0.005239   0.006456  -0.000035   0.000005  -0.003880   0.358841
    13  H    0.454848  -0.019509  -0.000018  -0.000000  -0.000000  -0.000141
    14  H   -0.019509   0.490229  -0.000072   0.000000  -0.000001  -0.000263
    15  H   -0.000018  -0.000072   0.435072  -0.003994   0.000007   0.000001
    16  H   -0.000000   0.000000  -0.003994   0.427878  -0.000065  -0.000000
    17  H   -0.000000  -0.000001   0.000007  -0.000065   0.432188   0.002970
    18  H   -0.000141  -0.000263   0.000001  -0.000000   0.002970   0.454976
    19  H   -0.000326   0.000100  -0.000002  -0.000000   0.000047  -0.014750
              19
     1  O    0.001758
     2  C   -0.028664
     3  C    0.004279
     4  O    0.001924
     5  C   -0.003336
     6  C    0.000062
     7  C    0.000005
     8  C   -0.000021
     9  Br   0.000001
    10  C   -0.002621
    11  C   -0.023324
    12  C    0.361859
    13  H   -0.000326
    14  H    0.000100
    15  H   -0.000002
    16  H   -0.000000
    17  H    0.000047
    18  H   -0.014750
    19  H    0.450527
 Mulliken charges:
               1
     1  O   -0.518098
     2  C    0.455516
     3  C   -0.052387
     4  O   -0.666717
     5  C    0.365680
     6  C   -0.185132
     7  C   -0.158561
     8  C   -0.078520
     9  Br  -0.067503
    10  C   -0.109280
    11  C   -0.159690
    12  C   -0.395985
    13  H    0.230208
    14  H    0.221347
    15  H    0.212384
    16  H    0.215714
    17  H    0.210166
    18  H    0.228377
    19  H    0.252483
 Sum of Mulliken charges =  -0.00000
 Mulliken charges with hydrogens summed into heavy atoms:
               1
     1  O   -0.518098
     2  C    0.455516
     3  C    0.399167
     4  O   -0.666717
     5  C    0.365680
     6  C    0.027252
     7  C    0.057153
     8  C   -0.078520
     9  Br  -0.067503
    10  C    0.100886
    11  C   -0.159690
    12  C    0.084874
 Electronic spatial extent (au):  <R**2>=           3524.1435
 Charge=             -0.0000 electrons
 Dipole moment (field-independent basis, Debye):
    X=              0.3677    Y=              0.9321    Z=              0.3021  Tot=              1.0465
 Quadrupole moment (field-independent basis, Debye-Ang):
   XX=            -85.4371   YY=            -78.8939   ZZ=            -81.6733
   XY=              4.4402   XZ=              2.0897   YZ=             -4.0363
 Traceless Quadrupole moment (field-independent basis, Debye-Ang):
   XX=             -3.4357   YY=              3.1075   ZZ=              0.3281
   XY=              4.4402   XZ=              2.0897   YZ=             -4.0363
 Octapole moment (field-independent basis, Debye-Ang**2):
  XXX=           -102.5704  YYY=             -5.4567  ZZZ=             -5.2547  XYY=            -45.8887
  XXY=             27.0723  XXZ=              6.2358  XZZ=            -19.5913  YZZ=             -6.9754
  YYZ=             -0.8968  XYZ=            -10.3694
 Hexadecapole moment (field-independent basis, Debye-Ang**3):
 XXXX=          -3138.5707 YYYY=           -638.8037 ZZZZ=           -139.8750 XXXY=            209.7616
 XXXZ=             59.7893 YYYX=             39.4994 YYYZ=             -6.2025 ZZZX=              4.6062
 ZZZY=              3.4544 XXYY=           -688.8039 XXZZ=           -539.0377 YYZZ=           -143.5880
 XXYZ=            -38.0189 YYXZ=             10.8878 ZZXY=             11.6021
 N-N= 9.055444915996D+02 E-N=-9.086234446395D+03  KE= 3.049135465973D+03
 There are a total of      433164 grid points.
 ElSum from          density=      111.9999947345
 ElSum from atomic densities=      112.0000057389
 Hirshfeld populations at iteration   1 (CA, CB, DipXYZ):
               1          2          3          4          5
     1  O    4.115623   4.115623  -0.032155   0.033264   0.016982
     2  C    2.916286   2.916286  -0.018194   0.028913   0.016845
     3  C    2.981955   2.981955  -0.010040   0.007714   0.022823
     4  O    4.079391   4.079391  -0.025245  -0.091424  -0.065292
     5  C    2.967580   2.967580   0.086772   0.038648   0.015309
     6  C    3.022907   3.022907   0.009509   0.041258   0.005107
     7  C    3.020853   3.020853  -0.013766   0.039453  -0.005204
     8  C    2.999848   2.999848  -0.049509  -0.015937  -0.003127
     9  Br  17.524083  17.524083  -0.032458  -0.009168  -0.002422
    10  C    3.022638   3.022638   0.003816  -0.038590   0.008228
    11  C    3.009154   3.009154   0.041043  -0.035300   0.016967
    12  C    3.021597   3.021597   0.012453   0.008444  -0.005951
    13  H    0.470250   0.470250   0.149250   0.045050   0.038642
    14  H    0.474818   0.474818   0.000638   0.021122  -0.150751
    15  H    0.473175   0.473175   0.036771   0.163237  -0.015570
    16  H    0.475207   0.475207  -0.108960   0.122365  -0.025740
    17  H    0.475845   0.475845  -0.023760  -0.159547   0.017325
    18  H    0.475766   0.475766  -0.028595  -0.153283  -0.022501
    19  H    0.473023   0.473023   0.042672   0.007516   0.153125
       Tot  55.999997  55.999997   0.040240   0.053736   0.014793

 Dip from Atomic Chgs              0.104423   0.312954   0.104054
         Total Dipole              0.144663   0.366690   0.118847

 Hirshfeld charges, spin densities, dipoles, and CM5 charges using IRadAn=      5:
              Q-H        S-H        Dx         Dy         Dz        Q-CM5   
     1  O   -0.231246   0.000000  -0.032155   0.033264   0.016982  -0.280017
     2  C    0.167428   0.000000  -0.018194   0.028913   0.016845   0.191088
     3  C    0.036091   0.000000  -0.010040   0.007714   0.022823  -0.035257
     4  O   -0.158783   0.000000  -0.025245  -0.091424  -0.065292  -0.235791
     5  C    0.064841   0.000000   0.086772   0.038648   0.015309   0.083025
     6  C   -0.045813   0.000000   0.009509   0.041258   0.005107  -0.095883
     7  C   -0.041707   0.000000  -0.013766   0.039453  -0.005204  -0.094789
     8  C    0.000303   0.000000  -0.049509  -0.015937  -0.003127  -0.020861
     9  Br  -0.048166   0.000000  -0.032458  -0.009168  -0.002422  -0.033301
    10  C   -0.045275   0.000000   0.003816  -0.038590   0.008228  -0.095998
    11  C   -0.018308   0.000000   0.041043  -0.035300   0.016967  -0.027045
    12  C   -0.043194   0.000000   0.012453   0.008444  -0.005951  -0.135117
    13  H    0.059500   0.000000   0.149250   0.045050   0.038642   0.124694
    14  H    0.050365   0.000000   0.000638   0.021122  -0.150751   0.113718
    15  H    0.053651   0.000000   0.036771   0.163237  -0.015570   0.112234
    16  H    0.049585   0.000000  -0.108960   0.122365  -0.025740   0.106189
    17  H    0.048310   0.000000  -0.023760  -0.159547   0.017325   0.105533
    18  H    0.048469   0.000000  -0.028595  -0.153283  -0.022501   0.106695
    19  H    0.053954   0.000000   0.042672   0.007516   0.153125   0.110887
       Tot   0.000005   0.000000   0.040240   0.053736   0.014793   0.000005
 Hirshfeld charges with hydrogens summed into heavy atoms:
              Q-H       Q-CM5   
     1  O   -0.231246  -0.280017
     2  C    0.167428   0.191088
     3  C    0.145955   0.203156
     4  O   -0.158783  -0.235791
     5  C    0.064841   0.083025
     6  C    0.007838   0.016351
     7  C    0.007879   0.011400
     8  C    0.000303  -0.020861
     9  Br  -0.048166  -0.033301
    10  C    0.003035   0.009534
    11  C   -0.018308  -0.027045
    12  C    0.059228   0.082465
 
 EQQ= 0.000000000000E+00 EQD= 0.000000000000E+00 EDD= 0.187066591781E-02
 EQQ+QD+DD= 0.187066591781E-02
 
 Running external command "gaunbo6 R"
         input file       "/home/rpaton/opt/midi/Gau-804338.EIn"
         output file      "/home/rpaton/opt/midi/Gau-804338.EOu"
         message file     "/home/rpaton/opt/midi/Gau-804338.EMs"
         fchk file        "/home/rpaton/opt/midi/Gau-804338.EFC"
         mat. el file     "/home/rpaton/opt/midi/Gau-804338.EUF"

 Writing WrtUnf unformatted file "/home/rpaton/opt/midi/Gau-804338.EUF"
 Gaussian matrix elements                                         Version   2 NLab=11 Len12L=8 Len4L=8
 Write SHELL TO ATOM MAP                   from file      0 offset           0 length                  82 to matrix element file.
 Write SHELL TYPES                         from file      0 offset           0 length                  82 to matrix element file.
 Write NUMBER OF PRIMITIVES PER SHELL      from file      0 offset           0 length                  82 to matrix element file.
 Write PRIMITIVE EXPONENTS                 from file      0 offset           0 length                 147 to matrix element file.
 Write CONTRACTION COEFFICIENTS            from file      0 offset           0 length                 147 to matrix element file.
 Write P(S=P) CONTRACTION COEFFICIENTS     from file      0 offset           0 length                 147 to matrix element file.
 Write COORDINATES OF EACH SHELL           from file      0 offset           0 length                 246 to matrix element file.
 Write BONDS PER ATOM                      from file      0 offset           0 length                  19 to matrix element file.
 Write BONDED ATOMS                        from file      0 offset           0 length                  40 to matrix element file.
 Write BOND TYPES                          from file      0 offset           0 length                  40 to matrix element file.
 Write ONIOM CHARGE/MULT                   from file      0 offset           0 length                  32 to matrix element file.
 Write ONIOM ATOM LAYERS                   from file      0 offset           0 length                  19 to matrix element file.
 Write ONIOM ATOM MODIFIERS                from file      0 offset           0 length                  19 to matrix element file.
 Write ONIOM ATOM TYPES                    from file      0 offset           0 length                  19 to matrix element file.
 Write ONIOM LINK ATOMS                    from file      0 offset           0 length                  19 to matrix element file.
 Write ONIOM LINK CHARGES                  from file      0 offset           0 length                  19 to matrix element file.
 Write ONIOM LINK DISTANCES                from file      0 offset           0 length                  76 to matrix element file.
 Write SYMINF INTS                         from file      0 offset           0 length                  26 to matrix element file.
 Write ROTTR TO SO                         from file      0 offset           0 length                  12 to matrix element file.
 Write GAUSSIAN SCALARS                    from file    501 offset           0 to matrix element file.
 Write OPTIMIZATION FLAGS                  from file      0 offset           0 length                  19 to matrix element file.
 Write INTEGER ISO                         from file      0 offset           0 length                  19 to matrix element file.
 Write INTEGER SPIN                        from file      0 offset           0 length                  19 to matrix element file.
 Write REAL ZEFFECTIVE                     from file      0 offset           0 length                  19 to matrix element file.
 Write REAL QUADRUPOLEMOMENT               from file      0 offset           0 length                  19 to matrix element file.
 Write REAL GFACTOR                        from file      0 offset           0 length                  19 to matrix element file.
 Write REAL ZNUCLEAR                       from file      0 offset           0 length                  19 to matrix element file.
 Write MULLIKEN CHARGES                    from file      0 offset           0 length                  19 to matrix element file.
 Write TYPE 6 CHARGES                      from file      0 offset           0 length                  19 to matrix element file.
 Write TYPE 7 CHARGES                      from file      0 offset           0 length                  19 to matrix element file.
 Write NUCLEAR GRADIENT                    from file  10584 offset           0 length                  57 to matrix element file.
 Array NUCLEAR FORCE CONSTANTS              on  file  10585 does not exist.
 Write ELECTRIC DIPOLE MOMENT              from file      0 offset           0 length                   3 to matrix element file.
 Write NON-ADIABATIC COUPLING              from file  10810 offset           0 length                  57 to matrix element file.
 Write FINITE EM FIELD                     from file  10521 offset           0 length                  35 to matrix element file.
 Write OVERLAP                             from file  10514 offset           0 length               11325 to matrix element file.
 Write CORE HAMILTONIAN ALPHA              from file  10515 offset           0 length               11325 to matrix element file.
 Write CORE HAMILTONIAN BETA               from file  10515 offset       11325 length               11325 to matrix element file.
 Write KINETIC ENERGY                      from file  10516 offset           0 length               11325 to matrix element file.
 Write ORTHOGONAL BASIS                    from file  10685 offset           0 length               22500 to matrix element file.
 Write DIPOLE INTEGRALS                    from file  10518 offset           0 length               33975 to matrix element file.
 Array DIP VEL INTEGRALS                    on  file  10572 does not exist.
 Array R X DEL INTEGRALS                    on  file  10572 does not exist.
 Write ALPHA ORBITAL ENERGIES              from file      0 offset           0 length                 150 to matrix element file.
 Write ALPHA MO COEFFICIENTS               from file  10524 offset           0 length               22500 to matrix element file.
 Write ALPHA DENSITY MATRIX                from file      0 offset           0 length               11325 to matrix element file.
 Write ALPHA FOCK MATRIX                   from file  10536 offset           0 length               11325 to matrix element file.
 Write ENERGY-WEIGHTED DENSITY             from file  10571 offset           0 length               11325 to matrix element file.
 Write ALPHA SCF DENSITY MATRIX            from file      0 offset           0 length               11325 to matrix element file.
 Write INTEGER PARAMETERS                  from file      0 offset           0 length                   2 to matrix element file.
 No 2e integrals to process.
 Perform NBO analysis...

 *********************************** NBO 7.0 ***********************************
             N A T U R A L   A T O M I C   O R B I T A L   A N D
          N A T U R A L   B O N D   O R B I T A L   A N A L Y S I S
 **************************** Robert Paton (I101709) ***************************
  (c) Copyright 1996-2019 Board of Regents of the University of Wisconsin System
      on behalf of the Theoretical Chemistry Institute.  All rights reserved.

          Cite this program [NBO 7.0.5 (4-Jun-2019)] as:

          NBO 7.0.  E. D. Glendening, J. K. Badenhoop, A. E. Reed,
          J. E. Carpenter, J. A. Bohmann, C. M. Morales, P. Karafiloglou,
          C. R. Landis, and F. Weinhold, Theoretical Chemistry Institute,
          University of Wisconsin, Madison, WI (2018)

       /AONBO  / : Checkpoint the AO to NBO transformation
                   NBOs sorted by occupancy
       /BNDIDX / : Print bond indices based on the NAO density matrix

 Filename set to /home/rpaton/opt/midi/Gau-804338

 Job title:  arbr47_wb97xd_popncreated by GaussianPrep


 NATURAL POPULATIONS:  Natural atomic orbital occupancies

  NAO Atom No lang   Type(AO)    Occupancy      Energy
 -------------------------------------------------------
   1    O  1  s      Cor( 1s)     1.99990     -19.15349
   2    O  1  s      Val( 2s)     1.69669      -0.75821
   3    O  1  s      Ryd( 3s)     0.00087       1.60590
   4    O  1  px     Val( 2p)     1.58749      -0.32527
   5    O  1  px     Ryd( 3p)     0.00060       1.80637
   6    O  1  py     Val( 2p)     1.75305      -0.34337
   7    O  1  py     Ryd( 3p)     0.00135       1.83855
   8    O  1  pz     Val( 2p)     1.42641      -0.29315
   9    O  1  pz     Ryd( 3p)     0.00048       1.72894
  10    O  1  dxy    Ryd( 3d)     0.00444       2.29862
  11    O  1  dxz    Ryd( 3d)     0.00254       2.07667
  12    O  1  dyz    Ryd( 3d)     0.00261       2.01902
  13    O  1  dx2y2  Ryd( 3d)     0.00329       2.02456
  14    O  1  dz2    Ryd( 3d)     0.00208       1.97878

  15    C  2  s      Cor( 1s)     1.99990     -10.33776
  16    C  2  s      Val( 2s)     0.86022      -0.13514
  17    C  2  s      Ryd( 3s)     0.00477       0.75672
  18    C  2  px     Val( 2p)     0.84222      -0.02746
  19    C  2  px     Ryd( 3p)     0.01015       1.05502
  20    C  2  py     Val( 2p)     0.91598      -0.02081
  21    C  2  py     Ryd( 3p)     0.01033       1.11054
  22    C  2  pz     Val( 2p)     0.80955      -0.09034
  23    C  2  pz     Ryd( 3p)     0.00453       0.97721

  24    C  3  s      Cor( 1s)     1.99976     -10.30153
  25    C  3  s      Val( 2s)     1.07103      -0.23537
  26    C  3  s      Ryd( 3s)     0.00176       1.09423
  27    C  3  px     Val( 2p)     1.05025      -0.11533
  28    C  3  px     Ryd( 3p)     0.00330       1.06529
  29    C  3  py     Val( 2p)     0.98712      -0.09454
  30    C  3  py     Ryd( 3p)     0.00360       0.91147
  31    C  3  pz     Val( 2p)     1.13203      -0.12593
  32    C  3  pz     Ryd( 3p)     0.00237       0.99508

  33    O  4  s      Cor( 1s)     1.99986     -19.19096
  34    O  4  s      Val( 2s)     1.60285      -0.77353
  35    O  4  s      Ryd( 3s)     0.00075       1.84635
  36    O  4  px     Val( 2p)     1.37073      -0.31081
  37    O  4  px     Ryd( 3p)     0.00039       2.11545
  38    O  4  py     Val( 2p)     1.75478      -0.37601
  39    O  4  py     Ryd( 3p)     0.00174       1.84994
  40    O  4  pz     Val( 2p)     1.75282      -0.36761
  41    O  4  pz     Ryd( 3p)     0.00086       1.77001
  42    O  4  dxy    Ryd( 3d)     0.00292       2.21842
  43    O  4  dxz    Ryd( 3d)     0.00177       2.02137
  44    O  4  dyz    Ryd( 3d)     0.00301       1.96524
  45    O  4  dx2y2  Ryd( 3d)     0.00233       2.12621
  46    O  4  dz2    Ryd( 3d)     0.00196       2.01098

  47    C  5  s      Cor( 1s)     1.99986     -10.30618
  48    C  5  s      Val( 2s)     0.81651      -0.05391
  49    C  5  s      Ryd( 3s)     0.00134       0.80418
  50    C  5  px     Val( 2p)     0.81216       0.00096
  51    C  5  px     Ryd( 3p)     0.00666       1.33857
  52    C  5  py     Val( 2p)     1.05531      -0.03126
  53    C  5  py     Ryd( 3p)     0.00680       1.25899
  54    C  5  pz     Val( 2p)     1.00443      -0.13559
  55    C  5  pz     Ryd( 3p)     0.00159       0.97529

  56    C  6  s      Cor( 1s)     1.99985     -10.24888
  57    C  6  s      Val( 2s)     0.95160      -0.08625
  58    C  6  s      Ryd( 3s)     0.00081       0.72161
  59    C  6  px     Val( 2p)     1.07601      -0.03099
  60    C  6  px     Ryd( 3p)     0.00566       1.05443
  61    C  6  py     Val( 2p)     1.21344      -0.08424
  62    C  6  py     Ryd( 3p)     0.00426       1.36116
  63    C  6  pz     Val( 2p)     1.02461      -0.12826
  64    C  6  pz     Ryd( 3p)     0.00064       0.93670

  65    C  7  s      Cor( 1s)     1.99986     -10.25455
  66    C  7  s      Val( 2s)     0.94663      -0.08788
  67    C  7  s      Ryd( 3s)     0.00089       0.72661
  68    C  7  px     Val( 2p)     1.15249      -0.05939
  69    C  7  px     Ryd( 3p)     0.00629       1.19167
  70    C  7  py     Val( 2p)     1.13258      -0.06065
  71    C  7  py     Ryd( 3p)     0.00500       1.16221
  72    C  7  pz     Val( 2p)     1.00212      -0.12756
  73    C  7  pz     Ryd( 3p)     0.00055       0.93686

  74    C  8  s      Cor( 1s)     1.99989     -10.29576
  75    C  8  s      Val( 2s)     0.93156      -0.14317
  76    C  8  s      Ryd( 3s)     0.00046       0.71356
  77    C  8  px     Val( 2p)     1.00974      -0.12352
  78    C  8  px     Ryd( 3p)     0.00663       1.32884
  79    C  8  py     Val( 2p)     1.10145      -0.07220
  80    C  8  py     Ryd( 3p)     0.00766       1.12045
  81    C  8  pz     Val( 2p)     1.08710      -0.16007
  82    C  8  pz     Ryd( 3p)     0.00093       0.95056

  83   Br  9  s      Cor( 3s)     2.00000     -20.44782
  84   Br  9  s      Cor( 1s)     2.00000    -451.11314
  85   Br  9  s      Cor( 2s)     1.99999     -80.06271
  86   Br  9  s      Val( 4s)     1.86979      -0.77017
  87   Br  9  s      Ryd( 5s)     0.00292       0.84768
  88   Br  9  px     Cor( 3p)     2.00000      -7.16559
  89   Br  9  px     Cor( 2p)     1.99999     -55.68085
  90   Br  9  px     Val( 4p)     1.20103      -0.24566
  91   Br  9  px     Ryd( 5p)     0.00335       0.73532
  92   Br  9  py     Cor( 3p)     2.00000      -7.15374
  93   Br  9  py     Cor( 2p)     1.99999     -55.67790
  94   Br  9  py     Val( 4p)     1.89519      -0.35049
  95   Br  9  py     Ryd( 5p)     0.00154       0.76019
  96   Br  9  pz     Cor( 3p)     2.00000      -7.15245
  97   Br  9  pz     Cor( 2p)     2.00000     -55.67754
  98   Br  9  pz     Val( 4p)     1.94283      -0.35792
  99   Br  9  pz     Ryd( 5p)     0.00080       0.72940
 100   Br  9  dxy    Cor( 3d)     1.99960      -2.77408
 101   Br  9  dxy    Ryd( 4d)     0.00220       0.94490
 102   Br  9  dxz    Cor( 3d)     1.99987      -2.77306
 103   Br  9  dxz    Ryd( 4d)     0.00206       0.72275
 104   Br  9  dyz    Cor( 3d)     1.99998      -2.76377
 105   Br  9  dyz    Ryd( 4d)     0.00027       0.65625
 106   Br  9  dx2y2  Cor( 3d)     1.99952      -2.77415
 107   Br  9  dx2y2  Ryd( 4d)     0.00346       0.96737
 108   Br  9  dz2    Cor( 3d)     1.99980      -2.76660
 109   Br  9  dz2    Ryd( 4d)     0.00159       0.75968

 110    C 10  s      Cor( 1s)     1.99985     -10.25652
 111    C 10  s      Val( 2s)     0.93395      -0.07581
 112    C 10  s      Ryd( 3s)     0.00108       0.71840
 113    C 10  px     Val( 2p)     1.06719      -0.03172
 114    C 10  px     Ryd( 3p)     0.00551       1.01438
 115    C 10  py     Val( 2p)     1.21436      -0.09103
 116    C 10  py     Ryd( 3p)     0.00629       1.34768
 117    C 10  pz     Val( 2p)     1.00213      -0.12792
 118    C 10  pz     Ryd( 3p)     0.00053       0.93406

 119    C 11  s      Cor( 1s)     1.99989     -10.26425
 120    C 11  s      Val( 2s)     0.85454      -0.05305
 121    C 11  s      Ryd( 3s)     0.00114       0.72481
 122    C 11  px     Val( 2p)     1.09363      -0.05324
 123    C 11  px     Ryd( 3p)     0.00479       1.42915
 124    C 11  py     Val( 2p)     1.09284      -0.05654
 125    C 11  py     Ryd( 3p)     0.00354       1.36156
 126    C 11  pz     Val( 2p)     1.03738      -0.13089
 127    C 11  pz     Ryd( 3p)     0.00129       1.02758

 128    C 12  s      Cor( 1s)     1.99975     -10.25788
 129    C 12  s      Val( 2s)     1.05102      -0.18844
 130    C 12  s      Ryd( 3s)     0.00128       1.16751
 131    C 12  px     Val( 2p)     1.08250      -0.10290
 132    C 12  px     Ryd( 3p)     0.00253       0.96626
 133    C 12  py     Val( 2p)     1.22693      -0.13015
 134    C 12  py     Ryd( 3p)     0.00476       1.07219
 135    C 12  pz     Val( 2p)     1.23240      -0.14258
 136    C 12  pz     Ryd( 3p)     0.00059       1.01178

 137    H 13  s      Val( 1s)     0.72869       0.10954
 138    H 13  s      Ryd( 2s)     0.00143       0.58609

 139    H 14  s      Val( 1s)     0.74364       0.09197
 140    H 14  s      Ryd( 2s)     0.00208       0.60491

 141    H 15  s      Val( 1s)     0.73045       0.14082
 142    H 15  s      Ryd( 2s)     0.00153       0.61568

 143    H 16  s      Val( 1s)     0.73017       0.14116
 144    H 16  s      Ryd( 2s)     0.00118       0.61096

 145    H 17  s      Val( 1s)     0.73261       0.13249
 146    H 17  s      Ryd( 2s)     0.00124       0.62525

 147    H 18  s      Val( 1s)     0.71166       0.12280
 148    H 18  s      Ryd( 2s)     0.00267       0.62491

 149    H 19  s      Val( 1s)     0.70273       0.10532
 150    H 19  s      Ryd( 2s)     0.00162       0.61339


 Summary of Natural Population Analysis:

                                     Natural Population
             Natural    ---------------------------------------------
  Atom No    Charge        Core      Valence    Rydberg      Total
 --------------------------------------------------------------------
    O  1   -0.48180      1.99990     6.46364    0.01826     8.48180
    C  2    0.54234      1.99990     3.42797    0.02979     5.45766
    C  3   -0.25121      1.99976     4.24043    0.01102     6.25121
    O  4   -0.49679      1.99986     6.48118    0.01575     8.49679
    C  5    0.29533      1.99986     3.68841    0.01640     5.70467
    C  6   -0.27689      1.99985     4.26567    0.01137     6.27689
    C  7   -0.24640      1.99986     4.23383    0.01272     6.24640
    C  8   -0.14541      1.99989     4.12985    0.01567     6.14541
   Br  9    0.07423     27.99875     6.90884    0.01819    34.92577
    C 10   -0.23088      1.99985     4.21762    0.01341     6.23088
    C 11   -0.08905      1.99989     4.07840    0.01076     6.08905
    C 12   -0.60175      1.99975     4.59284    0.00916     6.60175
    H 13    0.26989      0.00000     0.72869    0.00143     0.73011
    H 14    0.25427      0.00000     0.74364    0.00208     0.74573
    H 15    0.26802      0.00000     0.73045    0.00153     0.73198
    H 16    0.26865      0.00000     0.73017    0.00118     0.73135
    H 17    0.26615      0.00000     0.73261    0.00124     0.73385
    H 18    0.28566      0.00000     0.71166    0.00267     0.71434
    H 19    0.29565      0.00000     0.70273    0.00162     0.70435
 ====================================================================
 * Total *  0.00000     49.99712    61.80862    0.19426   112.00000

                                 Natural Population
 ---------------------------------------------------------
   Core                      49.99712 ( 99.9942% of   50)
   Valence                   61.80862 ( 99.6913% of   62)
   Natural Minimal Basis    111.80574 ( 99.8266% of  112)
   Natural Rydberg Basis      0.19426 (  0.1734% of  112)
 ---------------------------------------------------------

    Atom No         Natural Electron Configuration
 ----------------------------------------------------------------------------
      O  1      [core]2s( 1.70)2p( 4.77)3d( 0.01)
      C  2      [core]2s( 0.86)2p( 2.57)3p( 0.03)
      C  3      [core]2s( 1.07)2p( 3.17)3p( 0.01)
      O  4      [core]2s( 1.60)2p( 4.88)3d( 0.01)
      C  5      [core]2s( 0.82)2p( 2.87)3p( 0.02)
      C  6      [core]2s( 0.95)2p( 3.31)3p( 0.01)
      C  7      [core]2s( 0.95)2p( 3.29)3p( 0.01)
      C  8      [core]2s( 0.93)2p( 3.20)3p( 0.02)
     Br  9      [core]4s( 1.87)4p( 5.04)4d( 0.01)5p( 0.01)
      C 10      [core]2s( 0.93)2p( 3.28)3p( 0.01)
      C 11      [core]2s( 0.85)2p( 3.22)3p( 0.01)
      C 12      [core]2s( 1.05)2p( 3.54)3p( 0.01)
      H 13            1s( 0.73)
      H 14            1s( 0.74)
      H 15            1s( 0.73)
      H 16            1s( 0.73)
      H 17            1s( 0.73)
      H 18            1s( 0.71)
      H 19            1s( 0.70)


 Wiberg bond index matrix in the NAO basis:

     Atom    1       2       3       4       5       6       7       8       9
     ---- ------  ------  ------  ------  ------  ------  ------  ------  ------
   1.  O  0.0000  1.8745  0.0693  0.0135  0.0019  0.0003  0.0007  0.0006  0.0003
   2.  C  1.8745  0.0000  0.9693  0.0252  0.0046  0.0008  0.0015  0.0006  0.0003
   3.  C  0.0693  0.9693  0.0000  0.9066  0.0066  0.0078  0.0006  0.0014  0.0002
   4.  O  0.0135  0.0252  0.9066  0.0000  0.9891  0.0437  0.0073  0.0162  0.0020
   5.  C  0.0019  0.0046  0.0066  0.9891  0.0000  1.3835  0.0137  0.0922  0.0115
   6.  C  0.0003  0.0008  0.0078  0.0437  1.3835  0.0000  1.4291  0.0145  0.0115
   7.  C  0.0007  0.0015  0.0006  0.0073  0.0137  1.4291  0.0000  1.4020  0.0360
   8.  C  0.0006  0.0006  0.0014  0.0162  0.0922  0.0145  1.4020  0.0000  1.0323
   9. Br  0.0003  0.0003  0.0002  0.0020  0.0115  0.0115  0.0360  1.0323  0.0000
  10.  C  0.0016  0.0058  0.0002  0.0079  0.0159  0.1063  0.0144  1.4020  0.0357
  11.  C  0.0116  0.0089  0.0037  0.0450  1.3442  0.0150  0.1030  0.0146  0.0107
  12.  C  0.0609  0.9748  0.0076  0.0065  0.0108  0.0059  0.0011  0.0056  0.0008
  13.  H  0.0105  0.0049  0.8970  0.0063  0.0053  0.0002  0.0001  0.0002  0.0000
  14.  H  0.0128  0.0053  0.8918  0.0204  0.0009  0.0013  0.0001  0.0007  0.0001
  15.  H  0.0000  0.0001  0.0001  0.0046  0.0040  0.8999  0.0054  0.0057  0.0009
  16.  H  0.0000  0.0000  0.0002  0.0004  0.0057  0.0050  0.9002  0.0043  0.0048
  17.  H  0.0001  0.0001  0.0000  0.0010  0.0062  0.0002  0.0059  0.0045  0.0049
  18.  H  0.0061  0.0029  0.0062  0.0003  0.0047  0.0002  0.0004  0.0001  0.0001
  19.  H  0.0166  0.0058  0.0006  0.0022  0.0073  0.0001  0.0044  0.0002  0.0000

     Atom   10      11      12      13      14      15      16      17      18
     ---- ------  ------  ------  ------  ------  ------  ------  ------  ------
   1.  O  0.0016  0.0116  0.0609  0.0105  0.0128  0.0000  0.0000  0.0001  0.0061
   2.  C  0.0058  0.0089  0.9748  0.0049  0.0053  0.0001  0.0000  0.0001  0.0029
   3.  C  0.0002  0.0037  0.0076  0.8970  0.8918  0.0001  0.0002  0.0000  0.0062
   4.  O  0.0079  0.0450  0.0065  0.0063  0.0204  0.0046  0.0004  0.0010  0.0003
   5.  C  0.0159  1.3442  0.0108  0.0053  0.0009  0.0040  0.0057  0.0062  0.0047
   6.  C  0.1063  0.0150  0.0059  0.0002  0.0013  0.8999  0.0050  0.0002  0.0002
   7.  C  0.0144  0.1030  0.0011  0.0001  0.0001  0.0054  0.9002  0.0059  0.0004
   8.  C  1.4020  0.0146  0.0056  0.0002  0.0007  0.0057  0.0043  0.0045  0.0001
   9. Br  0.0357  0.0107  0.0008  0.0000  0.0001  0.0009  0.0048  0.0049  0.0001
  10.  C  0.0000  1.4053  0.0141  0.0001  0.0001  0.0002  0.0058  0.8995  0.0019
  11.  C  1.4053  0.0000  0.9979  0.0006  0.0011  0.0061  0.0001  0.0050  0.0022
  12.  C  0.0141  0.9979  0.0000  0.0027  0.0022  0.0004  0.0002  0.0025  0.8947
  13.  H  0.0001  0.0006  0.0027  0.0000  0.0009  0.0001  0.0000  0.0000  0.0001
  14.  H  0.0001  0.0011  0.0022  0.0009  0.0000  0.0000  0.0000  0.0000  0.0003
  15.  H  0.0002  0.0061  0.0004  0.0001  0.0000  0.0000  0.0024  0.0002  0.0002
  16.  H  0.0058  0.0001  0.0002  0.0000  0.0000  0.0024  0.0000  0.0004  0.0000
  17.  H  0.8995  0.0050  0.0025  0.0000  0.0000  0.0002  0.0004  0.0000  0.0004
  18.  H  0.0019  0.0022  0.8947  0.0001  0.0003  0.0002  0.0000  0.0004  0.0000
  19.  H  0.0094  0.0030  0.8636  0.0002  0.0004  0.0000  0.0000  0.0000  0.0013

     Atom   19
     ---- ------
   1.  O  0.0166
   2.  C  0.0058
   3.  C  0.0006
   4.  O  0.0022
   5.  C  0.0073
   6.  C  0.0001
   7.  C  0.0044
   8.  C  0.0002
   9. Br  0.0000
  10.  C  0.0094
  11.  C  0.0030
  12.  C  0.8636
  13.  H  0.0002
  14.  H  0.0004
  15.  H  0.0000
  16.  H  0.0000
  17.  H  0.0000
  18.  H  0.0013
  19.  H  0.0000


 Wiberg bond index, Totals by atom:

     Atom    1
     ---- ------
   1.  O  2.0813
   2.  C  3.8854
   3.  C  3.7691
   4.  O  2.0982
   5.  C  3.9081
   6.  C  3.9251
   7.  C  3.9259
   8.  C  3.9976
   9. Br  1.1522
  10.  C  3.9261
  11.  C  3.9782
  12.  C  3.8523
  13.  H  0.9292
  14.  H  0.9384
  15.  H  0.9304
  16.  H  0.9296
  17.  H  0.9310
  18.  H  0.9222
  19.  H  0.9149


 NBI: Natural Binding Index (NCU strength parameters)

     Atom    1       2       3       4       5       6       7       8       9
     ---- ------  ------  ------  ------  ------  ------  ------  ------  ------
   1.  O  0.0000  1.3691  0.2633  0.1163  0.0434  0.0174  0.0268  0.0246  0.0168
   2.  C  1.3691  0.0000  0.9845  0.1587  0.0681  0.0277  0.0384  0.0235  0.0176
   3.  C  0.2633  0.9845  0.0000  0.9521  0.0814  0.0881  0.0245  0.0369  0.0139
   4.  O  0.1163  0.1587  0.9521  0.0000  0.9945  0.2090  0.0853  0.1272  0.0448
   5.  C  0.0434  0.0681  0.0814  0.9945  0.0000  1.1762  0.1171  0.3036  0.1071
   6.  C  0.0174  0.0277  0.0881  0.2090  1.1762  0.0000  1.1954  0.1205  0.1073
   7.  C  0.0268  0.0384  0.0245  0.0853  0.1171  1.1954  0.0000  1.1841  0.1897
   8.  C  0.0246  0.0235  0.0369  0.1272  0.3036  0.1205  1.1841  0.0000  1.0160
   9. Br  0.0168  0.0176  0.0139  0.0448  0.1071  0.1073  0.1897  1.0160  0.0000
  10.  C  0.0396  0.0760  0.0124  0.0888  0.1261  0.3261  0.1202  1.1841  0.1890
  11.  C  0.1075  0.0945  0.0609  0.2122  1.1594  0.1224  0.3209  0.1209  0.1036
  12.  C  0.2467  0.9873  0.0869  0.0806  0.1039  0.0767  0.0328  0.0745  0.0287
  13.  H  0.1026  0.0701  0.9471  0.0794  0.0725  0.0143  0.0121  0.0135  0.0061
  14.  H  0.1130  0.0731  0.9443  0.1429  0.0295  0.0361  0.0114  0.0261  0.0093
  15.  H  0.0033  0.0075  0.0109  0.0679  0.0633  0.9486  0.0734  0.0757  0.0298
  16.  H  0.0034  0.0031  0.0134  0.0205  0.0757  0.0706  0.9488  0.0654  0.0692
  17.  H  0.0113  0.0093  0.0049  0.0319  0.0790  0.0125  0.0765  0.0669  0.0699
  18.  H  0.0782  0.0537  0.0786  0.0168  0.0688  0.0130  0.0203  0.0114  0.0105
  19.  H  0.1287  0.0760  0.0247  0.0468  0.0852  0.0093  0.0660  0.0124  0.0066

     Atom   10      11      12      13      14      15      16      17      18
     ---- ------  ------  ------  ------  ------  ------  ------  ------  ------
   1.  O  0.0396  0.1075  0.2467  0.1026  0.1130  0.0033  0.0034  0.0113  0.0782
   2.  C  0.0760  0.0945  0.9873  0.0701  0.0731  0.0075  0.0031  0.0093  0.0537
   3.  C  0.0124  0.0609  0.0869  0.9471  0.9443  0.0109  0.0134  0.0049  0.0786
   4.  O  0.0888  0.2122  0.0806  0.0794  0.1429  0.0679  0.0205  0.0319  0.0168
   5.  C  0.1261  1.1594  0.1039  0.0725  0.0295  0.0633  0.0757  0.0790  0.0688
   6.  C  0.3261  0.1224  0.0767  0.0143  0.0361  0.9486  0.0706  0.0125  0.0130
   7.  C  0.1202  0.3209  0.0328  0.0121  0.0114  0.0734  0.9488  0.0765  0.0203
   8.  C  1.1841  0.1209  0.0745  0.0135  0.0261  0.0757  0.0654  0.0669  0.0114
   9. Br  0.1890  0.1036  0.0287  0.0061  0.0093  0.0298  0.0692  0.0699  0.0105
  10.  C  0.0000  1.1854  0.1189  0.0075  0.0075  0.0142  0.0762  0.9484  0.0438
  11.  C  1.1854  0.0000  0.9990  0.0246  0.0335  0.0783  0.0118  0.0708  0.0471
  12.  C  0.1189  0.9990  0.0000  0.0523  0.0468  0.0208  0.0124  0.0502  0.9459
  13.  H  0.0075  0.0246  0.0523  0.0000  0.0305  0.0084  0.0046  0.0024  0.0083
  14.  H  0.0075  0.0335  0.0468  0.0305  0.0000  0.0020  0.0020  0.0023  0.0184
  15.  H  0.0142  0.0783  0.0208  0.0084  0.0020  0.0000  0.0491  0.0142  0.0155
  16.  H  0.0762  0.0118  0.0124  0.0046  0.0020  0.0491  0.0000  0.0199  0.0009
  17.  H  0.9484  0.0708  0.0502  0.0024  0.0023  0.0142  0.0199  0.0000  0.0212
  18.  H  0.0438  0.0471  0.9459  0.0083  0.0184  0.0155  0.0009  0.0212  0.0000
  19.  H  0.0968  0.0552  0.9293  0.0124  0.0205  0.0014  0.0008  0.0025  0.0354

     Atom   19
     ---- ------
   1.  O  0.1287
   2.  C  0.0760
   3.  C  0.0247
   4.  O  0.0468
   5.  C  0.0852
   6.  C  0.0093
   7.  C  0.0660
   8.  C  0.0124
   9. Br  0.0066
  10.  C  0.0968
  11.  C  0.0552
  12.  C  0.9293
  13.  H  0.0124
  14.  H  0.0205
  15.  H  0.0014
  16.  H  0.0008
  17.  H  0.0025
  18.  H  0.0354
  19.  H  0.0000


 NATURAL BOND ORBITAL ANALYSIS:

                            Occupancies       Lewis Structure    Low   High
         Max    Occ     -------------------  -----------------   occ   occ
  Cycle  Ctr   Thresh    Lewis   non-Lewis     CR  BD  nC  LP    (L)   (NL)
 ============================================================================
    1     2     1.90   108.29835   3.70165     25  22   0   9     4      4
    2     2     1.87   108.34236   3.65764     25  21   0  10     3      3
    3     2     1.68   109.60334   2.39666     25  23   0   8     1      3
    4     2     1.65   110.21479   1.78521     25  24   0   7     0      3
    5     2     1.64   110.21479   1.78521     25  24   0   7     0      3
    6     2     1.65   110.21479   1.78521     25  24   0   7     0      3
 ----------------------------------------------------------------------------

 Structure accepted: No low occupancy Lewis orbitals

 -------------------------------------------------------
   Core                     49.99712 ( 99.994% of  50)
   Valence Lewis            60.21768 ( 97.125% of  62)
  ==================      =============================
   Total Lewis             110.21479 ( 98.406% of 112)
  -----------------------------------------------------
   Valence non-Lewis         1.66394 (  1.486% of 112)
   Rydberg non-Lewis         0.12126 (  0.108% of 112)
  ==================      =============================
   Total non-Lewis           1.78521 (  1.594% of 112)
 -------------------------------------------------------


     (Occupancy)   Bond orbital / Coefficients / Hybrids
 ------------------ Lewis ------------------------------------------------------
   1. (1.99990) CR ( 1) O  1            s(100.00%)
                                         1.0000  0.0000  0.0000  0.0000  0.0000
                                         0.0000  0.0000  0.0000  0.0000  0.0000
                                         0.0000  0.0000  0.0000  0.0000
   2. (1.99990) CR ( 1) C  2            s(100.00%)
                                         1.0000  0.0000  0.0000  0.0000  0.0000
                                         0.0000  0.0000  0.0000  0.0000
   3. (1.99976) CR ( 1) C  3            s(100.00%)
                                         1.0000  0.0000  0.0000  0.0000  0.0000
                                         0.0000  0.0000  0.0000  0.0000
   4. (1.99986) CR ( 1) O  4            s(100.00%)
                                         1.0000  0.0000  0.0000  0.0000  0.0000
                                         0.0000  0.0000  0.0000  0.0000  0.0000
                                         0.0000  0.0000  0.0000  0.0000
   5. (1.99986) CR ( 1) C  5            s(100.00%)
                                         1.0000  0.0000  0.0000  0.0000  0.0000
                                         0.0000  0.0000  0.0000  0.0000
   6. (1.99985) CR ( 1) C  6            s(100.00%)
                                         1.0000  0.0000  0.0000  0.0000  0.0000
                                         0.0000  0.0000  0.0000  0.0000
   7. (1.99986) CR ( 1) C  7            s(100.00%)
                                         1.0000  0.0000  0.0000  0.0000  0.0000
                                         0.0000  0.0000  0.0000  0.0000
   8. (1.99989) CR ( 1) C  8            s(100.00%)
                                         1.0000  0.0000  0.0000  0.0000  0.0000
                                         0.0000  0.0000  0.0000  0.0000
   9. (2.00000) CR ( 1)Br  9            s(100.00%)
                                         1.0000  0.0000  0.0000  0.0000  0.0000
                                         0.0000  0.0000  0.0000  0.0000  0.0000
                                         0.0000  0.0000  0.0000  0.0000  0.0000
                                         0.0000  0.0000  0.0000  0.0000  0.0000
                                         0.0000  0.0000  0.0000  0.0000  0.0000
                                         0.0000  0.0000
  10. (2.00000) CR ( 2)Br  9            s(100.00%)
                                         0.0000  1.0000  0.0000  0.0000  0.0000
                                         0.0000  0.0000  0.0000  0.0000  0.0000
                                         0.0000  0.0000  0.0000  0.0000  0.0000
                                         0.0000  0.0000  0.0000  0.0000  0.0000
                                         0.0000  0.0000  0.0000  0.0000  0.0000
                                         0.0000  0.0000
  11. (1.99999) CR ( 3)Br  9            s(100.00%)
                                         0.0000  0.0000  1.0000  0.0000  0.0000
                                         0.0000  0.0000  0.0000  0.0000  0.0000
                                         0.0000  0.0000  0.0000  0.0000  0.0000
                                         0.0000  0.0000  0.0000  0.0000  0.0000
                                         0.0000  0.0000  0.0000  0.0000  0.0000
                                         0.0000  0.0000
  12. (2.00000) CR ( 4)Br  9            s(  0.00%)p 1.00(100.00%)
                                         0.0000  0.0000  0.0000  0.0000  0.0000
                                         1.0000  0.0000  0.0000  0.0000  0.0000
                                         0.0000  0.0000  0.0000  0.0000  0.0000
                                         0.0000  0.0000  0.0000  0.0000  0.0000
                                         0.0000  0.0000  0.0000  0.0000  0.0000
                                         0.0000  0.0000
  13. (1.99999) CR ( 5)Br  9            s(  0.00%)p 1.00(100.00%)
                                         0.0000  0.0000  0.0000  0.0000  0.0000
                                         0.0000  1.0000  0.0000  0.0000  0.0000
                                         0.0000  0.0000  0.0000  0.0000  0.0000
                                         0.0000  0.0000  0.0000  0.0000  0.0000
                                         0.0000  0.0000  0.0000  0.0000  0.0000
                                         0.0000  0.0000
  14. (2.00000) CR ( 6)Br  9            s(  0.00%)p 1.00(100.00%)
                                         0.0000  0.0000  0.0000  0.0000  0.0000
                                         0.0000  0.0000  0.0000  0.0000  1.0000
                                         0.0000  0.0000  0.0000  0.0000  0.0000
                                         0.0000  0.0000  0.0000  0.0000  0.0000
                                         0.0000  0.0000  0.0000  0.0000  0.0000
                                         0.0000  0.0000
  15. (1.99999) CR ( 7)Br  9            s(  0.00%)p 1.00(100.00%)
                                         0.0000  0.0000  0.0000  0.0000  0.0000
                                         0.0000  0.0000  0.0000  0.0000  0.0000
                                         1.0000  0.0000  0.0000  0.0000  0.0000
                                         0.0000  0.0000  0.0000  0.0000  0.0000
                                         0.0000  0.0000  0.0000  0.0000  0.0000
                                         0.0000  0.0000
  16. (2.00000) CR ( 8)Br  9            s(  0.00%)p 1.00(100.00%)
                                         0.0000  0.0000  0.0000  0.0000  0.0000
                                         0.0000  0.0000  0.0000  0.0000  0.0000
                                         0.0000  0.0000  0.0000  1.0000  0.0000
                                         0.0000  0.0000  0.0000  0.0000  0.0000
                                         0.0000  0.0000  0.0000  0.0000  0.0000
                                         0.0000  0.0000
  17. (2.00000) CR ( 9)Br  9            s(  0.00%)p 1.00(100.00%)
                                         0.0000  0.0000  0.0000  0.0000  0.0000
                                         0.0000  0.0000  0.0000  0.0000  0.0000
                                         0.0000  0.0000  0.0000  0.0000  1.0000
                                         0.0000  0.0000  0.0000  0.0000  0.0000
                                         0.0000  0.0000  0.0000  0.0000  0.0000
                                         0.0000  0.0000
  18. (1.99960) CR (10)Br  9            s(  0.00%)p 0.00(  0.00%)d 1.00(100.00%)
                                         0.0000  0.0000  0.0000  0.0000  0.0000
                                         0.0000  0.0000  0.0000  0.0000  0.0000
                                         0.0000  0.0000  0.0000  0.0000  0.0000
                                         0.0000  0.0000  1.0000  0.0000  0.0000
                                         0.0000  0.0000  0.0000  0.0000  0.0000
                                         0.0000  0.0000
  19. (1.99987) CR (11)Br  9            s(  0.00%)p 0.00(  0.00%)d 1.00(100.00%)
                                         0.0000  0.0000  0.0000  0.0000  0.0000
                                         0.0000  0.0000  0.0000  0.0000  0.0000
                                         0.0000  0.0000  0.0000  0.0000  0.0000
                                         0.0000  0.0000  0.0000  0.0000  1.0000
                                         0.0000  0.0000  0.0000  0.0000  0.0000
                                         0.0000  0.0000
  20. (1.99998) CR (12)Br  9            s(  0.00%)p 0.00(  0.00%)d 1.00(100.00%)
                                         0.0000  0.0000  0.0000  0.0000  0.0000
                                         0.0000  0.0000  0.0000  0.0000  0.0000
                                         0.0000  0.0000  0.0000  0.0000  0.0000
                                         0.0000  0.0000  0.0000  0.0000  0.0000
                                         0.0000  1.0000  0.0000  0.0000  0.0000
                                         0.0000  0.0000
  21. (1.99952) CR (13)Br  9            s(  0.00%)p 0.00(  0.00%)d 1.00(100.00%)
                                         0.0000  0.0000  0.0000  0.0000  0.0000
                                         0.0000  0.0000  0.0000  0.0000  0.0000
                                         0.0000  0.0000  0.0000  0.0000  0.0000
                                         0.0000  0.0000  0.0000  0.0000  0.0000
                                         0.0000  0.0000  0.0000  1.0000  0.0000
                                         0.0000  0.0000
  22. (1.99980) CR (14)Br  9            s(  0.00%)p 0.00(  0.00%)d 1.00(100.00%)
                                         0.0000  0.0000  0.0000  0.0000  0.0000
                                         0.0000  0.0000  0.0000  0.0000  0.0000
                                         0.0000  0.0000  0.0000  0.0000  0.0000
                                         0.0000  0.0000  0.0000  0.0000  0.0000
                                         0.0000  0.0000  0.0000  0.0000  0.0000
                                         1.0000  0.0000
  23. (1.99985) CR ( 1) C 10            s(100.00%)
                                         1.0000  0.0000  0.0000  0.0000  0.0000
                                         0.0000  0.0000  0.0000  0.0000
  24. (1.99989) CR ( 1) C 11            s(100.00%)
                                         1.0000  0.0000  0.0000  0.0000  0.0000
                                         0.0000  0.0000  0.0000  0.0000
  25. (1.99975) CR ( 1) C 12            s(100.00%)
                                         1.0000  0.0000  0.0000  0.0000  0.0000
                                         0.0000  0.0000  0.0000  0.0000
  26. (1.98041) LP ( 1) O  1            s( 57.07%)p 0.75( 42.86%)d 0.00(  0.07%)
                                         0.0000  0.7554 -0.0085  0.4432 -0.0006
                                        -0.4159  0.0003 -0.2432  0.0003  0.0185
                                         0.0130 -0.0096 -0.0001  0.0091
  27. (1.87718) LP ( 2) O  1            s(  0.01%)p 1.00( 99.80%)d 0.00(  0.19%)
                                         0.0000  0.0092  0.0027 -0.5144  0.0019
                                        -0.7610  0.0043  0.3926 -0.0021  0.0072
                                        -0.0194 -0.0004  0.0368  0.0114
  28. (1.96200) LP ( 1) O  4            s( 40.61%)p 1.46( 59.31%)d 0.00(  0.08%)
                                         0.0000  0.6373 -0.0018  0.1846  0.0016
                                         0.7329  0.0001  0.1481 -0.0001 -0.0119
                                        -0.0049 -0.0147  0.0179  0.0084
  29. (1.87803) LP ( 2) O  4            s(  4.45%)p21.46( 95.44%)d 0.02(  0.11%)
                                         0.0000  0.2109 -0.0038  0.1918 -0.0002
                                        -0.4068  0.0015  0.8673  0.0051 -0.0013
                                        -0.0148 -0.0155 -0.0128 -0.0216
  30. (1.99726) LP ( 1)Br  9            s( 87.34%)p 0.14( 12.66%)d 0.00(  0.00%)
                                         0.0000  0.0000  0.0000  0.9345 -0.0096
                                         0.0000  0.0000 -0.3366 -0.0130  0.0000
                                         0.0000 -0.1113 -0.0043  0.0000  0.0000
                                        -0.0260 -0.0010  0.0000 -0.0024  0.0000
                                        -0.0003  0.0000 -0.0005  0.0000 -0.0033
                                         0.0000  0.0009
  31. (1.98144) LP ( 2)Br  9            s(  0.00%)p 1.00( 99.98%)d 0.00(  0.02%)
                                         0.0000  0.0000  0.0000  0.0002  0.0002
                                         0.0000  0.0000 -0.3007  0.0049  0.0000
                                         0.0000  0.9433 -0.0153  0.0000  0.0000
                                        -0.1389  0.0023  0.0000  0.0119  0.0000
                                        -0.0023  0.0000  0.0004  0.0000 -0.0085
                                         0.0000 -0.0002
  32. (1.94750) LP ( 3)Br  9            s(  0.00%)p 1.00( 99.97%)d 0.00(  0.03%)
                                         0.0000  0.0000  0.0000  0.0001  0.0000
                                         0.0000  0.0000 -0.1122  0.0016  0.0000
                                         0.0000  0.1096 -0.0015  0.0000  0.0000
                                         0.9874 -0.0140  0.0000  0.0011  0.0000
                                         0.0148  0.0000  0.0049  0.0000 -0.0022
                                         0.0000  0.0020
  33. (1.99663) BD ( 1) O  1- C  2
               ( 65.99%)   0.8123* O  1 s( 42.88%)p 1.32( 56.70%)d 0.01(  0.42%)
                                         0.0000  0.6546  0.0154 -0.4914  0.0032
                                         0.4905 -0.0032  0.2915 -0.0013 -0.0492
                                        -0.0264  0.0279  0.0012 -0.0180
               ( 34.01%)   0.5832* C  2 s( 32.12%)p 2.11( 67.88%)
                                         0.0000  0.5648  0.0478  0.5556  0.0572
                                        -0.5343 -0.0595 -0.2770 -0.0325
  34. (1.99130) BD ( 2) O  1- C  2
               ( 63.99%)   0.8000* O  1 s(  0.02%)p99.99( 99.64%)d18.46(  0.34%)
                                         0.0000  0.0135  0.0004 -0.5420 -0.0066
                                        -0.0646 -0.0012 -0.8357 -0.0103 -0.0184
                                         0.0209 -0.0331  0.0235 -0.0310
               ( 36.01%)   0.6000* C  2 s(  0.01%)p99.99( 99.99%)
                                         0.0000  0.0108  0.0003 -0.5249  0.0244
                                        -0.0961  0.0010 -0.8446  0.0339
  35. (1.99201) BD ( 1) C  2- C  3
               ( 48.54%)   0.6967* C  2 s( 32.82%)p 2.05( 67.18%)
                                         0.0000  0.5727 -0.0144  0.1085  0.0137
                                         0.7981 -0.0110 -0.1508 -0.0056
               ( 51.46%)   0.7174* C  3 s( 28.04%)p 2.57( 71.96%)
                                         0.0000  0.5295 -0.0027 -0.1275  0.0190
                                        -0.8180 -0.0113  0.1835 -0.0047
  36. (1.98348) BD ( 1) C  2- C 12
               ( 47.75%)   0.6910* C  2 s( 34.72%)p 1.88( 65.28%)
                                         0.0000  0.5890 -0.0161 -0.6333  0.0169
                                        -0.2561 -0.0214  0.4305 -0.0048
               ( 52.25%)   0.7228* C 12 s( 24.79%)p 3.03( 75.21%)
                                         0.0000  0.4979  0.0031  0.6940  0.0140
                                         0.2182 -0.0149 -0.4716 -0.0025
  37. (1.98323) BD ( 1) C  3- O  4
               ( 33.34%)   0.5774* C  3 s( 19.88%)p 4.03( 80.12%)
                                         0.0000  0.4451  0.0253 -0.6047 -0.0076
                                         0.4819  0.0426  0.4479  0.0285
               ( 66.66%)   0.8165* O  4 s( 25.13%)p 2.97( 74.59%)d 0.01(  0.28%)
                                         0.0000  0.5013  0.0034  0.5463  0.0084
                                        -0.4785  0.0134 -0.4672  0.0029 -0.0262
                                        -0.0224  0.0380 -0.0129 -0.0028
  38. (1.97556) BD ( 1) C  3- H 13
               ( 63.44%)   0.7965* C  3 s( 26.05%)p 2.84( 73.95%)
                                         0.0000  0.5104  0.0063  0.7769 -0.0178
                                         0.2659  0.0062  0.2547 -0.0046
               ( 36.56%)   0.6047* H 13 s(100.00%)
                                         1.0000  0.0008
  39. (1.97545) BD ( 1) C  3- H 14
               ( 63.01%)   0.7938* C  3 s( 26.05%)p 2.84( 73.95%)
                                         0.0000  0.5102 -0.0128 -0.1156  0.0112
                                         0.1608  0.0106 -0.8366  0.0080
               ( 36.99%)   0.6082* H 14 s(100.00%)
                                         1.0000  0.0042
  40. (1.99073) BD ( 1) O  4- C  5
               ( 66.15%)   0.8133* O  4 s( 29.72%)p 2.35( 69.98%)d 0.01(  0.29%)
                                         0.0000  0.5452  0.0035 -0.7917  0.0001
                                        -0.2583  0.0084 -0.0784  0.0077  0.0352
                                         0.0153  0.0112  0.0265 -0.0249
               ( 33.85%)   0.5818* C  5 s( 24.75%)p 3.04( 75.25%)
                                         0.0000  0.4975  0.0020  0.8219  0.0255
                                         0.2659  0.0377  0.0639  0.0139
  41. (1.97833) BD ( 1) C  5- C  6
               ( 50.46%)   0.7103* C  5 s( 37.86%)p 1.64( 62.14%)
                                         0.0000  0.6152  0.0073 -0.5442  0.0245
                                         0.5556  0.0208 -0.1243 -0.0020
               ( 49.54%)   0.7039* C  6 s( 34.57%)p 1.89( 65.43%)
                                         0.0000  0.5878  0.0115  0.6042  0.0359
                                        -0.5230  0.0041  0.1196  0.0046
  42. (1.65229) BD ( 2) C  5- C  6
               ( 49.30%)   0.7022* C  5 s(  0.02%)p99.99( 99.98%)
                                         0.0000 -0.0048  0.0140 -0.1114  0.0127
                                         0.1164 -0.0047  0.9866 -0.0142
               ( 50.70%)   0.7120* C  6 s(  0.00%)p 1.00(100.00%)
                                         0.0000  0.0002  0.0028 -0.0933  0.0006
                                         0.1185 -0.0040  0.9885 -0.0083
  43. (1.97392) BD ( 1) C  5- C 11
               ( 49.01%)   0.7000* C  5 s( 37.21%)p 1.69( 62.79%)
                                         0.0000  0.6099 -0.0067 -0.1238  0.0025
                                        -0.7785  0.0001  0.0810  0.0062
               ( 50.99%)   0.7141* C 11 s( 32.96%)p 2.03( 67.04%)
                                         0.0000  0.5741  0.0018  0.1852  0.0097
                                         0.7914  0.0081 -0.0984  0.0016
  44. (1.97068) BD ( 1) C  6- C  7
               ( 49.93%)   0.7066* C  6 s( 35.70%)p 1.80( 64.30%)
                                         0.0000  0.5974  0.0083 -0.7671 -0.0265
                                        -0.2266  0.0226 -0.0453 -0.0057
               ( 50.07%)   0.7076* C  7 s( 35.51%)p 1.82( 64.49%)
                                         0.0000  0.5959  0.0059  0.7555  0.0099
                                         0.2642  0.0341  0.0550 -0.0030
  45. (1.98009) BD ( 1) C  6- H 15
               ( 63.45%)   0.7966* C  6 s( 29.77%)p 2.36( 70.23%)
                                         0.0000  0.5454 -0.0145  0.1891 -0.0089
                                         0.8122 -0.0205 -0.0796  0.0018
               ( 36.55%)   0.6046* H 15 s(100.00%)
                                         1.0000  0.0026
  46. (1.98052) BD ( 1) C  7- C  8
               ( 49.10%)   0.7007* C  7 s( 34.91%)p 1.86( 65.09%)
                                         0.0000  0.5907  0.0132 -0.1974 -0.0354
                                        -0.7786 -0.0136  0.0653 -0.0024
               ( 50.90%)   0.7134* C  8 s( 38.69%)p 1.58( 61.31%)
                                         0.0000  0.6220  0.0047  0.1081 -0.0122
                                         0.7713  0.0283 -0.0748 -0.0044
  47. (1.68804) BD ( 2) C  7- C  8
               ( 46.51%)   0.6820* C  7 s(  0.00%)p 1.00(100.00%)
                                         0.0000  0.0000  0.0003 -0.1107  0.0006
                                         0.1109 -0.0007  0.9876 -0.0041
               ( 53.49%)   0.7314* C  8 s(  0.00%)p 1.00(100.00%)
                                         0.0000  0.0020  0.0001 -0.1104 -0.0005
                                         0.1096  0.0001  0.9878  0.0038
  48. (1.98172) BD ( 1) C  7- H 16
               ( 63.51%)   0.7970* C  7 s( 29.61%)p 2.38( 70.39%)
                                         0.0000  0.5440 -0.0137 -0.6136  0.0196
                                         0.5564 -0.0132 -0.1312  0.0038
               ( 36.49%)   0.6040* H 16 s(100.00%)
                                         1.0000  0.0026
  49. (1.98735) BD ( 1) C  8-Br  9
               ( 50.45%)   0.7103* C  8 s( 22.70%)p 3.41( 77.30%)
                                         0.0000  0.4763 -0.0091 -0.8318  0.0447
                                        -0.2735  0.0153 -0.0636  0.0033
               ( 49.55%)   0.7039*Br  9 s( 12.86%)p 6.73( 86.52%)d 0.05(  0.62%)
                                         0.0000  0.0000  0.0000  0.3549  0.0515
                                         0.0000  0.0000  0.8794  0.0525  0.0000
                                         0.0000  0.2903  0.0174  0.0000  0.0000
                                         0.0677  0.0040  0.0000  0.0405  0.0000
                                         0.0094  0.0000  0.0032  0.0000  0.0548
                                         0.0000 -0.0384
  50. (1.97956) BD ( 1) C  8- C 10
               ( 50.64%)   0.7116* C  8 s( 38.59%)p 1.59( 61.41%)
                                         0.0000  0.6212  0.0042  0.5313  0.0061
                                        -0.5625 -0.0300  0.1205  0.0040
               ( 49.36%)   0.7026* C 10 s( 35.10%)p 1.85( 64.90%)
                                         0.0000  0.5923  0.0127 -0.6045 -0.0358
                                         0.5133 -0.0119 -0.1365 -0.0023
  51. (1.96583) BD ( 1) C 10- C 11
               ( 48.93%)   0.6995* C 10 s( 35.65%)p 1.80( 64.35%)
                                         0.0000  0.5970  0.0087  0.7661  0.0266
[...]
   27. LP ( 2) O  1             1.87718    -0.34269  59(v),60(v),61(r)
   28. LP ( 1) O  4             1.96200    -0.57470  67(v),59(v),107(v),94(v)
                                                     62(v),66(v),65(v),57(r)
   29. LP ( 2) O  4             1.87803    -0.40176  66(v),63(v),59(v),65(v)
                                                     67(v),62(v)
   30. LP ( 1)Br  9             1.99726    -0.75953  120(v)
   31. LP ( 2)Br  9             1.98144    -0.36344  70(v),74(v),119(v)
   32. LP ( 3)Br  9             1.94750    -0.35882  71(v)
   33. BD ( 1) O  1- C  2       1.99663    -1.03030  61(v)
   34. BD ( 2) O  1- C  2       1.99130    -0.47495  80(v),63(v),78(v),62(v)
   35. BD ( 1) C  2- C  3       1.99201    -0.68756  81(v),79(v),140(v),62(g)
   36. BD ( 1) C  2- C 12       1.98348    -0.67223  76(v),75(v),81(v),94(v)
                                                     78(g),61(v),79(g),138(v)
                                                     80(g)
   37. BD ( 1) C  3- O  4       1.98323    -0.80660  66(v),65(v),57(v),107(v)
   38. BD ( 1) C  3- H 13       1.97556    -0.59978  58(v),64(v),60(v),99(v)
   39. BD ( 1) C  3- H 14       1.97545    -0.59844  58(v),60(v),92(v)
   40. BD ( 1) O  4- C  5       1.99073    -0.86462  75(v),62(v),68(v),95(v)
                                                     65(g)
   41. BD ( 1) C  5- C  6       1.97833    -0.72180  67(g),136(v),68(g),116(v)
                                                     78(v),69(g),72(v),61(v)
                                                     98(v),115(v)
   42. BD ( 2) C  5- C  6       1.65229    -0.32906  71(v),76(v),61(v),118(v)
   43. BD ( 1) C  5- C 11       1.97392    -0.72140  65(g),75(g),111(v),78(g)
                                                     77(v),133(v),69(v),140(v)
                                                     79(v),98(v),132(v),141(v)
   44. BD ( 1) C  6- C  7       1.97068    -0.70383  64(v),73(v),70(g),65(g)
                                                     107(v),69(g),119(v),72(g)
                                                     120(v),108(v)
   45. BD ( 1) C  6- H 15       1.98009    -0.58251  67(v),70(v),64(v),115(v)
                                                     68(g),65(g),107(v),108(v)
   46. BD ( 1) C  7- C  8       1.98052    -0.72566  74(g),68(g),112(v),72(g)
                                                     77(v),69(v),133(v),132(v)
   47. BD ( 2) C  7- C  8       1.68804    -0.33581  76(v),66(v),123(v),135(v)
   48. BD ( 1) C  7- H 16       1.98172    -0.58418  65(v),74(v),120(v),68(g)
                                                     70(g),112(v),73(v),111(v)
   49. BD ( 1) C  8-Br  9       1.98735    -0.63362  132(v),115(v),75(v),68(v)
   50. BD ( 1) C  8- C 10       1.97956    -0.72543  70(g),75(g),137(v),78(v)
                                                     77(g),72(v),115(v),116(v)
   51. BD ( 1) C 10- C 11       1.96583    -0.70711  67(g),64(v),73(v),74(g)
                                                     78(g),108(v),119(v),77(g)
                                                     140(v),120(v)
   52. BD ( 2) C 10- C 11       1.68246    -0.32776  66(v),71(v),80(v),60(v)
                                                     121(v)
   53. BD ( 1) C 10- H 17       1.98085    -0.58538  67(v),70(v),120(v),75(g)
                                                     136(v),74(g),73(v),137(v)
                                                     78(v)
   54. BD ( 1) C 11- C 12       1.96936    -0.65328  75(g),57(v),65(v),67(g)
                                                     132(v),58(v),74(v),107(v)
                                                     64(v),80(g),79(g),108(v)
                                                     60(g),92(v),91(v)
   55. BD ( 1) C 12- H 18       1.98131    -0.57794  59(v),67(v),58(v),57(v)
                                                     78(g),90(v),60(g)
   56. BD ( 1) C 12- H 19       1.95312    -0.57295  58(v),76(v),138(v),78(g)
                                                     92(v)
 ------ non-Lewis ----------------------------------
   57. BD*( 1) O  1- C  2       0.01047     0.67203
   58. BD*( 2) O  1- C  2       0.07252     0.06985
   59. BD*( 1) C  2- C  3       0.07641     0.42469
   60. BD*( 1) C  2- C 12       0.06494     0.44436
   61. BD*( 1) C  3- O  4       0.01717     0.33511
   62. BD*( 1) C  3- H 13       0.00999     0.52557
   63. BD*( 1) C  3- H 14       0.02049     0.50265
   64. BD*( 1) O  4- C  5       0.02450     0.41691
   65. BD*( 1) C  5- C  6       0.02393     0.66542
   66. BD*( 2) C  5- C  6       0.37976     0.05547
   67. BD*( 1) C  5- C 11       0.03342     0.65100
   68. BD*( 1) C  6- C  7       0.01523     0.66885
   69. BD*( 1) C  6- H 15       0.01065     0.57316
   70. BD*( 1) C  7- C  8       0.02189     0.65024
   71. BD*( 2) C  7- C  8       0.39521     0.04491
   72. BD*( 1) C  7- H 16       0.01120     0.57291
   73. BD*( 1) C  8-Br  9       0.02372     0.17941
   74. BD*( 1) C  8- C 10       0.02139     0.65028
   75. BD*( 1) C 10- C 11       0.02278     0.67417
   76. BD*( 2) C 10- C 11       0.35484     0.06175
   77. BD*( 1) C 10- H 17       0.01231     0.56268
   78. BD*( 1) C 11- C 12       0.02041     0.49358
   79. BD*( 1) C 12- H 18       0.00775     0.52634
   80. BD*( 1) C 12- H 19       0.01295     0.49851
   81. RY ( 1) O  1             0.00215     1.74797
   82. RY ( 2) O  1             0.00043     1.87404
   83. RY ( 3) O  1             0.00005     2.13428
   84. RY ( 4) O  1             0.00005     2.22409
   85. RY ( 5) O  1             0.00002     1.58318
   86. RY ( 6) O  1             0.00001     1.89590
   87. RY ( 7) O  1             0.00001     2.13559
   88. RY ( 8) O  1             0.00000     1.90996
   89. RY ( 9) O  1             0.00000     1.87567
   90. RY ( 1) C  2             0.01607     0.90619
   91. RY ( 2) C  2             0.00264     1.15561
   92. RY ( 3) C  2             0.00204     0.93018
   93. RY ( 4) C  2             0.00048     0.89633
   94. RY ( 1) C  3             0.00446     0.94648
   95. RY ( 2) C  3             0.00186     1.03557
   96. RY ( 3) C  3             0.00061     1.05459
   97. RY ( 4) C  3             0.00044     1.02162
   98. RY ( 1) O  4             0.00173     1.74789
   99. RY ( 2) O  4             0.00131     1.66816
  100. RY ( 3) O  4             0.00044     2.15602
  101. RY ( 4) O  4             0.00024     2.20569
  102. RY ( 5) O  4             0.00016     2.11408
  103. RY ( 6) O  4             0.00007     2.02128
  104. RY ( 7) O  4             0.00002     1.97175
  105. RY ( 8) O  4             0.00002     2.09751
  106. RY ( 9) O  4             0.00001     1.94506
  107. RY ( 1) C  5             0.00637     1.25237
  108. RY ( 2) C  5             0.00477     1.31397
  109. RY ( 3) C  5             0.00125     0.91008
  110. RY ( 4) C  5             0.00073     0.90024
  111. RY ( 1) C  6             0.00414     1.19565
  112. RY ( 2) C  6             0.00318     1.21559
  113. RY ( 3) C  6             0.00043     0.81268
  114. RY ( 4) C  6             0.00027     0.83944
  115. RY ( 1) C  7             0.00530     1.34078
  116. RY ( 2) C  7             0.00333     1.01989
  117. RY ( 3) C  7             0.00041     0.72110
  118. RY ( 4) C  7             0.00033     0.92520
  119. RY ( 1) C  8             0.00655     1.08795
  120. RY ( 2) C  8             0.00499     1.36378
  121. RY ( 3) C  8             0.00079     0.94513
  122. RY ( 4) C  8             0.00030     0.71085
  123. RY ( 1)Br  9             0.00214     0.68150
  124. RY ( 2)Br  9             0.00095     0.74539
  125. RY ( 3)Br  9             0.00060     1.12469
  126. RY ( 4)Br  9             0.00024     0.81260
  127. RY ( 5)Br  9             0.00010     0.93839
  128. RY ( 6)Br  9             0.00004     0.64628
  129. RY ( 7)Br  9             0.00003     0.67262
  130. RY ( 8)Br  9             0.00002     0.76719
  131. RY ( 9)Br  9             0.00001     0.71719
  132. RY ( 1) C 10             0.00567     1.35987
  133. RY ( 2) C 10             0.00369     0.99841
  134. RY ( 3) C 10             0.00055     0.71898
  135. RY ( 4) C 10             0.00030     0.92646
  136. RY ( 1) C 11             0.00428     1.38126
  137. RY ( 2) C 11             0.00321     1.36819
  138. RY ( 3) C 11             0.00148     0.95766
  139. RY ( 4) C 11             0.00052     0.83563
  140. RY ( 1) C 12             0.00440     1.11573
  141. RY ( 2) C 12             0.00185     0.97252
  142. RY ( 3) C 12             0.00065     1.13227
  143. RY ( 4) C 12             0.00032     0.98956
  144. RY ( 1) H 13             0.00143     0.58569
  145. RY ( 1) H 14             0.00210     0.60272
  146. RY ( 1) H 15             0.00153     0.61425
  147. RY ( 1) H 16             0.00119     0.60953
  148. RY ( 1) H 17             0.00125     0.62374
  149. RY ( 1) H 18             0.00268     0.62393
  150. RY ( 1) H 19             0.00163     0.61220
          -------------------------------
                 Total Lewis  110.21479  ( 98.4061%)
           Valence non-Lewis    1.66394  (  1.4857%)
           Rydberg non-Lewis    0.12126  (  0.1083%)
          -------------------------------
               Total unit  1  112.00000  (100.0000%)
              Charge unit  1    0.00000

 $CHOOSE
   LONE 1 2 4 2 9 3 END
   BOND D 1 2 S 2 3 S 2 12 S 3 4 S 3 13 S 3 14 S 4 5 D 5 6 S 5 11 S 6 7 S 6 15
        D 7 8 S 7 16 S 8 9 S 8 10 D 10 11 S 10 17 S 11 12 S 12 18 S 12 19 END
 $END


 Checkpoint NBOs sorted by occupancy:

  Sort    Occ       Energy   Orig   Label
 -----------------------------------------------------------
    1.  2.00000   -20.44782    9.   CR ( 1)Br  9
    2.  2.00000  -451.11314   10.   CR ( 2)Br  9
    3.  2.00000    -7.16559   12.   CR ( 4)Br  9
    4.  2.00000    -7.15374   14.   CR ( 6)Br  9
    5.  2.00000    -7.15245   16.   CR ( 8)Br  9
    6.  2.00000   -55.67754   17.   CR ( 9)Br  9
    7.  1.99999   -80.06271   11.   CR ( 3)Br  9
    8.  1.99999   -55.67790   15.   CR ( 7)Br  9
    9.  1.99999   -55.68085   13.   CR ( 5)Br  9
   10.  1.99998    -2.76377   20.   CR (12)Br  9
   11.  1.99990   -10.33776    2.   CR ( 1) C  2
   12.  1.99990   -19.15349    1.   CR ( 1) O  1
   13.  1.99989   -10.26425   24.   CR ( 1) C 11
   14.  1.99989   -10.29576    8.   CR ( 1) C  8
   15.  1.99987    -2.77306   19.   CR (11)Br  9
   16.  1.99986   -10.25455    7.   CR ( 1) C  7
   17.  1.99986   -10.30618    5.   CR ( 1) C  5
   18.  1.99986   -19.19096    4.   CR ( 1) O  4
   19.  1.99985   -10.24888    6.   CR ( 1) C  6
   20.  1.99985   -10.25652   23.   CR ( 1) C 10
   21.  1.99980    -2.76660   22.   CR (14)Br  9
   22.  1.99976   -10.30153    3.   CR ( 1) C  3
   23.  1.99975   -10.25788   25.   CR ( 1) C 12
   24.  1.99960    -2.77408   18.   CR (10)Br  9
   25.  1.99952    -2.77415   21.   CR (13)Br  9
   26.  1.99726    -0.75953   30.   LP ( 1)Br  9
   27.  1.99663    -1.03030   33.   BD ( 1) O  1- C  2
   28.  1.99201    -0.68756   35.   BD ( 1) C  2- C  3
   29.  1.99130    -0.47495   34.   BD ( 2) O  1- C  2
   30.  1.99073    -0.86462   40.   BD ( 1) O  4- C  5
   31.  1.98735    -0.63362   49.   BD ( 1) C  8-Br  9
   32.  1.98348    -0.67223   36.   BD ( 1) C  2- C 12
   33.  1.98323    -0.80660   37.   BD ( 1) C  3- O  4
   34.  1.98172    -0.58418   48.   BD ( 1) C  7- H 16
   35.  1.98144    -0.36344   31.   LP ( 2)Br  9
   36.  1.98131    -0.57794   55.   BD ( 1) C 12- H 18
   37.  1.98085    -0.58538   53.   BD ( 1) C 10- H 17
   38.  1.98052    -0.72566   46.   BD ( 1) C  7- C  8
   39.  1.98041    -0.65311   26.   LP ( 1) O  1
   40.  1.98009    -0.58251   45.   BD ( 1) C  6- H 15
   41.  1.97956    -0.72543   50.   BD ( 1) C  8- C 10
   42.  1.97833    -0.72180   41.   BD ( 1) C  5- C  6
   43.  1.97556    -0.59978   38.   BD ( 1) C  3- H 13
   44.  1.97545    -0.59844   39.   BD ( 1) C  3- H 14
   45.  1.97392    -0.72140   43.   BD ( 1) C  5- C 11
   46.  1.97068    -0.70383   44.   BD ( 1) C  6- C  7
   47.  1.96936    -0.65328   54.   BD ( 1) C 11- C 12
   48.  1.96583    -0.70711   51.   BD ( 1) C 10- C 11
   49.  1.96200    -0.57470   28.   LP ( 1) O  4
   50.  1.95312    -0.57295   56.   BD ( 1) C 12- H 19
   51.  1.94750    -0.35882   32.   LP ( 3)Br  9
   52.  1.87803    -0.40176   29.   LP ( 2) O  4
   53.  1.87718    -0.34269   27.   LP ( 2) O  1
   54.  1.68804    -0.33581   47.   BD ( 2) C  7- C  8
   55.  1.68246    -0.32776   52.   BD ( 2) C 10- C 11
   56.  1.65229    -0.32906   42.   BD ( 2) C  5- C  6
   57.  0.39521     0.04491   71.   BD*( 2) C  7- C  8
   58.  0.37976     0.05547   66.   BD*( 2) C  5- C  6
   59.  0.35484     0.06175   76.   BD*( 2) C 10- C 11
   60.  0.07641     0.42469   59.   BD*( 1) C  2- C  3
   61.  0.07252     0.06985   58.   BD*( 2) O  1- C  2
   62.  0.06494     0.44436   60.   BD*( 1) C  2- C 12
   63.  0.03342     0.65100   67.   BD*( 1) C  5- C 11
   64.  0.02450     0.41691   64.   BD*( 1) O  4- C  5
   65.  0.02393     0.66542   65.   BD*( 1) C  5- C  6
   66.  0.02372     0.17941   73.   BD*( 1) C  8-Br  9
   67.  0.02278     0.67417   75.   BD*( 1) C 10- C 11
   68.  0.02189     0.65024   70.   BD*( 1) C  7- C  8
   69.  0.02139     0.65028   74.   BD*( 1) C  8- C 10
   70.  0.02049     0.50265   63.   BD*( 1) C  3- H 14
   71.  0.02041     0.49358   78.   BD*( 1) C 11- C 12
   72.  0.01717     0.33511   61.   BD*( 1) C  3- O  4
   73.  0.01607     0.90619   90.   RY ( 1) C  2
   74.  0.01523     0.66885   68.   BD*( 1) C  6- C  7
   75.  0.01295     0.49851   80.   BD*( 1) C 12- H 19
   76.  0.01231     0.56268   77.   BD*( 1) C 10- H 17
   77.  0.01120     0.57291   72.   BD*( 1) C  7- H 16
   78.  0.01065     0.57316   69.   BD*( 1) C  6- H 15
   79.  0.01047     0.67203   57.   BD*( 1) O  1- C  2
   80.  0.00999     0.52557   62.   BD*( 1) C  3- H 13
   81.  0.00775     0.52634   79.   BD*( 1) C 12- H 18
   82.  0.00655     1.08795  119.   RY ( 1) C  8
   83.  0.00637     1.25237  107.   RY ( 1) C  5
   84.  0.00567     1.35987  132.   RY ( 1) C 10
   85.  0.00530     1.34078  115.   RY ( 1) C  7
   86.  0.00499     1.36378  120.   RY ( 2) C  8
   87.  0.00477     1.31397  108.   RY ( 2) C  5
   88.  0.00446     0.94648   94.   RY ( 1) C  3
   89.  0.00440     1.11573  140.   RY ( 1) C 12
   90.  0.00428     1.38126  136.   RY ( 1) C 11
   91.  0.00414     1.19565  111.   RY ( 1) C  6
   92.  0.00369     0.99841  133.   RY ( 2) C 10
   93.  0.00333     1.01989  116.   RY ( 2) C  7
   94.  0.00321     1.36819  137.   RY ( 2) C 11
   95.  0.00318     1.21559  112.   RY ( 2) C  6
   96.  0.00268     0.62393  149.   RY ( 1) H 18
   97.  0.00264     1.15561   91.   RY ( 2) C  2
   98.  0.00215     1.74797   81.   RY ( 1) O  1
   99.  0.00214     0.68150  123.   RY ( 1)Br  9
  100.  0.00210     0.60272  145.   RY ( 1) H 14
  101.  0.00204     0.93018   92.   RY ( 3) C  2
  102.  0.00186     1.03557   95.   RY ( 2) C  3
  103.  0.00185     0.97252  141.   RY ( 2) C 12
  104.  0.00173     1.74789   98.   RY ( 1) O  4
  105.  0.00163     0.61220  150.   RY ( 1) H 19
  106.  0.00153     0.61425  146.   RY ( 1) H 15
  107.  0.00148     0.95766  138.   RY ( 3) C 11
  108.  0.00143     0.58569  144.   RY ( 1) H 13
  109.  0.00131     1.66816   99.   RY ( 2) O  4
  110.  0.00125     0.62374  148.   RY ( 1) H 17
  111.  0.00125     0.91008  109.   RY ( 3) C  5
  112.  0.00119     0.60953  147.   RY ( 1) H 16
  113.  0.00095     0.74539  124.   RY ( 2)Br  9
  114.  0.00079     0.94513  121.   RY ( 3) C  8
  115.  0.00073     0.90024  110.   RY ( 4) C  5
  116.  0.00065     1.13227  142.   RY ( 3) C 12
  117.  0.00061     1.05459   96.   RY ( 3) C  3
  118.  0.00060     1.12469  125.   RY ( 3)Br  9
  119.  0.00055     0.71898  134.   RY ( 3) C 10
  120.  0.00052     0.83563  139.   RY ( 4) C 11
  121.  0.00048     0.89633   93.   RY ( 4) C  2
  122.  0.00044     1.02162   97.   RY ( 4) C  3
  123.  0.00044     2.15602  100.   RY ( 3) O  4
  124.  0.00043     1.87404   82.   RY ( 2) O  1
  125.  0.00043     0.81268  113.   RY ( 3) C  6
  126.  0.00041     0.72110  117.   RY ( 3) C  7
  127.  0.00033     0.92520  118.   RY ( 4) C  7
  128.  0.00032     0.98956  143.   RY ( 4) C 12
  129.  0.00030     0.92646  135.   RY ( 4) C 10
  130.  0.00030     0.71085  122.   RY ( 4) C  8
  131.  0.00027     0.83944  114.   RY ( 4) C  6
  132.  0.00024     2.20569  101.   RY ( 4) O  4
  133.  0.00024     0.81260  126.   RY ( 4)Br  9
  134.  0.00016     2.11408  102.   RY ( 5) O  4
  135.  0.00010     0.93839  127.   RY ( 5)Br  9
  136.  0.00007     2.02128  103.   RY ( 6) O  4
  137.  0.00005     2.13428   83.   RY ( 3) O  1
  138.  0.00005     2.22409   84.   RY ( 4) O  1
  139.  0.00004     0.64628  128.   RY ( 6)Br  9
  140.  0.00002     1.97175  104.   RY ( 7) O  4
  141.  0.00003     0.67262  129.   RY ( 7)Br  9
  142.  0.00002     1.58318   85.   RY ( 5) O  1
  143.  0.00002     0.76719  130.   RY ( 8)Br  9
  144.  0.00002     2.09751  105.   RY ( 8) O  4
  145.  0.00001     1.89590   86.   RY ( 6) O  1
  146.  0.00001     0.71719  131.   RY ( 9)Br  9
  147.  0.00001     2.13559   87.   RY ( 7) O  1
  148.  0.00001     1.94506  106.   RY ( 9) O  4
  149.  0.00000     1.90996   88.   RY ( 8) O  1
  150.  0.00000     1.87567   89.   RY ( 9) O  1

 NBO analysis completed in 0.68 CPU seconds (0 wall seconds)
 Maximum scratch memory used by NBO was 644591 words (4.92 MB)
 Maximum scratch memory used by G16NBO was 43128 words (0.33 MB)

 Opening RunExU unformatted file "/home/rpaton/opt/midi/Gau-804338.EUF"
 Read unf file /home/rpaton/opt/midi/Gau-804338.EUF:
 Label Gaussian matrix elements                                         IVers= 2 NLab= 2 Version=ES64L-G16RevC.01
 Title arbr47_wb97xd_popncreated by GaussianPrep                       
 NAtoms=    19 NBasis=   150 NBsUse=   150 ICharg=     0 Multip=     1 NE=   112 Len12L=8 Len4L=8 IOpCl= 0 ICGU=111
 GAUSSIAN SCALARS                    NI= 1 NR= 1 NTot=       1 LenBuf=    2 NRI=1 N=    1000
 ALPHA ORBITAL ENERGIES              NI= 0 NR= 1 NTot=     150 LenBuf= 2048 NRI=1 N=     150
 ALPHA MO COEFFICIENTS               NI= 0 NR= 1 NTot=   22500 LenBuf= 2048 NRI=1 N=     150     150
 Store file  10524 Len=   22500.
 NPA CHARGES                         NI= 0 NR= 1 NTot=      19 LenBuf= 2048 NRI=1 N=      19
 Recovered energy= -3056.61094956     dipole=      0.144653993847      0.366704757179      0.118850418309
 Unable to Open any file for archive entry.
 1\1\GINC-DYNAMO\SP\RwB97XD\MIDIx\C9H7Br1O2\RPATON\25-Sep-2024\0\\# pop
 =(nbo6read,savenbos,hirshfeld) wb97xd/midix\\arbr47_wb97xd_popncreated
  by GaussianPrep\\0,1\O,0,-4.109919,-1.630722,0.585986\C,0,-3.298579,-
 0.844315,0.144959\C,0,-3.442827,0.660766,0.403285\O,0,-2.518027,1.4776
 41,-0.332009\C,0,-1.212342,1.041167,-0.208586\C,0,-0.201379,1.969279,0
 .004793\C,0,1.117978,1.540279,0.09029\C,0,1.409152,0.186066,-0.028205\
 Br,0,3.206462,-0.406892,0.110128\C,0,0.39717,-0.74077,-0.250961\C,0,-0
 .919538,-0.314696,-0.358131\C,0,-2.070795,-1.232337,-0.6735\H,0,-4.444
 867,0.978749,0.097656\H,0,-3.335515,0.833408,1.486767\H,0,-0.462596,3.
 017789,0.104758\H,0,1.916902,2.255313,0.259203\H,0,0.638091,-1.795408,
 -0.355692\H,0,-1.844914,-2.286553,-0.483742\H,0,-2.342752,-1.130055,-1
 .738911\\Version=ES64L-G16RevC.01\State=1-A\HF=-3056.6109496\RMSD=9.29
 1e-09\Dipole=-0.144654,0.3667048,-0.1188504\Quadrupole=-2.5543231,2.31
 03568,0.2439663,-3.30116,1.5536379,3.0008978\PG=C01 [X(C9H7Br1O2)]\\@
 The archive entry for this job was punched.


 A warm smile is the universal language of kindness.
                             -- William Arthur Ward
 Job cpu time:       0 days  0 hours  3 minutes 33.1 seconds.
 Elapsed time:       0 days  0 hours  0 minutes  9.2 seconds.
 File lengths (MBytes):  RWF=     17 Int=      0 D2E=      0 Chk=      2 Scr=      1
 Normal termination of Gaussian 16 at Wed Sep 25 23:38:23 2024.
