 Entering Gaussian System, Link 0=/usr/local/Gaussian/G16C/g16/g16
 Input=popn/arbr43_wb97xd_popn.com
 Output=popn/arbr43_wb97xd_popn.log
 Initial command:
 /usr/local/Gaussian/G16C/g16/l1.exe "/home/rpaton/opt/midi/Gau-803298.inp" -scrdir="/home/rpaton/opt/midi/"
 Entering Link 1 = /usr/local/Gaussian/G16C/g16/l1.exe PID=    803299.
  
 Copyright (c) 1988-2019, Gaussian, Inc.  All Rights Reserved.
  
 This is part of the Gaussian(R) 16 program.  It is based on
 the Gaussian(R) 09 system (copyright 2009, Gaussian, Inc.),
 the Gaussian(R) 03 system (copyright 2003, Gaussian, Inc.),
 the Gaussian(R) 98 system (copyright 1998, Gaussian, Inc.),
 the Gaussian(R) 94 system (copyright 1995, Gaussian, Inc.),
 the Gaussian 92(TM) system (copyright 1992, Gaussian, Inc.),
 the Gaussian 90(TM) system (copyright 1990, Gaussian, Inc.),
 the Gaussian 88(TM) system (copyright 1988, Gaussian, Inc.),
 the Gaussian 86(TM) system (copyright 1986, Carnegie Mellon
 University), and the Gaussian 82(TM) system (copyright 1983,
 Carnegie Mellon University). Gaussian is a federally registered
 trademark of Gaussian, Inc.
  
 This software contains proprietary and confidential information,
 including trade secrets, belonging to Gaussian, Inc.
  
 This software is provided under written license and may be
 used, copied, transmitted, or stored only in accord with that
 written license.
  
 The following legend is applicable only to US Government
 contracts under FAR:
  
                    RESTRICTED RIGHTS LEGEND
  
 Use, reproduction and disclosure by the US Government is
 subject to restrictions as set forth in subparagraphs (a)
 and (c) of the Commercial Computer Software - Restricted
 Rights clause in FAR 52.227-19.
  
 Gaussian, Inc.
 340 Quinnipiac St., Bldg. 40, Wallingford CT 06492
  
  
 ---------------------------------------------------------------
 Warning -- This program may not be used in any manner that
 competes with the business of Gaussian, Inc. or will provide
 assistance to any competitor of Gaussian, Inc.  The licensee
 of this program is prohibited from giving any competitor of
 Gaussian, Inc. access to this program.  By using this program,
 the user acknowledges that Gaussian, Inc. is engaged in the
 business of creating and licensing software in the field of
 computational chemistry and represents and warrants to the
 licensee that it is not a competitor of Gaussian, Inc. and that
 it will not use this program in any manner prohibited above.
 ---------------------------------------------------------------
  

 Cite this work as:
 Gaussian 16, Revision C.01,
 M. J. Frisch, G. W. Trucks, H. B. Schlegel, G. E. Scuseria, 
 M. A. Robb, J. R. Cheeseman, G. Scalmani, V. Barone, 
 G. A. Petersson, H. Nakatsuji, X. Li, M. Caricato, A. V. Marenich, 
 J. Bloino, B. G. Janesko, R. Gomperts, B. Mennucci, H. P. Hratchian, 
 J. V. Ortiz, A. F. Izmaylov, J. L. Sonnenberg, D. Williams-Young, 
 F. Ding, F. Lipparini, F. Egidi, J. Goings, B. Peng, A. Petrone, 
 T. Henderson, D. Ranasinghe, V. G. Zakrzewski, J. Gao, N. Rega, 
 G. Zheng, W. Liang, M. Hada, M. Ehara, K. Toyota, R. Fukuda, 
 J. Hasegawa, M. Ishida, T. Nakajima, Y. Honda, O. Kitao, H. Nakai, 
 T. Vreven, K. Throssell, J. A. Montgomery, Jr., J. E. Peralta, 
 F. Ogliaro, M. J. Bearpark, J. J. Heyd, E. N. Brothers, K. N. Kudin, 
 V. N. Staroverov, T. A. Keith, R. Kobayashi, J. Normand, 
 K. Raghavachari, A. P. Rendell, J. C. Burant, S. S. Iyengar, 
 J. Tomasi, M. Cossi, J. M. Millam, M. Klene, C. Adamo, R. Cammi, 
 J. W. Ochterski, R. L. Martin, K. Morokuma, O. Farkas, 
 J. B. Foresman, and D. J. Fox, Gaussian, Inc., Wallingford CT, 2019.
 
 ******************************************
 Gaussian 16:  ES64L-G16RevC.01  3-Jul-2019
                25-Sep-2024 
 ******************************************
 %chk=arbr43_wb97xd_popn.chk
 %mem=48GB
 %nprocshared=24
 Will use up to   24 processors via shared memory.
 ------------------------------------------------
 # pop=(nbo6read,savenbos,hirshfeld) wb97xd/midix
 ------------------------------------------------
 1/38=1,163=2,172=1/1;
 2/12=2,17=6,18=5,40=1/2;
 3/5=20,11=2,25=1,30=1,74=-58/1,2,3;
 4//1;
 5/5=2,38=5/2;
 6/7=2,8=2,9=2,10=2,28=1,40=2,73=1,79=1,113=1,114=1,124=2103,126=1/1,12;
 99/5=1,9=1/99;
 -----------------------------------------
 arbr43_wb97xd_popncreated by GaussianPrep
 -----------------------------------------
 Symbolic Z-matrix:
 Charge =  0 Multiplicity = 1
 Br                    3.011    -0.25382  -0.02621 
 C                     1.16576   0.19189   0.01007 
 C                     0.78058   1.52739   0.06485 
 C                    -0.57456   1.82881   0.08324 
 C                    -1.55292   0.83825   0.05337 
 C                    -1.13706  -0.49828   0.01338 
 C                     0.2226   -0.8186   -0.01567 
 O                    -1.99553  -1.56799  -0.03496 
 C                    -3.35944  -1.26384   0.31444 
 C                    -3.85566  -0.01659  -0.42134 
 C                    -3.02438   1.19035   0.04571 
 H                     1.52691   2.31435   0.08667 
 H                    -0.88572   2.87188   0.11245 
 H                     0.50755  -1.86398  -0.05396 
 H                    -3.92469  -2.15668   0.03302 
 H                    -3.43594  -1.1213    1.40444 
 H                    -3.7314   -0.17128  -1.50109 
 H                    -4.92192   0.14042  -0.21885 
 H                    -3.34635   1.48519   1.0567 
 H                    -3.19865   2.05287  -0.6108 
 
                          Input orientation:                          
 ---------------------------------------------------------------------
 Center     Atomic      Atomic             Coordinates (Angstroms)
 Number     Number       Type             X           Y           Z
 ---------------------------------------------------------------------
      1         35           0        3.010998   -0.253824   -0.026206
      2          6           0        1.165755    0.191885    0.010067
      3          6           0        0.780577    1.527393    0.064852
      4          6           0       -0.574558    1.828808    0.083243
      5          6           0       -1.552916    0.838248    0.053370
      6          6           0       -1.137064   -0.498279    0.013384
      7          6           0        0.222598   -0.818601   -0.015674
      8          8           0       -1.995531   -1.567990   -0.034957
      9          6           0       -3.359436   -1.263836    0.314438
     10          6           0       -3.855655   -0.016587   -0.421344
     11          6           0       -3.024383    1.190352    0.045709
     12          1           0        1.526910    2.314348    0.086666
     13          1           0       -0.885724    2.871880    0.112450
     14          1           0        0.507549   -1.863978   -0.053963
     15          1           0       -3.924690   -2.156683    0.033023
     16          1           0       -3.435935   -1.121299    1.404444
     17          1           0       -3.731398   -0.171277   -1.501091
     18          1           0       -4.921919    0.140424   -0.218845
     19          1           0       -3.346346    1.485185    1.056704
     20          1           0       -3.198649    2.052865   -0.610801
 ---------------------------------------------------------------------
                    Distance matrix (angstroms):
                    1          2          3          4          5
     1  Br   0.000000
     2  C    1.898656   0.000000
     3  C    2.855837   1.391023   0.000000
     4  C    4.147957   2.390306   1.388373   0.000000
     5  C    4.693428   2.794787   2.433155   1.392582   0.000000
     6  C    4.155448   2.404020   2.789864   2.395126   1.400299
     7  C    2.845041   1.382494   2.412781   2.766589   2.429478
     8  O    5.176142   3.618414   4.159102   3.683934   2.448202
     9  C    6.458993   4.763310   4.999296   4.168146   2.783959
    10  C    6.882103   5.044218   4.910693   3.798116   2.501740
    11  C    6.206178   4.307605   3.819906   2.531932   1.513027
    12  H    2.968293   2.154333   1.084798   2.156833   3.415451
    13  H    4.997369   3.376599   2.141605   1.088888   2.141097
    14  H    2.976680   2.159608   3.404418   3.850513   3.399862
    15  H    7.192228   5.606151   5.976033   5.206731   3.820384
    16  H    6.660497   4.984405   5.156457   4.316964   3.034961
    17  H    6.902319   5.137859   5.069080   4.059075   2.860293
    18  H    7.945043   6.092194   5.875596   4.673483   3.451267
    19  H    6.679272   4.809067   4.244649   2.957788   2.154437
    20  H    6.649984   4.785054   4.070242   2.723555   2.150548
                    6          7          8          9         10
     6  C    0.000000
     7  C    1.397187   0.000000
     8  O    1.372437   2.341378   0.000000
     9  C    2.369736   3.624662   1.440425   0.000000
    10  C    2.794951   4.176116   2.452796   1.530764   0.000000
    11  C    2.532685   3.818710   2.945080   2.491488   1.538133
    12  H    3.874661   3.395154   5.243561   6.060665   5.887558
    13  H    3.380970   3.855443   4.578848   4.823297   4.177160
    14  H    2.138790   1.084194   2.520591   3.930580   4.752407
    15  H    3.243694   4.358077   2.018127   1.093564   2.188887
    16  H    2.758262   3.936143   2.084747   1.101945   2.174869
    17  H    3.021777   4.273123   2.667131   2.151322   1.097826
    18  H    3.845387   5.237085   3.393559   2.167416   1.096621
    19  H    3.146994   4.381185   3.512592   2.847498   2.167796
    20  H    3.338873   4.506043   3.858715   3.447089   2.179491
                   11         12         13         14         15
    11  C    0.000000
    12  H    4.688210   0.000000
    13  H    2.721370   2.476350   0.000000
    14  H    4.670483   4.303171   4.939358   0.000000
    15  H    3.466029   7.050740   5.876059   4.442745   0.000000
    16  H    2.712797   6.178191   4.911039   4.269612   1.786532
    17  H    2.178645   6.029022   4.467906   4.788328   2.516487
    18  H    2.184715   6.812245   4.884821   5.789986   2.516864
    19  H    1.101225   5.037570   2.978120   5.225225   3.826958
    20  H    1.097863   4.783904   2.558027   5.421036   4.319947
                   16         17         18         19         20
    16  H    0.000000
    17  H    3.071152   0.000000
    18  H    2.536762   1.777260   0.000000
    19  H    2.631104   3.071554   2.432661   0.000000
    20  H    3.767338   2.454230   2.603981   1.767667   0.000000
 Stoichiometry    C9H9BrO
 Framework group  C1[X(C9H9BrO)]
 Deg. of freedom    54
 Full point group                 C1      NOp   1
 Largest Abelian subgroup         C1      NOp   1
 Largest concise Abelian subgroup C1      NOp   1
                         Standard orientation:                         
 ---------------------------------------------------------------------
 Center     Atomic      Atomic             Coordinates (Angstroms)
 Number     Number       Type             X           Y           Z
 ---------------------------------------------------------------------
      1         35           0        3.010998   -0.253824   -0.026206
      2          6           0        1.165755    0.191885    0.010067
      3          6           0        0.780577    1.527393    0.064852
      4          6           0       -0.574558    1.828808    0.083243
      5          6           0       -1.552916    0.838248    0.053370
      6          6           0       -1.137064   -0.498279    0.013384
      7          6           0        0.222598   -0.818601   -0.015674
      8          8           0       -1.995531   -1.567990   -0.034957
      9          6           0       -3.359436   -1.263836    0.314438
     10          6           0       -3.855655   -0.016587   -0.421344
     11          6           0       -3.024383    1.190352    0.045709
     12          1           0        1.526910    2.314348    0.086666
     13          1           0       -0.885724    2.871880    0.112450
     14          1           0        0.507549   -1.863978   -0.053963
     15          1           0       -3.924690   -2.156683    0.033023
     16          1           0       -3.435935   -1.121299    1.404444
     17          1           0       -3.731398   -0.171277   -1.501091
     18          1           0       -4.921919    0.140424   -0.218845
     19          1           0       -3.346346    1.485185    1.056704
     20          1           0       -3.198649    2.052865   -0.610801
 ---------------------------------------------------------------------
 Rotational constants (GHZ):           2.4352924           0.3702970           0.3253210
 Standard basis: MIDIx (5D, 7F)
 There are   143 symmetry adapted cartesian basis functions of A   symmetry.
 There are   140 symmetry adapted basis functions of A   symmetry.
   140 basis functions,   246 primitive gaussians,   143 cartesian basis functions
    53 alpha electrons       53 beta electrons
       nuclear repulsion energy       824.0782022248 Hartrees.
 NAtoms=   20 NActive=   20 NUniq=   20 SFac= 1.00D+00 NAtFMM=   60 NAOKFM=F Big=F
 Integral buffers will be    131072 words long.
 Raffenetti 2 integral format.
 Two-electron integral symmetry is turned on.
 Nuclear repulsion after empirical dispersion term =      824.0659970579 Hartrees.
 One-electron integrals computed using PRISM.
 NBasis=   140 RedAO= T EigKep=  1.09D-03  NBF=   140
 NBsUse=   140 1.00D-06 EigRej= -1.00D+00 NBFU=   140
 ExpMin= 1.47D-01 ExpMax= 6.10D+03 ExpMxC= 6.10D+03 IAcc=3 IRadAn=         5 AccDes= 0.00D+00
 Harris functional with IExCor= 4639 and IRadAn=       5 diagonalized for initial guess.
 HarFok:  IExCor= 4639 AccDes= 0.00D+00 IRadAn=         5 IDoV= 1 UseB2=F ITyADJ=14
 ICtDFT=  3500011 ScaDFX=  1.000000  1.000000  1.000000  1.000000
 FoFCou: FMM=F IPFlag=           0 FMFlag=      100000 FMFlg1=           0
         NFxFlg=           0 DoJE=T BraDBF=F KetDBF=T FulRan=T
         wScrn=  0.000000 ICntrl=       500 IOpCl=  0 I1Cent=   200000004 NGrid=           0
         NMat0=    1 NMatS0=      1 NMatT0=    0 NMatD0=    1 NMtDS0=    0 NMtDT0=    0
 Petite list used in FoFCou.
 Requested convergence on RMS density matrix=1.00D-08 within 128 cycles.
 Requested convergence on MAX density matrix=1.00D-06.
 Requested convergence on             energy=1.00D-06.
 No special actions if energy rises.
 Integral accuracy reduced to 1.0D-05 until final iterations.
 Initial convergence to 1.0D-05 achieved.  Increase integral accuracy.
 SCF Done:  E(RwB97XD) =  -2983.04828243     A.U. after   15 cycles
            NFock= 15  Conv=0.99D-08     -V/T= 2.0022

 **********************************************************************

            Population analysis using the SCF Density.

 **********************************************************************

 Orbital symmetries:
       Occupied  (A) (A) (A) (A) (A) (A) (A) (A) (A) (A) (A) (A)
                 (A) (A) (A) (A) (A) (A) (A) (A) (A) (A) (A) (A)
                 (A) (A) (A) (A) (A) (A) (A) (A) (A) (A) (A) (A)
                 (A) (A) (A) (A) (A) (A) (A) (A) (A) (A) (A) (A)
                 (A) (A) (A) (A) (A)
       Virtual   (A) (A) (A) (A) (A) (A) (A) (A) (A) (A) (A) (A)
                 (A) (A) (A) (A) (A) (A) (A) (A) (A) (A) (A) (A)
                 (A) (A) (A) (A) (A) (A) (A) (A) (A) (A) (A) (A)
                 (A) (A) (A) (A) (A) (A) (A) (A) (A) (A) (A) (A)
                 (A) (A) (A) (A) (A) (A) (A) (A) (A) (A) (A) (A)
                 (A) (A) (A) (A) (A) (A) (A) (A) (A) (A) (A) (A)
                 (A) (A) (A) (A) (A) (A) (A) (A) (A) (A) (A) (A)
                 (A) (A) (A)
 The electronic state is 1-A.
 Alpha  occ. eigenvalues -- -480.14063 -62.57453 -56.16351 -56.15925 -56.15912
 Alpha  occ. eigenvalues --  -19.18344 -10.30304 -10.29319 -10.28953 -10.24886
 Alpha  occ. eigenvalues --  -10.24815 -10.24469 -10.24390 -10.23874 -10.23846
 Alpha  occ. eigenvalues --   -8.88296  -6.66778  -6.65352  -6.65335  -2.77086
 Alpha  occ. eigenvalues --   -2.76588  -2.76573  -2.75397  -2.75392  -1.16837
 Alpha  occ. eigenvalues --   -0.98556  -0.92852  -0.89996  -0.86049  -0.83442
 Alpha  occ. eigenvalues --   -0.77268  -0.73426  -0.71423  -0.65731  -0.60876
 Alpha  occ. eigenvalues --   -0.59515  -0.58705  -0.54050  -0.53157  -0.52805
 Alpha  occ. eigenvalues --   -0.52155  -0.49563  -0.48525  -0.47329  -0.45506
 Alpha  occ. eigenvalues --   -0.44626  -0.42242  -0.41171  -0.39290  -0.37307
 Alpha  occ. eigenvalues --   -0.35677  -0.31379  -0.29212
 Alpha virt. eigenvalues --    0.06261   0.07855   0.09547   0.16684   0.19716
 Alpha virt. eigenvalues --    0.20591   0.21574   0.22173   0.23667   0.24445
 Alpha virt. eigenvalues --    0.25164   0.25466   0.26985   0.28644   0.30988
 Alpha virt. eigenvalues --    0.32329   0.34544   0.37372   0.40393   0.42077
 Alpha virt. eigenvalues --    0.43618   0.46816   0.54714   0.56558   0.58983
 Alpha virt. eigenvalues --    0.60241   0.61642   0.64945   0.65114   0.65730
 Alpha virt. eigenvalues --    0.67514   0.68788   0.68961   0.69386   0.72548
 Alpha virt. eigenvalues --    0.74158   0.75846   0.76847   0.80238   0.82724
 Alpha virt. eigenvalues --    0.85152   0.85608   0.86117   0.88443   0.89577
 Alpha virt. eigenvalues --    0.93469   0.95041   0.95745   0.96886   0.97269
 Alpha virt. eigenvalues --    0.98431   0.99069   0.99994   1.01447   1.02237
 Alpha virt. eigenvalues --    1.03130   1.03807   1.04659   1.05564   1.06717
 Alpha virt. eigenvalues --    1.08193   1.09172   1.10535   1.11084   1.12459
 Alpha virt. eigenvalues --    1.17585   1.21423   1.24985   1.33289   1.34742
 Alpha virt. eigenvalues --    1.41626   1.43361   1.53375   1.56419   1.58813
 Alpha virt. eigenvalues --    1.64284   1.67397   1.71296   1.80167   1.91444
 Alpha virt. eigenvalues --    1.93910   1.97221   1.99558   2.05735   2.24979
 Alpha virt. eigenvalues --    2.48493   2.67432
          Condensed to atoms (all electrons):
               1          2          3          4          5          6
     1  Br  34.934542   0.207745  -0.036328   0.001787   0.000370   0.001652
     2  C    0.207745   5.076794   0.468755  -0.033359  -0.045789  -0.019068
     3  C   -0.036328   0.468755   4.949180   0.511721  -0.035022  -0.022461
     4  C    0.001787  -0.033359   0.511721   4.916030   0.454034  -0.020480
     5  C    0.000370  -0.045789  -0.035022   0.454034   5.235987   0.455538
     6  C    0.001652  -0.019068  -0.022461  -0.020480   0.455538   4.584126
     7  C   -0.036495   0.453024  -0.052998  -0.021044  -0.034486   0.503544
     8  O   -0.000013   0.002895  -0.000002   0.001860  -0.035453   0.256061
     9  C    0.000001  -0.000237   0.000032  -0.000018  -0.003935  -0.047153
    10  C   -0.000000  -0.000032  -0.000022   0.001749  -0.060172  -0.022667
    11  C    0.000001   0.000737   0.000116  -0.019615   0.261794  -0.013851
    12  H    0.000609  -0.021518   0.394783  -0.017224   0.002756   0.000016
    13  H   -0.000063   0.003028  -0.019732   0.395435  -0.023595   0.002028
    14  H   -0.000404  -0.017478   0.002585  -0.000384   0.004366  -0.018596
    15  H   -0.000000   0.000001   0.000000   0.000011  -0.000444   0.004296
    16  H   -0.000000   0.000006  -0.000009  -0.000174   0.003375  -0.002541
    17  H    0.000000  -0.000003   0.000007  -0.000229  -0.001493   0.001692
    18  H    0.000000   0.000000  -0.000000   0.000029   0.005294   0.000374
    19  H   -0.000000  -0.000001   0.000042  -0.004708  -0.030213  -0.001389
    20  H   -0.000000   0.000008   0.000188  -0.004924  -0.030312   0.001809
               7          8          9         10         11         12
     1  Br  -0.036495  -0.000013   0.000001  -0.000000   0.000001   0.000609
     2  C    0.453024   0.002895  -0.000237  -0.000032   0.000737  -0.021518
     3  C   -0.052998  -0.000002   0.000032  -0.000022   0.000116   0.394783
     4  C   -0.021044   0.001860  -0.000018   0.001749  -0.019615  -0.017224
     5  C   -0.034486  -0.035453  -0.003935  -0.060172   0.261794   0.002756
     6  C    0.503544   0.256061  -0.047153  -0.022667  -0.013851   0.000016
     7  C    5.003384  -0.051663   0.003642   0.000209  -0.000848   0.002591
     8  O   -0.051663   8.393084   0.180255  -0.030707  -0.011946   0.000001
     9  C    0.003642   0.180255   4.951874   0.293014  -0.087580  -0.000000
    10  C    0.000209  -0.030707   0.293014   5.316431   0.312684   0.000001
    11  C   -0.000848  -0.011946  -0.087580   0.312684   5.197859  -0.000027
    12  H    0.002591   0.000001  -0.000000   0.000001  -0.000027   0.436488
    13  H    0.000070  -0.000018   0.000001   0.000091  -0.004186  -0.004178
    14  H    0.383902   0.001723  -0.000034   0.000025  -0.000007  -0.000055
    15  H    0.000079  -0.022841   0.390588  -0.032254   0.005691   0.000000
    16  H    0.000052  -0.023917   0.386001  -0.050731  -0.007996  -0.000000
    17  H   -0.000220   0.000900  -0.032725   0.382279  -0.034238   0.000000
    18  H    0.000010   0.002127  -0.028188   0.384800  -0.038267  -0.000000
    19  H   -0.000034   0.000031  -0.003096  -0.032512   0.390411   0.000001
    20  H   -0.000067   0.000082   0.005726  -0.032305   0.392485  -0.000005
              13         14         15         16         17         18
     1  Br  -0.000063  -0.000404  -0.000000  -0.000000   0.000000   0.000000
     2  C    0.003028  -0.017478   0.000001   0.000006  -0.000003   0.000000
     3  C   -0.019732   0.002585   0.000000  -0.000009   0.000007  -0.000000
     4  C    0.395435  -0.000384   0.000011  -0.000174  -0.000229   0.000029
     5  C   -0.023595   0.004366  -0.000444   0.003375  -0.001493   0.005294
     6  C    0.002028  -0.018596   0.004296  -0.002541   0.001692   0.000374
     7  C    0.000070   0.383902   0.000079   0.000052  -0.000220   0.000010
     8  O   -0.000018   0.001723  -0.022841  -0.023917   0.000900   0.002127
     9  C    0.000001  -0.000034   0.390588   0.386001  -0.032725  -0.028188
    10  C    0.000091   0.000025  -0.032254  -0.050731   0.382279   0.384800
    11  C   -0.004186  -0.000007   0.005691  -0.007996  -0.034238  -0.038267
    12  H   -0.004178  -0.000055   0.000000  -0.000000   0.000000  -0.000000
    13  H    0.455571   0.000007  -0.000000   0.000001   0.000002  -0.000006
    14  H    0.000007   0.429489  -0.000032   0.000014   0.000005  -0.000001
    15  H   -0.000000  -0.000032   0.488308  -0.031038  -0.003976  -0.000708
    16  H    0.000001   0.000014  -0.031038   0.530517   0.004809  -0.000069
    17  H    0.000002   0.000005  -0.003976   0.004809   0.492859  -0.022692
    18  H   -0.000006  -0.000001  -0.000708  -0.000069  -0.022692   0.500663
    19  H    0.000671   0.000002  -0.000139   0.003354   0.003817  -0.003986
    20  H    0.002679   0.000002  -0.000135   0.000057  -0.003664  -0.000219
              19         20
     1  Br  -0.000000  -0.000000
     2  C   -0.000001   0.000008
     3  C    0.000042   0.000188
     4  C   -0.004708  -0.004924
     5  C   -0.030213  -0.030312
     6  C   -0.001389   0.001809
     7  C   -0.000034  -0.000067
     8  O    0.000031   0.000082
     9  C   -0.003096   0.005726
    10  C   -0.032512  -0.032305
    11  C    0.390411   0.392485
    12  H    0.000001  -0.000005
    13  H    0.000671   0.002679
    14  H    0.000002   0.000002
    15  H   -0.000139  -0.000135
    16  H    0.003354   0.000057
    17  H    0.003817  -0.003664
    18  H   -0.003986  -0.000219
    19  H    0.495410  -0.025967
    20  H   -0.025967   0.488134
 Mulliken charges:
               1
     1  Br  -0.073405
     2  C   -0.075508
     3  C   -0.160835
     4  C   -0.160497
     5  C   -0.122601
     6  C    0.357068
     7  C   -0.152650
     8  O   -0.662459
     9  C   -0.008169
    10  C   -0.429882
    11  C   -0.343218
    12  H    0.205761
    13  H    0.192192
    14  H    0.214873
    15  H    0.202594
    16  H    0.188290
    17  H    0.212872
    18  H    0.200841
    19  H    0.208307
    20  H    0.206427
 Sum of Mulliken charges =  -0.00000
 Mulliken charges with hydrogens summed into heavy atoms:
               1
     1  Br  -0.073405
     2  C   -0.075508
     3  C    0.044926
     4  C    0.031696
     5  C   -0.122601
     6  C    0.357068
     7  C    0.062222
     8  O   -0.662459
     9  C    0.382715
    10  C   -0.016170
    11  C    0.071516
 Electronic spatial extent (au):  <R**2>=           3049.4893
 Charge=             -0.0000 electrons
 Dipole moment (field-independent basis, Debye):
    X=             -3.3308    Y=              0.9809    Z=              0.3121  Tot=              3.4862
 Quadrupole moment (field-independent basis, Debye-Ang):
   XX=            -66.2190   YY=            -73.1258   ZZ=            -78.9488
   XY=             -0.1117   XZ=             -1.1447   YZ=             -0.2296
 Traceless Quadrupole moment (field-independent basis, Debye-Ang):
   XX=              6.5455   YY=             -0.3613   ZZ=             -6.1843
   XY=             -0.1117   XZ=             -1.1447   YZ=             -0.2296
 Octapole moment (field-independent basis, Debye-Ang**2):
  XXX=             44.0471  YYY=             -5.4525  ZZZ=             -1.0201  XYY=             28.0865
  XXY=            -11.4047  XXZ=              3.6940  XZZ=             25.4353  YZZ=             -7.3820
  YYZ=             -0.1432  XYZ=              1.3334
 Hexadecapole moment (field-independent basis, Debye-Ang**3):
 XXXX=          -2585.2094 YYYY=           -560.1615 ZZZZ=           -110.5869 XXXY=             14.5727
 XXXZ=            -20.2714 YYYX=            -11.2802 YYYZ=              0.6248 ZZZX=             -4.0330
 ZZZY=             -0.0819 XXYY=           -544.6051 XXZZ=           -489.3245 YYZZ=           -124.2367
 XXYZ=             -2.0920 YYXZ=             -0.1484 ZZXY=             -3.5805
 N-N= 8.240659970579D+02 E-N=-8.750151089251D+03  KE= 2.976568289216D+03
 There are a total of      455774 grid points.
 ElSum from          density=      106.0000090356
 ElSum from atomic densities=      106.0000961304
 Hirshfeld populations at iteration   1 (CA, CB, DipXYZ):
               1          2          3          4          5
     1  Br  17.525866  17.525866   0.024121  -0.007574  -0.000853
     2  C    2.996455   2.996455   0.055218  -0.011413  -0.001072
     3  C    3.030683   3.030683   0.011915   0.035278   0.000999
     4  C    3.020372   3.020372  -0.010960   0.046503   0.001575
     5  C    3.013121   3.013121  -0.052292   0.003564  -0.000518
     6  C    2.962619   2.962619  -0.058465  -0.070556  -0.002537
     7  C    3.031598   3.031598  -0.020253  -0.030094  -0.004816
     8  O    4.075327   4.075327  -0.045029   0.101492   0.031518
     9  C    2.978514   2.978514   0.023788  -0.007470  -0.021592
    10  C    3.021572   3.021572   0.007753  -0.002180   0.027809
    11  C    3.020254   3.020254  -0.001623  -0.017157  -0.011644
    12  H    0.477813   0.477813   0.099442   0.130953   0.003716
    13  H    0.477748   0.477748  -0.039557   0.153946   0.004247
    14  H    0.474917   0.474917   0.031341  -0.164370  -0.005989
    15  H    0.477395   0.477395  -0.082959  -0.121417  -0.036263
    16  H    0.482958   0.482958  -0.023970   0.010670   0.137645
    17  H    0.483727   0.483727   0.011544  -0.021505  -0.146378
    18  H    0.482399   0.482399  -0.143448   0.020171   0.028013
    19  H    0.484454   0.484454  -0.049857   0.044260   0.130781
    20  H    0.482214   0.482214  -0.029583   0.117084  -0.087124
       Tot  53.000005  53.000005  -0.292873   0.210186   0.047516

 Dip from Atomic Chgs             -1.017559   0.175724   0.075258
         Total Dipole             -1.310431   0.385910   0.122774

 Hirshfeld charges, spin densities, dipoles, and CM5 charges using IRadAn=      5:
              Q-H        S-H        Dx         Dy         Dz        Q-CM5   
     1  Br  -0.051733   0.000000   0.024121  -0.007574  -0.000853  -0.036808
     2  C    0.007089   0.000000   0.055218  -0.011413  -0.001072  -0.013842
     3  C   -0.061366   0.000000   0.011915   0.035278   0.000999  -0.114803
     4  C   -0.040745   0.000000  -0.010960   0.046503   0.001575  -0.093455
     5  C   -0.026242   0.000000  -0.052292   0.003564  -0.000518  -0.036484
     6  C    0.074762   0.000000  -0.058465  -0.070556  -0.002537   0.093433
     7  C   -0.063195   0.000000  -0.020253  -0.030094  -0.004816  -0.111099
     8  O   -0.150654   0.000000  -0.045029   0.101492   0.031518  -0.231436
     9  C    0.042973   0.000000   0.023788  -0.007470  -0.021592  -0.037701
    10  C   -0.043144   0.000000   0.007753  -0.002180   0.027809  -0.148306
    11  C   -0.040507   0.000000  -0.001623  -0.017157  -0.011644  -0.141602
    12  H    0.044375   0.000000   0.099442   0.130953   0.003716   0.100937
    13  H    0.044505   0.000000  -0.039557   0.153946   0.004247   0.100785
    14  H    0.050167   0.000000   0.031341  -0.164370  -0.005989   0.110460
    15  H    0.045211   0.000000  -0.082959  -0.121417  -0.036263   0.108350
    16  H    0.034084   0.000000  -0.023970   0.010670   0.137645   0.096156
    17  H    0.032546   0.000000   0.011544  -0.021505  -0.146378   0.089599
    18  H    0.035201   0.000000  -0.143448   0.020171   0.028013   0.089315
    19  H    0.031092   0.000000  -0.049857   0.044260   0.130781   0.086035
    20  H    0.035573   0.000000  -0.029583   0.117084  -0.087124   0.090456
       Tot  -0.000009   0.000000  -0.292873   0.210186   0.047516  -0.000009
 Hirshfeld charges with hydrogens summed into heavy atoms:
              Q-H       Q-CM5   
     1  Br  -0.051733  -0.036808
     2  C    0.007089  -0.013842
     3  C   -0.016991  -0.013865
     4  C    0.003760   0.007330
     5  C   -0.026242  -0.036484
     6  C    0.074762   0.093433
     7  C   -0.013028  -0.000639
     8  O   -0.150654  -0.231436
     9  C    0.122267   0.166804
    10  C    0.024604   0.030608
    11  C    0.026158   0.034889
 
 EQQ= 0.000000000000E+00 EQD= 0.000000000000E+00 EDD= 0.127661517429E-02
 EQQ+QD+DD= 0.127661517429E-02
 
 Running external command "gaunbo6 R"
         input file       "/home/rpaton/opt/midi/Gau-803299.EIn"
         output file      "/home/rpaton/opt/midi/Gau-803299.EOu"
         message file     "/home/rpaton/opt/midi/Gau-803299.EMs"
         fchk file        "/home/rpaton/opt/midi/Gau-803299.EFC"
         mat. el file     "/home/rpaton/opt/midi/Gau-803299.EUF"

 Writing WrtUnf unformatted file "/home/rpaton/opt/midi/Gau-803299.EUF"
 Gaussian matrix elements                                         Version   2 NLab=11 Len12L=8 Len4L=8
 Write SHELL TO ATOM MAP                   from file      0 offset           0 length                  80 to matrix element file.
 Write SHELL TYPES                         from file      0 offset           0 length                  80 to matrix element file.
 Write NUMBER OF PRIMITIVES PER SHELL      from file      0 offset           0 length                  80 to matrix element file.
 Write PRIMITIVE EXPONENTS                 from file      0 offset           0 length                 143 to matrix element file.
 Write CONTRACTION COEFFICIENTS            from file      0 offset           0 length                 143 to matrix element file.
 Write P(S=P) CONTRACTION COEFFICIENTS     from file      0 offset           0 length                 143 to matrix element file.
 Write COORDINATES OF EACH SHELL           from file      0 offset           0 length                 240 to matrix element file.
 Write BONDS PER ATOM                      from file      0 offset           0 length                  20 to matrix element file.
 Write BONDED ATOMS                        from file      0 offset           0 length                  42 to matrix element file.
 Write BOND TYPES                          from file      0 offset           0 length                  42 to matrix element file.
 Write ONIOM CHARGE/MULT                   from file      0 offset           0 length                  32 to matrix element file.
 Write ONIOM ATOM LAYERS                   from file      0 offset           0 length                  20 to matrix element file.
 Write ONIOM ATOM MODIFIERS                from file      0 offset           0 length                  20 to matrix element file.
 Write ONIOM ATOM TYPES                    from file      0 offset           0 length                  20 to matrix element file.
 Write ONIOM LINK ATOMS                    from file      0 offset           0 length                  20 to matrix element file.
 Write ONIOM LINK CHARGES                  from file      0 offset           0 length                  20 to matrix element file.
 Write ONIOM LINK DISTANCES                from file      0 offset           0 length                  80 to matrix element file.
 Write SYMINF INTS                         from file      0 offset           0 length                  26 to matrix element file.
 Write ROTTR TO SO                         from file      0 offset           0 length                  12 to matrix element file.
 Write GAUSSIAN SCALARS                    from file    501 offset           0 to matrix element file.
 Write OPTIMIZATION FLAGS                  from file      0 offset           0 length                  20 to matrix element file.
 Write INTEGER ISO                         from file      0 offset           0 length                  20 to matrix element file.
 Write INTEGER SPIN                        from file      0 offset           0 length                  20 to matrix element file.
 Write REAL ZEFFECTIVE                     from file      0 offset           0 length                  20 to matrix element file.
 Write REAL QUADRUPOLEMOMENT               from file      0 offset           0 length                  20 to matrix element file.
 Write REAL GFACTOR                        from file      0 offset           0 length                  20 to matrix element file.
 Write REAL ZNUCLEAR                       from file      0 offset           0 length                  20 to matrix element file.
 Write MULLIKEN CHARGES                    from file      0 offset           0 length                  20 to matrix element file.
 Write TYPE 6 CHARGES                      from file      0 offset           0 length                  20 to matrix element file.
 Write TYPE 7 CHARGES                      from file      0 offset           0 length                  20 to matrix element file.
 Write NUCLEAR GRADIENT                    from file  10584 offset           0 length                  60 to matrix element file.
 Array NUCLEAR FORCE CONSTANTS              on  file  10585 does not exist.
 Write ELECTRIC DIPOLE MOMENT              from file      0 offset           0 length                   3 to matrix element file.
 Write NON-ADIABATIC COUPLING              from file  10810 offset           0 length                  60 to matrix element file.
 Write FINITE EM FIELD                     from file  10521 offset           0 length                  35 to matrix element file.
 Write OVERLAP                             from file  10514 offset           0 length                9870 to matrix element file.
 Write CORE HAMILTONIAN ALPHA              from file  10515 offset           0 length                9870 to matrix element file.
 Write CORE HAMILTONIAN BETA               from file  10515 offset        9870 length                9870 to matrix element file.
 Write KINETIC ENERGY                      from file  10516 offset           0 length                9870 to matrix element file.
 Write ORTHOGONAL BASIS                    from file  10685 offset           0 length               19600 to matrix element file.
 Write DIPOLE INTEGRALS                    from file  10518 offset           0 length               29610 to matrix element file.
 Array DIP VEL INTEGRALS                    on  file  10572 does not exist.
 Array R X DEL INTEGRALS                    on  file  10572 does not exist.
 Write ALPHA ORBITAL ENERGIES              from file      0 offset           0 length                 140 to matrix element file.
 Write ALPHA MO COEFFICIENTS               from file  10524 offset           0 length               19600 to matrix element file.
 Write ALPHA DENSITY MATRIX                from file      0 offset           0 length                9870 to matrix element file.
 Write ALPHA FOCK MATRIX                   from file  10536 offset           0 length                9870 to matrix element file.
 Write ENERGY-WEIGHTED DENSITY             from file  10571 offset           0 length                9870 to matrix element file.
 Write ALPHA SCF DENSITY MATRIX            from file      0 offset           0 length                9870 to matrix element file.
 Write INTEGER PARAMETERS                  from file      0 offset           0 length                   2 to matrix element file.
 No 2e integrals to process.
 Perform NBO analysis...

 *********************************** NBO 7.0 ***********************************
             N A T U R A L   A T O M I C   O R B I T A L   A N D
          N A T U R A L   B O N D   O R B I T A L   A N A L Y S I S
 **************************** Robert Paton (I101709) ***************************
  (c) Copyright 1996-2019 Board of Regents of the University of Wisconsin System
      on behalf of the Theoretical Chemistry Institute.  All rights reserved.

          Cite this program [NBO 7.0.5 (4-Jun-2019)] as:

          NBO 7.0.  E. D. Glendening, J. K. Badenhoop, A. E. Reed,
          J. E. Carpenter, J. A. Bohmann, C. M. Morales, P. Karafiloglou,
          C. R. Landis, and F. Weinhold, Theoretical Chemistry Institute,
          University of Wisconsin, Madison, WI (2018)

       /AONBO  / : Checkpoint the AO to NBO transformation
                   NBOs sorted by occupancy
       /BNDIDX / : Print bond indices based on the NAO density matrix

 Filename set to /home/rpaton/opt/midi/Gau-803299

 Job title:  arbr43_wb97xd_popncreated by GaussianPrep


 NATURAL POPULATIONS:  Natural atomic orbital occupancies

  NAO Atom No lang   Type(AO)    Occupancy      Energy
 -------------------------------------------------------
   1   Br  1  s      Cor( 3s)     2.00000     -20.24870
   2   Br  1  s      Cor( 1s)     2.00000    -451.44014
   3   Br  1  s      Cor( 2s)     1.99999     -79.90854
   4   Br  1  s      Val( 4s)     1.86984      -0.76190
   5   Br  1  s      Ryd( 5s)     0.00292       0.85435
   6   Br  1  px     Cor( 3p)     2.00000      -7.16348
   7   Br  1  px     Cor( 2p)     1.99999     -55.66626
   8   Br  1  px     Val( 4p)     1.16498      -0.23195
   9   Br  1  px     Ryd( 5p)     0.00343       0.74257
  10   Br  1  py     Cor( 3p)     2.00000      -7.15035
  11   Br  1  py     Cor( 2p)     1.99999     -55.66301
  12   Br  1  py     Val( 4p)     1.93409      -0.34773
  13   Br  1  py     Ryd( 5p)     0.00144       0.77045
  14   Br  1  pz     Cor( 3p)     2.00000      -7.14971
  15   Br  1  pz     Cor( 2p)     2.00000     -55.66280
  16   Br  1  pz     Val( 4p)     1.94501      -0.35006
  17   Br  1  pz     Ryd( 5p)     0.00076       0.73668
  18   Br  1  dxy    Cor( 3d)     1.99964      -2.76531
  19   Br  1  dxy    Ryd( 4d)     0.00156       0.94187
  20   Br  1  dxz    Cor( 3d)     1.99988      -2.76484
  21   Br  1  dxz    Ryd( 4d)     0.00206       0.72463
  22   Br  1  dyz    Cor( 3d)     1.99999      -2.75455
  23   Br  1  dyz    Ryd( 4d)     0.00017       0.65882
  24   Br  1  dx2y2  Cor( 3d)     1.99947      -2.76546
  25   Br  1  dx2y2  Ryd( 4d)     0.00408       0.98979
  26   Br  1  dz2    Cor( 3d)     1.99980      -2.75789
  27   Br  1  dz2    Ryd( 4d)     0.00158       0.77030

  28    C  2  s      Cor( 1s)     1.99988     -10.28770
  29    C  2  s      Val( 2s)     0.93212      -0.12939
  30    C  2  s      Ryd( 3s)     0.00048       0.72064
  31    C  2  px     Val( 2p)     1.00286      -0.11410
  32    C  2  px     Ryd( 3p)     0.00670       1.35011
  33    C  2  py     Val( 2p)     1.10913      -0.05650
  34    C  2  py     Ryd( 3p)     0.00757       1.12052
  35    C  2  pz     Val( 2p)     1.06321      -0.14837
  36    C  2  pz     Ryd( 3p)     0.00075       0.95527

  37    C  3  s      Cor( 1s)     1.99986     -10.23537
  38    C  3  s      Val( 2s)     0.94198      -0.06975
  39    C  3  s      Ryd( 3s)     0.00088       0.73976
  40    C  3  px     Val( 2p)     1.14364      -0.04014
  41    C  3  px     Ryd( 3p)     0.00644       1.18115
  42    C  3  py     Val( 2p)     1.14363      -0.05009
  43    C  3  py     Ryd( 3p)     0.00523       1.20724
  44    C  3  pz     Val( 2p)     1.03923      -0.11833
  45    C  3  pz     Ryd( 3p)     0.00060       0.94078

  46    C  4  s      Cor( 1s)     1.99985     -10.24070
  47    C  4  s      Val( 2s)     0.93567      -0.06448
  48    C  4  s      Ryd( 3s)     0.00077       0.74750
  49    C  4  px     Val( 2p)     1.08075      -0.01409
  50    C  4  px     Ryd( 3p)     0.00494       1.08147
  51    C  4  py     Val( 2p)     1.19573      -0.06514
  52    C  4  py     Ryd( 3p)     0.00542       1.35918
  53    C  4  pz     Val( 2p)     0.99455      -0.11460
  54    C  4  pz     Ryd( 3p)     0.00024       0.94457

  55    C  5  s      Cor( 1s)     1.99990     -10.24597
  56    C  5  s      Val( 2s)     0.85513      -0.03913
  57    C  5  s      Ryd( 3s)     0.00099       0.73200
  58    C  5  px     Val( 2p)     1.08793      -0.03942
  59    C  5  px     Ryd( 3p)     0.00388       1.54467
  60    C  5  py     Val( 2p)     1.10173      -0.03504
  61    C  5  py     Ryd( 3p)     0.00433       1.30913
  62    C  5  pz     Val( 2p)     1.05870      -0.12011
  63    C  5  pz     Ryd( 3p)     0.00136       1.02302

  64    C  6  s      Cor( 1s)     1.99986     -10.29961
  65    C  6  s      Val( 2s)     0.81639      -0.04549
  66    C  6  s      Ryd( 3s)     0.00107       0.78463
  67    C  6  px     Val( 2p)     0.95995      -0.01721
  68    C  6  px     Ryd( 3p)     0.00450       1.35189
  69    C  6  py     Val( 2p)     0.90494       0.01490
  70    C  6  py     Ryd( 3p)     0.00950       1.29362
  71    C  6  pz     Val( 2p)     0.98849      -0.12566
  72    C  6  pz     Ryd( 3p)     0.00094       0.97490

  73    C  7  s      Cor( 1s)     1.99985     -10.23546
  74    C  7  s      Val( 2s)     0.94389      -0.07113
  75    C  7  s      Ryd( 3s)     0.00120       0.72027
  76    C  7  px     Val( 2p)     1.07366      -0.02729
  77    C  7  px     Ryd( 3p)     0.00619       1.02887
  78    C  7  py     Val( 2p)     1.21902      -0.07524
  79    C  7  py     Ryd( 3p)     0.00521       1.37602
  80    C  7  pz     Val( 2p)     1.04768      -0.12182
  81    C  7  pz     Ryd( 3p)     0.00065       0.94453

  82    O  8  s      Cor( 1s)     1.99985     -19.18066
  83    O  8  s      Val( 2s)     1.59935      -0.75946
  84    O  8  s      Ryd( 3s)     0.00079       1.87306
  85    O  8  px     Val( 2p)     1.39442      -0.30376
  86    O  8  px     Ryd( 3p)     0.00061       2.14406
  87    O  8  py     Val( 2p)     1.66043      -0.35751
  88    O  8  py     Ryd( 3p)     0.00143       1.87751
  89    O  8  pz     Val( 2p)     1.81345      -0.36122
  90    O  8  pz     Ryd( 3p)     0.00093       1.72824
  91    O  8  dxy    Ryd( 3d)     0.00390       2.23932
  92    O  8  dxz    Ryd( 3d)     0.00083       1.98978
  93    O  8  dyz    Ryd( 3d)     0.00216       1.90656
  94    O  8  dx2y2  Ryd( 3d)     0.00228       2.21040
  95    O  8  dz2    Ryd( 3d)     0.00231       2.07120

  96    C  9  s      Cor( 1s)     1.99977     -10.28998
  97    C  9  s      Val( 2s)     1.04069      -0.20648
  98    C  9  s      Ryd( 3s)     0.00155       1.10129
  99    C  9  px     Val( 2p)     0.77895      -0.04806
 100    C  9  px     Ryd( 3p)     0.00314       0.98060
 101    C  9  py     Val( 2p)     1.14352      -0.10427
 102    C  9  py     Ryd( 3p)     0.00366       1.04667
 103    C  9  pz     Val( 2p)     1.17956      -0.11476
 104    C  9  pz     Ryd( 3p)     0.00139       1.01252

 105    C 10  s      Cor( 1s)     1.99977     -10.24154
 106    C 10  s      Val( 2s)     1.04376      -0.18731
 107    C 10  s      Ryd( 3s)     0.00071       1.19592
 108    C 10  px     Val( 2p)     1.20901      -0.11673
 109    C 10  px     Ryd( 3p)     0.00201       1.08450
 110    C 10  py     Val( 2p)     1.05500      -0.08464
 111    C 10  py     Ryd( 3p)     0.00140       0.96058
 112    C 10  pz     Val( 2p)     1.22213      -0.11836
 113    C 10  pz     Ryd( 3p)     0.00118       1.03915

 114    C 11  s      Cor( 1s)     1.99975     -10.24477
 115    C 11  s      Val( 2s)     1.02571      -0.16409
 116    C 11  s      Ryd( 3s)     0.00092       1.22829
 117    C 11  px     Val( 2p)     1.05254      -0.07174
 118    C 11  px     Ryd( 3p)     0.00202       0.95842
 119    C 11  py     Val( 2p)     1.16655      -0.10413
 120    C 11  py     Ryd( 3p)     0.00287       1.04972
 121    C 11  pz     Val( 2p)     1.25294      -0.12167
 122    C 11  pz     Ryd( 3p)     0.00150       1.10537

 123    H 12  s      Val( 1s)     0.73474       0.15099
 124    H 12  s      Ryd( 2s)     0.00115       0.62242

 125    H 13  s      Val( 1s)     0.74723       0.13502
 126    H 13  s      Ryd( 2s)     0.00083       0.63174

 127    H 14  s      Val( 1s)     0.72417       0.15424
 128    H 14  s      Ryd( 2s)     0.00189       0.63455

 129    H 15  s      Val( 1s)     0.75067       0.11932
 130    H 15  s      Ryd( 2s)     0.00099       0.59101

 131    H 16  s      Val( 1s)     0.77125       0.09672
 132    H 16  s      Ryd( 2s)     0.00201       0.62196

 133    H 17  s      Val( 1s)     0.73379       0.12443
 134    H 17  s      Ryd( 2s)     0.00234       0.63243

 135    H 18  s      Val( 1s)     0.73592       0.11822
 136    H 18  s      Ryd( 2s)     0.00129       0.61576

 137    H 19  s      Val( 1s)     0.73474       0.11737
 138    H 19  s      Ryd( 2s)     0.00143       0.63052

 139    H 20  s      Val( 1s)     0.72986       0.12427
 140    H 20  s      Ryd( 2s)     0.00125       0.62908


 Summary of Natural Population Analysis:

                                     Natural Population
             Natural    ---------------------------------------------
  Atom No    Charge        Core      Valence    Rydberg      Total
 --------------------------------------------------------------------
   Br  1    0.06934     27.99875     6.91391    0.01799    34.93066
    C  2   -0.12272      1.99988     4.10732    0.01551     6.12272
    C  3   -0.28149      1.99986     4.26847    0.01315     6.28149
    C  4   -0.21792      1.99985     4.20670    0.01137     6.21792
    C  5   -0.11395      1.99990     4.10349    0.01056     6.11395
    C  6    0.31436      1.99986     3.66977    0.01601     5.68564
    C  7   -0.29735      1.99985     4.28425    0.01324     6.29735
    O  8   -0.48274      1.99985     6.46765    0.01523     8.48274
    C  9   -0.15224      1.99977     4.14272    0.00975     6.15224
    C 10   -0.53497      1.99977     4.52990    0.00529     6.53497
    C 11   -0.50480      1.99975     4.49774    0.00731     6.50480
    H 12    0.26411      0.00000     0.73474    0.00115     0.73589
    H 13    0.25194      0.00000     0.74723    0.00083     0.74806
    H 14    0.27395      0.00000     0.72417    0.00189     0.72605
    H 15    0.24834      0.00000     0.75067    0.00099     0.75166
    H 16    0.22674      0.00000     0.77125    0.00201     0.77326
    H 17    0.26387      0.00000     0.73379    0.00234     0.73613
    H 18    0.26278      0.00000     0.73592    0.00129     0.73722
    H 19    0.26383      0.00000     0.73474    0.00143     0.73617
    H 20    0.26889      0.00000     0.72986    0.00125     0.73111
 ====================================================================
 * Total *  0.00000     47.99710    57.85430    0.14860   106.00000

                                 Natural Population
 ---------------------------------------------------------
   Core                      47.99710 ( 99.9940% of   48)
   Valence                   57.85430 ( 99.7488% of   58)
   Natural Minimal Basis    105.85140 ( 99.8598% of  106)
   Natural Rydberg Basis      0.14860 (  0.1402% of  106)
 ---------------------------------------------------------

    Atom No         Natural Electron Configuration
 ----------------------------------------------------------------------------
     Br  1      [core]4s( 1.87)4p( 5.04)4d( 0.01)5p( 0.01)
      C  2      [core]2s( 0.93)2p( 3.18)3p( 0.02)
      C  3      [core]2s( 0.94)2p( 3.33)3p( 0.01)
      C  4      [core]2s( 0.94)2p( 3.27)3p( 0.01)
      C  5      [core]2s( 0.86)2p( 3.25)3p( 0.01)
      C  6      [core]2s( 0.82)2p( 2.85)3p( 0.01)
      C  7      [core]2s( 0.94)2p( 3.34)3p( 0.01)
      O  8      [core]2s( 1.60)2p( 4.87)3d( 0.01)
      C  9      [core]2s( 1.04)2p( 3.10)3p( 0.01)
      C 10      [core]2s( 1.04)2p( 3.49)
      C 11      [core]2s( 1.03)2p( 3.47)3p( 0.01)
      H 12            1s( 0.73)
      H 13            1s( 0.75)
      H 14            1s( 0.72)
      H 15            1s( 0.75)
      H 16            1s( 0.77)
      H 17            1s( 0.73)
      H 18            1s( 0.74)
      H 19            1s( 0.73)
      H 20            1s( 0.73)


 Wiberg bond index matrix in the NAO basis:

     Atom    1       2       3       4       5       6       7       8       9
     ---- ------  ------  ------  ------  ------  ------  ------  ------  ------
   1. Br  0.0000  1.0322  0.0340  0.0120  0.0115  0.0115  0.0376  0.0013  0.0006
   2.  C  1.0322  0.0000  1.3831  0.0143  0.0956  0.0145  1.4304  0.0068  0.0007
   3.  C  0.0340  1.3831  0.0000  1.4382  0.0139  0.0922  0.0181  0.0241  0.0003
   4.  C  0.0120  0.0143  1.4382  0.0000  1.3958  0.0163  0.1054  0.0083  0.0002
   5.  C  0.0115  0.0956  0.0139  1.3958  0.0000  1.3454  0.0162  0.0589  0.0032
   6.  C  0.0115  0.0145  0.0922  0.0163  1.3454  0.0000  1.3505  1.0258  0.0058
   7.  C  0.0376  1.4304  0.0181  0.1054  0.0162  1.3505  0.0000  0.0473  0.0070
   8.  O  0.0013  0.0068  0.0241  0.0083  0.0589  1.0258  0.0473  0.0000  0.8988
   9.  C  0.0006  0.0007  0.0003  0.0002  0.0032  0.0058  0.0070  0.8988  0.0000
  10.  C  0.0001  0.0003  0.0009  0.0048  0.0067  0.0036  0.0011  0.0191  1.0063
  11.  C  0.0004  0.0009  0.0059  0.0129  1.0003  0.0097  0.0055  0.0063  0.0067
  12.  H  0.0047  0.0043  0.9029  0.0050  0.0058  0.0002  0.0057  0.0002  0.0000
  13.  H  0.0012  0.0060  0.0045  0.9086  0.0042  0.0063  0.0001  0.0012  0.0000
  14.  H  0.0052  0.0056  0.0059  0.0003  0.0058  0.0043  0.8944  0.0048  0.0002
  15.  H  0.0001  0.0002  0.0000  0.0002  0.0001  0.0049  0.0001  0.0064  0.9162
  16.  H  0.0000  0.0001  0.0011  0.0001  0.0021  0.0012  0.0014  0.0176  0.9144
  17.  H  0.0000  0.0001  0.0001  0.0001  0.0004  0.0006  0.0002  0.0029  0.0029
  18.  H  0.0000  0.0001  0.0002  0.0002  0.0061  0.0004  0.0004  0.0106  0.0035
  19.  H  0.0005  0.0035  0.0001  0.0068  0.0019  0.0078  0.0001  0.0010  0.0007
  20.  H  0.0002  0.0016  0.0001  0.0032  0.0022  0.0071  0.0001  0.0005  0.0070

     Atom   10      11      12      13      14      15      16      17      18
     ---- ------  ------  ------  ------  ------  ------  ------  ------  ------
   1. Br  0.0001  0.0004  0.0047  0.0012  0.0052  0.0001  0.0000  0.0000  0.0000
   2.  C  0.0003  0.0009  0.0043  0.0060  0.0056  0.0002  0.0001  0.0001  0.0001
   3.  C  0.0009  0.0059  0.9029  0.0045  0.0059  0.0000  0.0011  0.0001  0.0002
   4.  C  0.0048  0.0129  0.0050  0.9086  0.0003  0.0002  0.0001  0.0001  0.0002
   5.  C  0.0067  1.0003  0.0058  0.0042  0.0058  0.0001  0.0021  0.0004  0.0061
   6.  C  0.0036  0.0097  0.0002  0.0063  0.0043  0.0049  0.0012  0.0006  0.0004
   7.  C  0.0011  0.0055  0.0057  0.0001  0.8944  0.0001  0.0014  0.0002  0.0004
   8.  O  0.0191  0.0063  0.0002  0.0012  0.0048  0.0064  0.0176  0.0029  0.0106
   9.  C  1.0063  0.0067  0.0000  0.0000  0.0002  0.9162  0.9144  0.0029  0.0035
  10.  C  0.0000  1.0024  0.0001  0.0001  0.0001  0.0019  0.0022  0.9044  0.9054
  11.  C  1.0024  0.0000  0.0002  0.0026  0.0004  0.0070  0.0015  0.0027  0.0022
  12.  H  0.0001  0.0002  0.0000  0.0023  0.0003  0.0000  0.0000  0.0000  0.0000
  13.  H  0.0001  0.0026  0.0023  0.0000  0.0002  0.0000  0.0000  0.0000  0.0001
  14.  H  0.0001  0.0004  0.0003  0.0002  0.0000  0.0001  0.0000  0.0000  0.0000
  15.  H  0.0019  0.0070  0.0000  0.0000  0.0001  0.0000  0.0005  0.0009  0.0008
  16.  H  0.0022  0.0015  0.0000  0.0000  0.0000  0.0005  0.0000  0.0089  0.0003
  17.  H  0.9044  0.0027  0.0000  0.0000  0.0000  0.0009  0.0089  0.0000  0.0008
  18.  H  0.9054  0.0022  0.0000  0.0001  0.0000  0.0008  0.0003  0.0008  0.0000
  19.  H  0.0027  0.8976  0.0000  0.0000  0.0000  0.0000  0.0001  0.0075  0.0014
  20.  H  0.0021  0.9017  0.0000  0.0003  0.0002  0.0004  0.0001  0.0013  0.0004

     Atom   19      20
     ---- ------  ------
   1. Br  0.0005  0.0002
   2.  C  0.0035  0.0016
   3.  C  0.0001  0.0001
   4.  C  0.0068  0.0032
   5.  C  0.0019  0.0022
   6.  C  0.0078  0.0071
   7.  C  0.0001  0.0001
   8.  O  0.0010  0.0005
   9.  C  0.0007  0.0070
  10.  C  0.0027  0.0021
  11.  C  0.8976  0.9017
  12.  H  0.0000  0.0000
  13.  H  0.0000  0.0003
  14.  H  0.0000  0.0002
  15.  H  0.0000  0.0004
  16.  H  0.0001  0.0001
  17.  H  0.0075  0.0013
  18.  H  0.0014  0.0004
  19.  H  0.0000  0.0007
  20.  H  0.0007  0.0000


 Wiberg bond index, Totals by atom:

     Atom    1
     ---- ------
   1. Br  1.1530
   2.  C  4.0004
   3.  C  3.9256
   4.  C  3.9325
   5.  C  3.9762
   6.  C  3.9080
   7.  C  3.9217
   8.  O  2.1417
   9.  C  3.7745
  10.  C  3.8644
  11.  C  3.8669
  12.  H  0.9319
  13.  H  0.9378
  14.  H  0.9277
  15.  H  0.9398
  16.  H  0.9517
  17.  H  0.9338
  18.  H  0.9328
  19.  H  0.9325
  20.  H  0.9295


 NBI: Natural Binding Index (NCU strength parameters)

     Atom    1       2       3       4       5       6       7       8       9
     ---- ------  ------  ------  ------  ------  ------  ------  ------  ------
   1. Br  0.0000  1.0160  0.1843  0.1096  0.1075  0.1073  0.1938  0.0358  0.0245
   2.  C  1.0160  0.0000  1.1760  0.1194  0.3093  0.1203  1.1960  0.0826  0.0264
   3.  C  0.1843  1.1760  0.0000  1.1992  0.1179  0.3036  0.1347  0.1553  0.0161
   4.  C  0.1096  0.1194  1.1992  0.0000  1.1814  0.1276  0.3247  0.0910  0.0143
   5.  C  0.1075  0.3093  0.1179  1.1814  0.0000  1.1599  0.1271  0.2427  0.0568
   6.  C  0.1073  0.1203  0.3036  0.1276  1.1599  0.0000  1.1621  1.0128  0.0760
   7.  C  0.1938  1.1960  0.1347  0.3247  0.1271  1.1621  0.0000  0.2176  0.0836
   8.  O  0.0358  0.0826  0.1553  0.0910  0.2427  1.0128  0.2176  0.0000  0.9480
   9.  C  0.0245  0.0264  0.0161  0.0143  0.0568  0.0760  0.0836  0.9480  0.0000
  10.  C  0.0078  0.0177  0.0303  0.0692  0.0821  0.0602  0.0328  0.1381  1.0031
  11.  C  0.0196  0.0308  0.0768  0.1135  1.0001  0.0982  0.0744  0.0796  0.0822
  12.  H  0.0683  0.0654  0.9502  0.0709  0.0765  0.0148  0.0757  0.0144  0.0042
  13.  H  0.0342  0.0776  0.0672  0.9532  0.0648  0.0793  0.0111  0.0339  0.0068
  14.  H  0.0719  0.0745  0.0770  0.0164  0.0759  0.0659  0.9457  0.0692  0.0143
  15.  H  0.0093  0.0130  0.0034  0.0145  0.0103  0.0702  0.0085  0.0798  0.9572
  16.  H  0.0050  0.0117  0.0331  0.0074  0.0462  0.0346  0.0373  0.1325  0.9563
  17.  H  0.0048  0.0109  0.0094  0.0097  0.0200  0.0236  0.0142  0.0539  0.0534
  18.  H  0.0063  0.0103  0.0130  0.0129  0.0781  0.0204  0.0191  0.1027  0.0589
  19.  H  0.0221  0.0594  0.0098  0.0823  0.0437  0.0881  0.0118  0.0321  0.0256
  20.  H  0.0151  0.0406  0.0099  0.0569  0.0470  0.0845  0.0108  0.0216  0.0839

     Atom   10      11      12      13      14      15      16      17      18
     ---- ------  ------  ------  ------  ------  ------  ------  ------  ------
   1. Br  0.0078  0.0196  0.0683  0.0342  0.0719  0.0093  0.0050  0.0048  0.0063
   2.  C  0.0177  0.0308  0.0654  0.0776  0.0745  0.0130  0.0117  0.0109  0.0103
   3.  C  0.0303  0.0768  0.9502  0.0672  0.0770  0.0034  0.0331  0.0094  0.0130
   4.  C  0.0692  0.1135  0.0709  0.9532  0.0164  0.0145  0.0074  0.0097  0.0129
   5.  C  0.0821  1.0001  0.0765  0.0648  0.0759  0.0103  0.0462  0.0200  0.0781
   6.  C  0.0602  0.0982  0.0148  0.0793  0.0659  0.0702  0.0346  0.0236  0.0204
   7.  C  0.0328  0.0744  0.0757  0.0111  0.9457  0.0085  0.0373  0.0142  0.0191
   8.  O  0.1381  0.0796  0.0144  0.0339  0.0692  0.0798  0.1325  0.0539  0.1027
   9.  C  1.0031  0.0822  0.0042  0.0068  0.0143  0.9572  0.9563  0.0534  0.0589
  10.  C  0.0000  1.0012  0.0118  0.0119  0.0088  0.0437  0.0473  0.9510  0.9515
  11.  C  1.0012  0.0000  0.0131  0.0509  0.0197  0.0834  0.0392  0.0518  0.0471
  12.  H  0.0118  0.0131  0.0000  0.0478  0.0182  0.0011  0.0008  0.0006  0.0066
  13.  H  0.0119  0.0509  0.0478  0.0000  0.0133  0.0022  0.0007  0.0025  0.0073
  14.  H  0.0088  0.0197  0.0182  0.0133  0.0000  0.0091  0.0015  0.0010  0.0025
  15.  H  0.0437  0.0834  0.0011  0.0022  0.0091  0.0000  0.0229  0.0304  0.0278
  16.  H  0.0473  0.0392  0.0008  0.0007  0.0015  0.0229  0.0000  0.0942  0.0163
  17.  H  0.9510  0.0518  0.0006  0.0025  0.0010  0.0304  0.0942  0.0000  0.0289
  18.  H  0.9515  0.0471  0.0066  0.0073  0.0025  0.0278  0.0163  0.0289  0.0000
  19.  H  0.0517  0.9474  0.0012  0.0070  0.0058  0.0033  0.0115  0.0866  0.0378
  20.  H  0.0462  0.9496  0.0047  0.0178  0.0135  0.0207  0.0097  0.0360  0.0206

     Atom   19      20
     ---- ------  ------
   1. Br  0.0221  0.0151
   2.  C  0.0594  0.0406
   3.  C  0.0098  0.0099
   4.  C  0.0823  0.0569
   5.  C  0.0437  0.0470
   6.  C  0.0881  0.0845
   7.  C  0.0118  0.0108
   8.  O  0.0321  0.0216
   9.  C  0.0256  0.0839
  10.  C  0.0517  0.0462
  11.  C  0.9474  0.9496
  12.  H  0.0012  0.0047
  13.  H  0.0070  0.0178
  14.  H  0.0058  0.0135
  15.  H  0.0033  0.0207
  16.  H  0.0115  0.0097
  17.  H  0.0866  0.0360
  18.  H  0.0378  0.0206
  19.  H  0.0000  0.0261
  20.  H  0.0261  0.0000


 NATURAL BOND ORBITAL ANALYSIS:

                            Occupancies       Lewis Structure    Low   High
         Max    Occ     -------------------  -----------------   occ   occ
  Cycle  Ctr   Thresh    Lewis   non-Lewis     CR  BD  nC  LP    (L)   (NL)
 ============================================================================
    1     2     1.90   102.64257   3.35743     24  22   0   7     3      3
    2     2     1.87   102.64257   3.35743     24  22   0   7     3      3
    3     2     1.84   102.51092   3.48908     24  21   0   8     3      3
    4     2     1.72   103.16188   2.83812     24  22   0   7     2      3
    5     2     1.69   103.81654   2.18346     24  23   0   6     1      3
    6     2     1.68   103.81654   2.18346     24  23   0   6     1      3
    7     2     1.67   103.81654   2.18346     24  23   0   6     1      3
    8     2     1.64   104.40027   1.59973     24  24   0   5     0      3
    9     2     1.63   104.40027   1.59973     24  24   0   5     0      3
   10     2     1.64   104.40027   1.59973     24  24   0   5     0      3
 ----------------------------------------------------------------------------

 Structure accepted: No low occupancy Lewis orbitals

 -------------------------------------------------------
   Core                     47.99710 ( 99.994% of  48)
   Valence Lewis            56.40317 ( 97.247% of  58)
  ==================      =============================
   Total Lewis             104.40027 ( 98.491% of 106)
  -----------------------------------------------------
   Valence non-Lewis         1.49975 (  1.415% of 106)
   Rydberg non-Lewis         0.09998 (  0.094% of 106)
  ==================      =============================
   Total non-Lewis           1.59973 (  1.509% of 106)
 -------------------------------------------------------


     (Occupancy)   Bond orbital / Coefficients / Hybrids
 ------------------ Lewis ------------------------------------------------------
   1. (2.00000) CR ( 1)Br  1            s(100.00%)
                                         1.0000  0.0000  0.0000  0.0000  0.0000
                                         0.0000  0.0000  0.0000  0.0000  0.0000
                                         0.0000  0.0000  0.0000  0.0000  0.0000
                                         0.0000  0.0000  0.0000  0.0000  0.0000
                                         0.0000  0.0000  0.0000  0.0000  0.0000
                                         0.0000  0.0000
   2. (2.00000) CR ( 2)Br  1            s(100.00%)
                                         0.0000  1.0000  0.0000  0.0000  0.0000
                                         0.0000  0.0000  0.0000  0.0000  0.0000
                                         0.0000  0.0000  0.0000  0.0000  0.0000
                                         0.0000  0.0000  0.0000  0.0000  0.0000
                                         0.0000  0.0000  0.0000  0.0000  0.0000
                                         0.0000  0.0000
   3. (1.99999) CR ( 3)Br  1            s(100.00%)
                                         0.0000  0.0000  1.0000  0.0000  0.0000
                                         0.0000  0.0000  0.0000  0.0000  0.0000
                                         0.0000  0.0000  0.0000  0.0000  0.0000
                                         0.0000  0.0000  0.0000  0.0000  0.0000
                                         0.0000  0.0000  0.0000  0.0000  0.0000
                                         0.0000  0.0000
   4. (2.00000) CR ( 4)Br  1            s(  0.00%)p 1.00(100.00%)
                                         0.0000  0.0000  0.0000  0.0000  0.0000
                                         1.0000  0.0000  0.0000  0.0000  0.0000
                                         0.0000  0.0000  0.0000  0.0000  0.0000
                                         0.0000  0.0000  0.0000  0.0000  0.0000
                                         0.0000  0.0000  0.0000  0.0000  0.0000
                                         0.0000  0.0000
   5. (1.99999) CR ( 5)Br  1            s(  0.00%)p 1.00(100.00%)
                                         0.0000  0.0000  0.0000  0.0000  0.0000
                                         0.0000  1.0000  0.0000  0.0000  0.0000
                                         0.0000  0.0000  0.0000  0.0000  0.0000
                                         0.0000  0.0000  0.0000  0.0000  0.0000
                                         0.0000  0.0000  0.0000  0.0000  0.0000
                                         0.0000  0.0000
   6. (2.00000) CR ( 6)Br  1            s(  0.00%)p 1.00(100.00%)
                                         0.0000  0.0000  0.0000  0.0000  0.0000
                                         0.0000  0.0000  0.0000  0.0000  1.0000
                                         0.0000  0.0000  0.0000  0.0000  0.0000
                                         0.0000  0.0000  0.0000  0.0000  0.0000
                                         0.0000  0.0000  0.0000  0.0000  0.0000
                                         0.0000  0.0000
   7. (1.99999) CR ( 7)Br  1            s(  0.00%)p 1.00(100.00%)
                                         0.0000  0.0000  0.0000  0.0000  0.0000
                                         0.0000  0.0000  0.0000  0.0000  0.0000
                                         1.0000  0.0000  0.0000  0.0000  0.0000
                                         0.0000  0.0000  0.0000  0.0000  0.0000
                                         0.0000  0.0000  0.0000  0.0000  0.0000
                                         0.0000  0.0000
   8. (2.00000) CR ( 8)Br  1            s(  0.00%)p 1.00(100.00%)
                                         0.0000  0.0000  0.0000  0.0000  0.0000
                                         0.0000  0.0000  0.0000  0.0000  0.0000
                                         0.0000  0.0000  0.0000  1.0000  0.0000
                                         0.0000  0.0000  0.0000  0.0000  0.0000
                                         0.0000  0.0000  0.0000  0.0000  0.0000
                                         0.0000  0.0000
   9. (2.00000) CR ( 9)Br  1            s(  0.00%)p 1.00(100.00%)
                                         0.0000  0.0000  0.0000  0.0000  0.0000
                                         0.0000  0.0000  0.0000  0.0000  0.0000
                                         0.0000  0.0000  0.0000  0.0000  1.0000
                                         0.0000  0.0000  0.0000  0.0000  0.0000
                                         0.0000  0.0000  0.0000  0.0000  0.0000
                                         0.0000  0.0000
  10. (1.99964) CR (10)Br  1            s(  0.00%)p 0.00(  0.00%)d 1.00(100.00%)
                                         0.0000  0.0000  0.0000  0.0000  0.0000
                                         0.0000  0.0000  0.0000  0.0000  0.0000
                                         0.0000  0.0000  0.0000  0.0000  0.0000
                                         0.0000  0.0000  1.0000  0.0000  0.0000
                                         0.0000  0.0000  0.0000  0.0000  0.0000
                                         0.0000  0.0000
  11. (1.99988) CR (11)Br  1            s(  0.00%)p 0.00(  0.00%)d 1.00(100.00%)
                                         0.0000  0.0000  0.0000  0.0000  0.0000
                                         0.0000  0.0000  0.0000  0.0000  0.0000
                                         0.0000  0.0000  0.0000  0.0000  0.0000
                                         0.0000  0.0000  0.0000  0.0000  1.0000
                                         0.0000  0.0000  0.0000  0.0000  0.0000
                                         0.0000  0.0000
  12. (1.99999) CR (12)Br  1            s(  0.00%)p 0.00(  0.00%)d 1.00(100.00%)
                                         0.0000  0.0000  0.0000  0.0000  0.0000
                                         0.0000  0.0000  0.0000  0.0000  0.0000
                                         0.0000  0.0000  0.0000  0.0000  0.0000
                                         0.0000  0.0000  0.0000  0.0000  0.0000
                                         0.0000  1.0000  0.0000  0.0000  0.0000
                                         0.0000  0.0000
  13. (1.99947) CR (13)Br  1            s(  0.00%)p 0.00(  0.00%)d 1.00(100.00%)
                                         0.0000  0.0000  0.0000  0.0000  0.0000
                                         0.0000  0.0000  0.0000  0.0000  0.0000
                                         0.0000  0.0000  0.0000  0.0000  0.0000
                                         0.0000  0.0000  0.0000  0.0000  0.0000
                                         0.0000  0.0000  0.0000  1.0000  0.0000
                                         0.0000  0.0000
  14. (1.99980) CR (14)Br  1            s(  0.00%)p 0.00(  0.00%)d 1.00(100.00%)
                                         0.0000  0.0000  0.0000  0.0000  0.0000
                                         0.0000  0.0000  0.0000  0.0000  0.0000
                                         0.0000  0.0000  0.0000  0.0000  0.0000
                                         0.0000  0.0000  0.0000  0.0000  0.0000
                                         0.0000  0.0000  0.0000  0.0000  0.0000
                                         1.0000  0.0000
  15. (1.99988) CR ( 1) C  2            s(100.00%)
                                         1.0000  0.0000  0.0000  0.0000  0.0000
                                         0.0000  0.0000  0.0000  0.0000
  16. (1.99986) CR ( 1) C  3            s(100.00%)
                                         1.0000  0.0000  0.0000  0.0000  0.0000
                                         0.0000  0.0000  0.0000  0.0000
  17. (1.99985) CR ( 1) C  4            s(100.00%)
                                         1.0000  0.0000  0.0000  0.0000  0.0000
                                         0.0000  0.0000  0.0000  0.0000
  18. (1.99990) CR ( 1) C  5            s(100.00%)
                                         1.0000  0.0000  0.0000  0.0000  0.0000
                                         0.0000  0.0000  0.0000  0.0000
  19. (1.99986) CR ( 1) C  6            s(100.00%)
                                         1.0000  0.0000  0.0000  0.0000  0.0000
                                         0.0000  0.0000  0.0000  0.0000
  20. (1.99985) CR ( 1) C  7            s(100.00%)
                                         1.0000  0.0000  0.0000  0.0000  0.0000
                                         0.0000  0.0000  0.0000  0.0000
  21. (1.99985) CR ( 1) O  8            s(100.00%)
                                         1.0000  0.0000  0.0000  0.0000  0.0000
                                         0.0000  0.0000  0.0000  0.0000  0.0000
                                         0.0000  0.0000  0.0000  0.0000
  22. (1.99977) CR ( 1) C  9            s(100.00%)
                                         1.0000  0.0000  0.0000  0.0000  0.0000
                                         0.0000  0.0000  0.0000  0.0000
  23. (1.99977) CR ( 1) C 10            s(100.00%)
                                         1.0000  0.0000  0.0000  0.0000  0.0000
                                         0.0000  0.0000  0.0000  0.0000
  24. (1.99975) CR ( 1) C 11            s(100.00%)
                                         1.0000  0.0000  0.0000  0.0000  0.0000
                                         0.0000  0.0000  0.0000  0.0000
  25. (1.99729) LP ( 1)Br  1            s( 87.27%)p 0.15( 12.73%)d 0.00(  0.00%)
                                         0.0000  0.0000  0.0000  0.9341 -0.0097
                                         0.0000  0.0000  0.3446  0.0131  0.0000
                                         0.0000 -0.0912 -0.0031  0.0000  0.0000
                                        -0.0066 -0.0003  0.0000  0.0019  0.0000
                                         0.0001  0.0000  0.0000  0.0000 -0.0034
                                         0.0000  0.0010
  26. (1.98228) LP ( 2)Br  1            s(  0.01%)p 1.00( 99.97%)d 0.00(  0.02%)
                                         0.0000  0.0000  0.0000  0.0076 -0.0002
                                         0.0000  0.0000  0.2372 -0.0037  0.0000
                                         0.0000  0.9705 -0.0157  0.0000  0.0000
                                         0.0361 -0.0006  0.0000 -0.0125  0.0000
                                        -0.0004  0.0000  0.0004  0.0000 -0.0066
                                         0.0000  0.0000
  27. (1.94614) LP ( 3)Br  1            s(  0.00%)p 1.00( 99.97%)d 0.00(  0.03%)
                                         0.0000  0.0000  0.0000  0.0005  0.0000
                                         0.0000  0.0000 -0.0100  0.0001  0.0000
                                         0.0000  0.0396 -0.0006  0.0000  0.0000
                                        -0.9989  0.0141  0.0000 -0.0007  0.0000
                                         0.0153  0.0000 -0.0039  0.0000  0.0000
                                         0.0000 -0.0006
  28. (1.96637) LP ( 1) O  8            s( 42.50%)p 1.35( 57.43%)d 0.00(  0.07%)
                                         0.0000  0.6519 -0.0033  0.2246 -0.0012
                                        -0.7158 -0.0004 -0.1070  0.0000  0.0118
                                         0.0019 -0.0080  0.0195  0.0109
  29. (1.84023) LP ( 2) O  8            s(  0.44%)p99.99( 99.45%)d 0.25(  0.11%)
                                         0.0000  0.0664 -0.0028 -0.1972  0.0010
                                         0.1432 -0.0004 -0.9670 -0.0067 -0.0075
                                         0.0031 -0.0297 -0.0026 -0.0118
  30. (1.98718) BD ( 1)Br  1- C  2
               ( 49.79%)   0.7056*Br  1 s( 12.93%)p 6.69( 86.46%)d 0.05(  0.62%)
                                         0.0000  0.0000  0.0000  0.3558  0.0514
                                         0.0000  0.0000 -0.9023 -0.0535  0.0000
                                         0.0000  0.2171  0.0130  0.0000  0.0000
                                         0.0178  0.0010  0.0000 -0.0311  0.0000
                                        -0.0026  0.0000  0.0006  0.0000  0.0607
                                         0.0000 -0.0387
               ( 50.21%)   0.7086* C  2 s( 22.37%)p 3.47( 77.63%)
                                         0.0000  0.4729 -0.0084  0.8547 -0.0464
                                        -0.2079  0.0117 -0.0156  0.0009
  31. (1.98010) BD ( 1) C  2- C  3
               ( 51.10%)   0.7148* C  2 s( 38.82%)p 1.58( 61.18%)
                                         0.0000  0.6231  0.0037 -0.1579  0.0102
                                         0.7648  0.0282  0.0315  0.0010
               ( 48.90%)   0.6993* C  3 s( 34.56%)p 1.89( 65.44%)
                                         0.0000  0.5877  0.0134  0.2578  0.0375
                                        -0.7652 -0.0116 -0.0298 -0.0008
  32. (1.97762) BD ( 1) C  2- C  7
               ( 50.77%)   0.7126* C  2 s( 38.79%)p 1.58( 61.21%)
                                         0.0000  0.6228  0.0046 -0.4923 -0.0046
                                        -0.6069 -0.0305 -0.0206 -0.0011
               ( 49.23%)   0.7016* C  7 s( 35.81%)p 1.79( 64.19%)
                                         0.0000  0.5982  0.0143  0.5675  0.0375
                                         0.5642 -0.0084  0.0087 -0.0007
  33. (1.72213) BD ( 2) C  2- C  7
               ( 50.59%)   0.7113* C  2 s(  0.00%)p 1.00(100.00%)
                                         0.0000  0.0006  0.0001  0.0082  0.0001
                                        -0.0400 -0.0002  0.9992  0.0041
               ( 49.41%)   0.7029* C  7 s(  0.00%)p 1.00(100.00%)
                                         0.0000  0.0036 -0.0005  0.0126 -0.0004
                                        -0.0318 -0.0008  0.9994 -0.0059
  34. (1.97344) BD ( 1) C  3- C  4
               ( 50.00%)   0.7071* C  3 s( 35.55%)p 1.81( 64.45%)
                                         0.0000  0.5962  0.0067 -0.7779 -0.0143
                                         0.1942  0.0344  0.0154  0.0013
               ( 50.00%)   0.7071* C  4 s( 35.80%)p 1.79( 64.20%)
                                         0.0000  0.5983  0.0082  0.7842  0.0245
                                        -0.1611  0.0227 -0.0052  0.0005
  35. (1.69401) BD ( 2) C  3- C  4
               ( 51.65%)   0.7187* C  3 s(  0.00%)p 1.00(100.00%)
                                         0.0000  0.0010  0.0004 -0.0099 -0.0001
                                         0.0364 -0.0002 -0.9992  0.0128
               ( 48.35%)   0.6953* C  4 s(  0.00%)p 1.00(100.00%)
                                         0.0000  0.0023  0.0007 -0.0023 -0.0006
                                         0.0295 -0.0003 -0.9995  0.0089
  36. (1.98221) BD ( 1) C  3- H 12
               ( 63.29%)   0.7956* C  3 s( 29.93%)p 2.34( 70.07%)
                                         0.0000  0.5469 -0.0143  0.5715 -0.0180
                                         0.6109 -0.0147  0.0171 -0.0003
               ( 36.71%)   0.6059* H 12 s(100.00%)
                                         1.0000  0.0025
  37. (1.97110) BD ( 1) C  4- C  5
               ( 48.89%)   0.6992* C  4 s( 35.57%)p 1.81( 64.43%)
                                         0.0000  0.5963  0.0092 -0.5702 -0.0292
                                        -0.5641  0.0011 -0.0140  0.0001
               ( 51.11%)   0.7149* C  5 s( 35.38%)p 1.83( 64.62%)
                                         0.0000  0.5948  0.0066  0.5541 -0.0039
                                         0.5817  0.0188  0.0220  0.0005
  38. (1.98162) BD ( 1) C  4- H 13
               ( 62.65%)   0.7915* C  4 s( 28.66%)p 2.49( 71.34%)
                                         0.0000  0.5352 -0.0129 -0.2416  0.0109
                                         0.8086 -0.0202  0.0257 -0.0004
               ( 37.35%)   0.6111* H 13 s(100.00%)
                                         1.0000  0.0020
  39. (1.97489) BD ( 1) C  5- C  6
               ( 50.57%)   0.7111* C  5 s( 33.14%)p 2.02( 66.86%)
                                         0.0000  0.5757  0.0042  0.2118 -0.0077
                                        -0.7894 -0.0122 -0.0170  0.0004
               ( 49.43%)   0.7031* C  6 s( 37.98%)p 1.63( 62.02%)
                                         0.0000  0.6162 -0.0077 -0.2899 -0.0024
                                         0.7315 -0.0043  0.0317 -0.0018
  40. (1.64223) BD ( 2) C  5- C  6
               ( 52.82%)   0.7268* C  5 s(  0.00%)p 1.00(100.00%)
                                         0.0000  0.0041 -0.0002  0.0074  0.0011
                                         0.0265  0.0000 -0.9996  0.0037
               ( 47.18%)   0.6869* C  6 s(  0.00%)p 1.00(100.00%)
                                         0.0000 -0.0015  0.0043 -0.0065 -0.0039
                                         0.0420 -0.0010 -0.9990  0.0102
  41. (1.97633) BD ( 1) C  5- C 11
               ( 50.77%)   0.7125* C  5 s( 31.48%)p 2.18( 68.52%)
                                         0.0000  0.5610 -0.0096 -0.8048  0.0179
                                         0.1928  0.0096  0.0014  0.0013
               ( 49.23%)   0.7016* C 11 s( 26.85%)p 2.72( 73.15%)
                                         0.0000  0.5180  0.0116  0.8318  0.0206
                                        -0.1979  0.0065  0.0081  0.0010
  42. (1.97100) BD ( 1) C  6- C  7
               ( 50.30%)   0.7092* C  6 s( 36.73%)p 1.72( 63.27%)
                                         0.0000  0.6060  0.0057  0.7675 -0.0142
                                        -0.2059 -0.0286 -0.0145  0.0001
               ( 49.70%)   0.7050* C  7 s( 34.52%)p 1.90( 65.48%)
                                         0.0000  0.5875  0.0096 -0.7897 -0.0289
                                         0.1725 -0.0207  0.0133 -0.0007
  43. (1.99135) BD ( 1) C  6- O  8
               ( 33.81%)   0.5815* C  6 s( 25.08%)p 2.99( 74.92%)
                                         0.0000  0.5008  0.0065 -0.5716 -0.0047
                                        -0.6476 -0.0497 -0.0242 -0.0069
               ( 66.19%)   0.8135* O  8 s( 30.40%)p 2.28( 69.31%)d 0.01(  0.29%)
                                         0.0000  0.5514  0.0038  0.5102  0.0038
                                         0.6571 -0.0079  0.0310 -0.0031  0.0375
                                         0.0025  0.0079 -0.0235 -0.0287
  44. (1.97829) BD ( 1) C  7- H 14
               ( 63.76%)   0.7985* C  7 s( 29.72%)p 2.37( 70.28%)
                                         0.0000  0.5449 -0.0166  0.2283 -0.0054
                                        -0.8058  0.0228 -0.0304  0.0008
               ( 36.24%)   0.6020* H 14 s(100.00%)
                                         1.0000  0.0033
  45. (1.99012) BD ( 1) O  8- C  9
               ( 67.34%)   0.8206* O  8 s( 26.56%)p 2.76( 73.18%)d 0.01(  0.26%)
                                         0.0000  0.5154  0.0041 -0.8043  0.0031
                                         0.1827 -0.0162  0.2266 -0.0012 -0.0324
                                        -0.0207  0.0115  0.0214 -0.0221
               ( 32.66%)   0.5715* C  9 s( 18.62%)p 4.37( 81.38%)
                                         0.0000  0.4309  0.0221  0.8623  0.0304
                                        -0.1495 -0.0371 -0.2134 -0.0113
  46. (1.99066) BD ( 1) C  9- C 10
               ( 49.35%)   0.7025* C  9 s( 29.22%)p 2.42( 70.78%)
                                         0.0000  0.5405 -0.0033 -0.2547 -0.0237
                                         0.6833 -0.0042 -0.4187 -0.0083
               ( 50.65%)   0.7117* C 10 s( 25.44%)p 2.93( 74.56%)
                                         0.0000  0.5044  0.0057  0.2691 -0.0086
                                        -0.7083 -0.0164  0.4136  0.0011
  47. (1.98821) BD ( 1) C  9- H 15
               ( 62.58%)   0.7911* C  9 s( 26.16%)p 2.82( 73.84%)
                                         0.0000  0.5114  0.0076 -0.4345  0.0151
                                        -0.7053  0.0082 -0.2277  0.0091
[...]
    5. CR ( 5)Br  1             1.99999   -55.66626
    6. CR ( 6)Br  1             2.00000    -7.15035
    7. CR ( 7)Br  1             1.99999   -55.66301
    8. CR ( 8)Br  1             2.00000    -7.14971
    9. CR ( 9)Br  1             2.00000   -55.66280
   10. CR (10)Br  1             1.99964    -2.76531
   11. CR (11)Br  1             1.99988    -2.76484
   12. CR (12)Br  1             1.99999    -2.75455
   13. CR (13)Br  1             1.99947    -2.76546  80(g)
   14. CR (14)Br  1             1.99980    -2.75789
   15. CR ( 1) C  2             1.99988   -10.28770
   16. CR ( 1) C  3             1.99986   -10.23537
   17. CR ( 1) C  4             1.99985   -10.24070
   18. CR ( 1) C  5             1.99990   -10.24597
   19. CR ( 1) C  6             1.99986   -10.29961
   20. CR ( 1) C  7             1.99985   -10.23546
   21. CR ( 1) O  8             1.99985   -19.18066  113(g)
   22. CR ( 1) C  9             1.99977   -10.28998
   23. CR ( 1) C 10             1.99977   -10.24154
   24. CR ( 1) C 11             1.99975   -10.24477
   25. LP ( 1)Br  1             1.99729    -0.75111  88(v)
   26. LP ( 2)Br  1             1.98228    -0.35496  56(v),55(v),87(v)
   27. LP ( 3)Br  1             1.94614    -0.35042  57(v)
   28. LP ( 1) O  8             1.96637    -0.57315  63(v),103(v),70(v),71(v)
                                                     66(v),121(v),120(v)
   29. LP ( 2) O  8             1.84023    -0.36743  64(v),72(v),70(v),71(v)
                                                     57(r)
   30. BD ( 1)Br  1- C  2       1.98718    -0.62378  107(v),66(v),91(v),58(v)
   31. BD ( 1) C  2- C  3       1.98010    -0.71127  56(g),58(g),96(v),60(g)
                                                     68(v),62(v),107(v),108(v)
                                                     95(v)
   32. BD ( 1) C  2- C  7       1.97762    -0.71724  55(g),67(v),103(v),66(g)
                                                     68(g),60(v),91(v),92(v)
   33. BD ( 2) C  2- C  7       1.72213    -0.32931  64(v),59(v),78(v),93(v)
   34. BD ( 1) C  3- C  4       1.97344    -0.69000  54(v),61(g),55(g),65(v)
                                                     100(v),87(v),60(g),62(g)
                                                     88(v)
   35. BD ( 2) C  3- C  4       1.69401    -0.31179  57(v),64(v),101(v),89(v)
   36. BD ( 1) C  3- H 12       1.98221    -0.57119  61(v),56(v),88(v),95(v)
                                                     58(g),55(g),54(v)
   37. BD ( 1) C  4- C  5       1.97110    -0.68872  67(v),63(g),58(g),65(g)
                                                     92(v),104(v),60(v),62(g)
                                                     128(v),73(v)
   38. BD ( 1) C  4- H 13       1.98162    -0.57161  63(v),55(v),91(v),61(g)
                                                     58(g),100(v),99(v),65(v)
   39. BD ( 1) C  5- C  6       1.97489    -0.70797  66(g),61(g),65(g),108(v)
                                                     62(v),68(v),95(v),96(v)
                                                     128(v),107(v)
   40. BD ( 2) C  5- C  6       1.64223    -0.31432  59(v),57(v),76(v),77(v)
                                                     98(v),110(v),64(g)
   41. BD ( 1) C  5- C 11       1.97633    -0.63098  61(g),95(v),63(g),66(v)
                                                     58(v),75(v),103(v),73(g)
                                                     77(g),124(v),67(v),76(g)
                                                     104(v)
   42. BD ( 1) C  6- C  7       1.97100    -0.70425  63(g),54(v),56(g),99(v)
                                                     65(v),87(v),68(g),69(v)
                                                     88(v),111(v)
   43. BD ( 1) C  6- O  8       1.99135    -0.86268  120(v),56(v),61(v),71(v)
   44. BD ( 1) C  7- H 14       1.97829    -0.56915  63(v),55(v),67(v),88(v)
                                                     56(g),104(v),66(g),54(v)
   45. BD ( 1) O  8- C  9       1.99012    -0.79581  66(v),103(v),75(v)
   46. BD ( 1) C  9- C 10       1.99066    -0.64252  77(v),129(v),73(g),75(g)
                                                     71(g),104(r)
   47. BD ( 1) C  9- H 15       1.98821    -0.58648  73(v),67(v),111(v)
   48. BD ( 1) C  9- H 16       1.99071    -0.58537  74(v)
   49. BD ( 1) C 10- C 11       1.98513    -0.61904  61(v),71(v),65(g),121(v)
                                                     77(g),99(v),75(g),70(g)
                                                     76(g),74(g)
   50. BD ( 1) C 10- H 17       1.98403    -0.56040  72(v),76(v),69(v),120(v)
   51. BD ( 1) C 10- H 18       1.98093    -0.56685  69(v),65(v),130(v)
   52. BD ( 1) C 11- H 19       1.97701    -0.55785  64(v),74(v),101(v),65(g)
   53. BD ( 1) C 11- H 20       1.98055    -0.56018  64(v),70(v),63(v),65(g)
 ------ non-Lewis ----------------------------------
   54. BD*( 1)Br  1- C  2       0.02525     0.18781
   55. BD*( 1) C  2- C  3       0.02219     0.66188
   56. BD*( 1) C  2- C  7       0.02061     0.67628
   57. BD*( 2) C  2- C  7       0.38835     0.05845
   58. BD*( 1) C  3- C  4       0.01543     0.68503
   59. BD*( 2) C  3- C  4       0.33987     0.07582
   60. BD*( 1) C  3- H 12       0.01123     0.58470
   61. BD*( 1) C  4- C  5       0.02106     0.68125
   62. BD*( 1) C  4- H 13       0.01142     0.57004
   63. BD*( 1) C  5- C  6       0.03245     0.65865
   64. BD*( 2) C  5- C  6       0.40502     0.06683
   65. BD*( 1) C  5- C 11       0.02075     0.50262
   66. BD*( 1) C  6- C  7       0.02260     0.66304
   67. BD*( 1) C  6- O  8       0.02348     0.43957
   68. BD*( 1) C  7- H 14       0.01135     0.58432
   69. BD*( 1) O  8- C  9       0.01880     0.34095
   70. BD*( 1) C  9- C 10       0.02305     0.44291
   71. BD*( 1) C  9- H 15       0.01074     0.54274
   72. BD*( 1) C  9- H 16       0.02195     0.51422
   73. BD*( 1) C 10- C 11       0.01158     0.44789
   74. BD*( 1) C 10- H 17       0.01100     0.52825
   75. BD*( 1) C 10- H 18       0.00928     0.52869
   76. BD*( 1) C 11- H 19       0.01286     0.51987
   77. BD*( 1) C 11- H 20       0.00941     0.53063
   78. RY ( 1)Br  1             0.00203     0.68929
   79. RY ( 2)Br  1             0.00096     0.75307
   80. RY ( 3)Br  1             0.00061     1.12149
   81. RY ( 4)Br  1             0.00026     0.82829
   82. RY ( 5)Br  1             0.00010     0.94379
   83. RY ( 6)Br  1             0.00006     0.65550
   84. RY ( 7)Br  1             0.00003     0.68115
   85. RY ( 8)Br  1             0.00002     0.77496
   86. RY ( 9)Br  1             0.00001     0.72441
   87. RY ( 1) C  2             0.00643     1.09634
   88. RY ( 2) C  2             0.00500     1.37133
   89. RY ( 3) C  2             0.00076     0.95464
   90. RY ( 4) C  2             0.00032     0.71880
   91. RY ( 1) C  3             0.00524     1.34854
   92. RY ( 2) C  3             0.00347     1.03556
   93. RY ( 3) C  3             0.00041     0.93540
   94. RY ( 4) C  3             0.00039     0.73930
   95. RY ( 1) C  4             0.00504     1.38916
   96. RY ( 2) C  4             0.00321     1.04320
   97. RY ( 3) C  4             0.00038     0.74611
   98. RY ( 4) C  4             0.00016     0.94483
   99. RY ( 1) C  5             0.00460     1.36185
  100. RY ( 2) C  5             0.00297     1.42665
  101. RY ( 3) C  5             0.00138     1.02151
  102. RY ( 4) C  5             0.00060     0.79853
  103. RY ( 1) C  6             0.00703     1.29355
  104. RY ( 2) C  6             0.00425     1.33936
  105. RY ( 3) C  6             0.00094     0.80078
  106. RY ( 4) C  6             0.00066     0.97106
  107. RY ( 1) C  7             0.00444     1.35687
  108. RY ( 2) C  7             0.00410     1.04119
  109. RY ( 3) C  7             0.00061     0.79146
  110. RY ( 4) C  7             0.00048     0.86867
  111. RY ( 1) O  8             0.00189     1.63196
  112. RY ( 2) O  8             0.00106     1.73419
  113. RY ( 3) O  8             0.00039     2.10904
  114. RY ( 4) O  8             0.00030     2.30752
  115. RY ( 5) O  8             0.00027     2.08365
  116. RY ( 6) O  8             0.00006     2.02802
  117. RY ( 7) O  8             0.00003     2.22014
  118. RY ( 8) O  8             0.00002     1.98473
  119. RY ( 9) O  8             0.00001     1.94464
  120. RY ( 1) C  9             0.00273     1.01806
  121. RY ( 2) C  9             0.00222     1.09923
  122. RY ( 3) C  9             0.00091     0.98915
  123. RY ( 4) C  9             0.00032     1.02807
  124. RY ( 1) C 10             0.00221     1.18558
  125. RY ( 2) C 10             0.00074     1.02289
  126. RY ( 3) C 10             0.00062     0.95411
  127. RY ( 4) C 10             0.00027     1.11348
  128. RY ( 1) C 11             0.00300     1.10089
  129. RY ( 2) C 11             0.00153     1.07375
  130. RY ( 3) C 11             0.00093     1.00029
  131. RY ( 4) C 11             0.00029     1.16059
  132. RY ( 1) H 12             0.00115     0.62105
  133. RY ( 1) H 13             0.00084     0.63068
  134. RY ( 1) H 14             0.00189     0.63276
  135. RY ( 1) H 15             0.00099     0.59031
  136. RY ( 1) H 16             0.00203     0.61942
  137. RY ( 1) H 17             0.00234     0.63088
  138. RY ( 1) H 18             0.00130     0.61497
  139. RY ( 1) H 19             0.00143     0.62940
  140. RY ( 1) H 20             0.00125     0.62830
          -------------------------------
                 Total Lewis  104.40027  ( 98.4908%)
           Valence non-Lewis    1.49975  (  1.4149%)
           Rydberg non-Lewis    0.09998  (  0.0943%)
          -------------------------------
               Total unit  1  106.00000  (100.0000%)
              Charge unit  1    0.00000

 $CHOOSE
   LONE 1 3 8 2 END
   BOND S 1 2 S 2 3 D 2 7 D 3 4 S 3 12 S 4 5 S 4 13 D 5 6 S 5 11 S 6 7 S 6 8
        S 7 14 S 8 9 S 9 10 S 9 15 S 9 16 S 10 11 S 10 17 S 10 18 S 11 19
        S 11 20 END
 $END


 Checkpoint NBOs sorted by occupancy:

  Sort    Occ       Energy   Orig   Label
 -----------------------------------------------------------
    1.  2.00000   -20.24870    1.   CR ( 1)Br  1
    2.  2.00000  -451.44014    2.   CR ( 2)Br  1
    3.  2.00000    -7.16348    4.   CR ( 4)Br  1
    4.  2.00000    -7.15035    6.   CR ( 6)Br  1
    5.  2.00000    -7.14971    8.   CR ( 8)Br  1
    6.  2.00000   -55.66280    9.   CR ( 9)Br  1
    7.  1.99999   -55.66301    7.   CR ( 7)Br  1
    8.  1.99999   -79.90854    3.   CR ( 3)Br  1
    9.  1.99999    -2.75455   12.   CR (12)Br  1
   10.  1.99999   -55.66626    5.   CR ( 5)Br  1
   11.  1.99990   -10.24597   18.   CR ( 1) C  5
   12.  1.99988   -10.28770   15.   CR ( 1) C  2
   13.  1.99988    -2.76484   11.   CR (11)Br  1
   14.  1.99986   -10.23537   16.   CR ( 1) C  3
   15.  1.99986   -10.29961   19.   CR ( 1) C  6
   16.  1.99985   -19.18066   21.   CR ( 1) O  8
   17.  1.99985   -10.24070   17.   CR ( 1) C  4
   18.  1.99985   -10.23546   20.   CR ( 1) C  7
   19.  1.99980    -2.75789   14.   CR (14)Br  1
   20.  1.99977   -10.24154   23.   CR ( 1) C 10
   21.  1.99977   -10.28998   22.   CR ( 1) C  9
   22.  1.99975   -10.24477   24.   CR ( 1) C 11
   23.  1.99964    -2.76531   10.   CR (10)Br  1
   24.  1.99947    -2.76546   13.   CR (13)Br  1
   25.  1.99729    -0.75111   25.   LP ( 1)Br  1
   26.  1.99135    -0.86268   43.   BD ( 1) C  6- O  8
   27.  1.99071    -0.58537   48.   BD ( 1) C  9- H 16
   28.  1.99066    -0.64252   46.   BD ( 1) C  9- C 10
   29.  1.99012    -0.79581   45.   BD ( 1) O  8- C  9
   30.  1.98821    -0.58648   47.   BD ( 1) C  9- H 15
   31.  1.98718    -0.62378   30.   BD ( 1)Br  1- C  2
   32.  1.98513    -0.61904   49.   BD ( 1) C 10- C 11
   33.  1.98403    -0.56040   50.   BD ( 1) C 10- H 17
   34.  1.98228    -0.35496   26.   LP ( 2)Br  1
   35.  1.98221    -0.57119   36.   BD ( 1) C  3- H 12
   36.  1.98162    -0.57161   38.   BD ( 1) C  4- H 13
   37.  1.98093    -0.56685   51.   BD ( 1) C 10- H 18
   38.  1.98055    -0.56018   53.   BD ( 1) C 11- H 20
   39.  1.98010    -0.71127   31.   BD ( 1) C  2- C  3
   40.  1.97829    -0.56915   44.   BD ( 1) C  7- H 14
   41.  1.97762    -0.71724   32.   BD ( 1) C  2- C  7
   42.  1.97701    -0.55785   52.   BD ( 1) C 11- H 19
   43.  1.97633    -0.63098   41.   BD ( 1) C  5- C 11
   44.  1.97489    -0.70797   39.   BD ( 1) C  5- C  6
   45.  1.97344    -0.69000   34.   BD ( 1) C  3- C  4
   46.  1.97110    -0.68872   37.   BD ( 1) C  4- C  5
   47.  1.97100    -0.70425   42.   BD ( 1) C  6- C  7
   48.  1.96637    -0.57315   28.   LP ( 1) O  8
   49.  1.94614    -0.35042   27.   LP ( 3)Br  1
   50.  1.84023    -0.36743   29.   LP ( 2) O  8
   51.  1.72213    -0.32931   33.   BD ( 2) C  2- C  7
   52.  1.69401    -0.31179   35.   BD ( 2) C  3- C  4
   53.  1.64223    -0.31432   40.   BD ( 2) C  5- C  6
   54.  0.40502     0.06683   64.   BD*( 2) C  5- C  6
   55.  0.38835     0.05845   57.   BD*( 2) C  2- C  7
   56.  0.33987     0.07582   59.   BD*( 2) C  3- C  4
   57.  0.03245     0.65865   63.   BD*( 1) C  5- C  6
   58.  0.02525     0.18781   54.   BD*( 1)Br  1- C  2
   59.  0.02348     0.43957   67.   BD*( 1) C  6- O  8
   60.  0.02305     0.44291   70.   BD*( 1) C  9- C 10
   61.  0.02260     0.66304   66.   BD*( 1) C  6- C  7
   62.  0.02219     0.66188   55.   BD*( 1) C  2- C  3
   63.  0.02195     0.51422   72.   BD*( 1) C  9- H 16
   64.  0.02106     0.68125   61.   BD*( 1) C  4- C  5
   65.  0.02075     0.50262   65.   BD*( 1) C  5- C 11
   66.  0.02061     0.67628   56.   BD*( 1) C  2- C  7
   67.  0.01880     0.34095   69.   BD*( 1) O  8- C  9
   68.  0.01543     0.68503   58.   BD*( 1) C  3- C  4
   69.  0.01286     0.51987   76.   BD*( 1) C 11- H 19
   70.  0.01158     0.44789   73.   BD*( 1) C 10- C 11
   71.  0.01142     0.57004   62.   BD*( 1) C  4- H 13
   72.  0.01135     0.58432   68.   BD*( 1) C  7- H 14
   73.  0.01123     0.58470   60.   BD*( 1) C  3- H 12
   74.  0.01100     0.52825   74.   BD*( 1) C 10- H 17
   75.  0.01074     0.54274   71.   BD*( 1) C  9- H 15
   76.  0.00941     0.53063   77.   BD*( 1) C 11- H 20
   77.  0.00928     0.52869   75.   BD*( 1) C 10- H 18
   78.  0.00703     1.29355  103.   RY ( 1) C  6
   79.  0.00643     1.09634   87.   RY ( 1) C  2
   80.  0.00524     1.34854   91.   RY ( 1) C  3
   81.  0.00504     1.38916   95.   RY ( 1) C  4
   82.  0.00500     1.37133   88.   RY ( 2) C  2
   83.  0.00460     1.36185   99.   RY ( 1) C  5
   84.  0.00444     1.35687  107.   RY ( 1) C  7
   85.  0.00425     1.33936  104.   RY ( 2) C  6
   86.  0.00410     1.04119  108.   RY ( 2) C  7
   87.  0.00347     1.03556   92.   RY ( 2) C  3
   88.  0.00321     1.04320   96.   RY ( 2) C  4
   89.  0.00300     1.10089  128.   RY ( 1) C 11
   90.  0.00297     1.42665  100.   RY ( 2) C  5
   91.  0.00273     1.01806  120.   RY ( 1) C  9
   92.  0.00234     0.63088  137.   RY ( 1) H 17
   93.  0.00222     1.09923  121.   RY ( 2) C  9
   94.  0.00221     1.18558  124.   RY ( 1) C 10
   95.  0.00203     0.68929   78.   RY ( 1)Br  1
   96.  0.00203     0.61942  136.   RY ( 1) H 16
   97.  0.00189     0.63276  134.   RY ( 1) H 14
   98.  0.00189     1.63196  111.   RY ( 1) O  8
   99.  0.00153     1.07375  129.   RY ( 2) C 11
  100.  0.00143     0.62940  139.   RY ( 1) H 19
  101.  0.00138     1.02151  101.   RY ( 3) C  5
  102.  0.00130     0.61497  138.   RY ( 1) H 18
  103.  0.00125     0.62830  140.   RY ( 1) H 20
  104.  0.00115     0.62105  132.   RY ( 1) H 12
  105.  0.00106     1.73419  112.   RY ( 2) O  8
  106.  0.00099     0.59031  135.   RY ( 1) H 15
  107.  0.00096     0.75307   79.   RY ( 2)Br  1
  108.  0.00094     0.80078  105.   RY ( 3) C  6
  109.  0.00093     1.00029  130.   RY ( 3) C 11
  110.  0.00091     0.98915  122.   RY ( 3) C  9
  111.  0.00084     0.63068  133.   RY ( 1) H 13
  112.  0.00076     0.95464   89.   RY ( 3) C  2
  113.  0.00074     1.02289  125.   RY ( 2) C 10
  114.  0.00066     0.97106  106.   RY ( 4) C  6
  115.  0.00062     0.95411  126.   RY ( 3) C 10
  116.  0.00061     0.79146  109.   RY ( 3) C  7
  117.  0.00061     1.12149   80.   RY ( 3)Br  1
  118.  0.00060     0.79853  102.   RY ( 4) C  5
  119.  0.00048     0.86867  110.   RY ( 4) C  7
  120.  0.00041     0.93540   93.   RY ( 3) C  3
  121.  0.00039     0.73930   94.   RY ( 4) C  3
  122.  0.00039     2.10904  113.   RY ( 3) O  8
  123.  0.00038     0.74611   97.   RY ( 3) C  4
  124.  0.00032     0.71880   90.   RY ( 4) C  2
  125.  0.00032     1.02807  123.   RY ( 4) C  9
  126.  0.00030     2.30752  114.   RY ( 4) O  8
  127.  0.00029     1.16059  131.   RY ( 4) C 11
  128.  0.00027     1.11348  127.   RY ( 4) C 10
  129.  0.00027     2.08365  115.   RY ( 5) O  8
  130.  0.00026     0.82829   81.   RY ( 4)Br  1
  131.  0.00016     0.94483   98.   RY ( 4) C  4
  132.  0.00010     0.94379   82.   RY ( 5)Br  1
  133.  0.00006     0.65550   83.   RY ( 6)Br  1
  134.  0.00006     2.02802  116.   RY ( 6) O  8
  135.  0.00003     2.22014  117.   RY ( 7) O  8
  136.  0.00003     0.68115   84.   RY ( 7)Br  1
  137.  0.00002     0.77496   85.   RY ( 8)Br  1
  138.  0.00002     1.98473  118.   RY ( 8) O  8
  139.  0.00001     0.72441   86.   RY ( 9)Br  1
  140.  0.00001     1.94464  119.   RY ( 9) O  8

 NBO analysis completed in 0.57 CPU seconds (1 wall second)
 Maximum scratch memory used by NBO was 621700 words (4.74 MB)
 Maximum scratch memory used by G16NBO was 38716 words (0.30 MB)

 Opening RunExU unformatted file "/home/rpaton/opt/midi/Gau-803299.EUF"
 Read unf file /home/rpaton/opt/midi/Gau-803299.EUF:
 Label Gaussian matrix elements                                         IVers= 2 NLab= 2 Version=ES64L-G16RevC.01
 Title arbr43_wb97xd_popncreated by GaussianPrep                       
 NAtoms=    20 NBasis=   140 NBsUse=   140 ICharg=     0 Multip=     1 NE=   106 Len12L=8 Len4L=8 IOpCl= 0 ICGU=111
 GAUSSIAN SCALARS                    NI= 1 NR= 1 NTot=       1 LenBuf=    2 NRI=1 N=    1000
 ALPHA ORBITAL ENERGIES              NI= 0 NR= 1 NTot=     140 LenBuf= 2048 NRI=1 N=     140
 ALPHA MO COEFFICIENTS               NI= 0 NR= 1 NTot=   19600 LenBuf= 2048 NRI=1 N=     140     140
 Store file  10524 Len=   19600.
 NPA CHARGES                         NI= 0 NR= 1 NTot=      20 LenBuf= 2048 NRI=1 N=      20
 Recovered energy= -2983.04828243     dipole=     -1.310423391784      0.385910385331      0.122788063149
 Unable to Open any file for archive entry.
 1\1\GINC-DYNAMO\SP\RwB97XD\MIDIx\C9H9Br1O1\RPATON\25-Sep-2024\0\\# pop
 =(nbo6read,savenbos,hirshfeld) wb97xd/midix\\arbr43_wb97xd_popncreated
  by GaussianPrep\\0,1\Br,0,3.010998,-0.253824,-0.026206\C,0,1.165755,0
 .191885,0.010067\C,0,0.780577,1.527393,0.064852\C,0,-0.574558,1.828808
 ,0.083243\C,0,-1.552916,0.838248,0.05337\C,0,-1.137064,-0.498279,0.013
 384\C,0,0.222598,-0.818601,-0.015674\O,0,-1.995531,-1.56799,-0.034957\
 C,0,-3.359436,-1.263836,0.314438\C,0,-3.855655,-0.016587,-0.421344\C,0
 ,-3.024383,1.190352,0.045709\H,0,1.52691,2.314348,0.086666\H,0,-0.8857
 24,2.87188,0.11245\H,0,0.507549,-1.863978,-0.053963\H,0,-3.92469,-2.15
 6683,0.033023\H,0,-3.435935,-1.121299,1.404444\H,0,-3.731398,-0.171277
 ,-1.501091\H,0,-4.921919,0.140424,-0.218845\H,0,-3.346346,1.485185,1.0
 56704\H,0,-3.198649,2.052865,-0.610801\\Version=ES64L-G16RevC.01\State
 =1-A\HF=-2983.0482824\RMSD=9.912e-09\Dipole=-1.3104234,0.3859104,0.122
 7881\Quadrupole=4.86644,-0.2685993,-4.5978408,-0.0830106,-0.8510438,-0
 .1706864\PG=C01 [X(C9H9Br1O1)]\\@
 The archive entry for this job was punched.


 FORGIVE MY NONSENSE AS I ALSO FORGIVE THOSE WHO THINK THEY TALK SENSE

                                                       -- ROBERT FROST
 Job cpu time:       0 days  0 hours  3 minutes 24.4 seconds.
 Elapsed time:       0 days  0 hours  0 minutes  8.8 seconds.
 File lengths (MBytes):  RWF=     15 Int=      0 D2E=      0 Chk=      2 Scr=      1
 Normal termination of Gaussian 16 at Wed Sep 25 23:37:49 2024.
