Job Start Time: Mon Jan 29 12:49:31 MST 2024
SLURM Job ID: 229682
SLURM Job Name: Ac7_rdkit_conf_1_SP_NMR
 Entering Gaussian System, Link 0=/opt/apps/Gaussian/G16C/g16/g16
 Initial command:
 /opt/apps/Gaussian/G16C/g16/l1.exe "/tmp/Gau-2594296.inp" -scrdir="/tmp/"
 Entering Link 1 = /opt/apps/Gaussian/G16C/g16/l1.exe PID=   2594297.
  
 Copyright (c) 1988-2019, Gaussian, Inc.  All Rights Reserved.
  
 This is part of the Gaussian(R) 16 program.  It is based on
 the Gaussian(R) 09 system (copyright 2009, Gaussian, Inc.),
 the Gaussian(R) 03 system (copyright 2003, Gaussian, Inc.),
 the Gaussian(R) 98 system (copyright 1998, Gaussian, Inc.),
 the Gaussian(R) 94 system (copyright 1995, Gaussian, Inc.),
 the Gaussian 92(TM) system (copyright 1992, Gaussian, Inc.),
 the Gaussian 90(TM) system (copyright 1990, Gaussian, Inc.),
 the Gaussian 88(TM) system (copyright 1988, Gaussian, Inc.),
 the Gaussian 86(TM) system (copyright 1986, Carnegie Mellon
 University), and the Gaussian 82(TM) system (copyright 1983,
 Carnegie Mellon University). Gaussian is a federally registered
 trademark of Gaussian, Inc.
  
 This software contains proprietary and confidential information,
 including trade secrets, belonging to Gaussian, Inc.
  
 This software is provided under written license and may be
 used, copied, transmitted, or stored only in accord with that
 written license.
  
 The following legend is applicable only to US Government
 contracts under FAR:
  
                    RESTRICTED RIGHTS LEGEND
  
 Use, reproduction and disclosure by the US Government is
 subject to restrictions as set forth in subparagraphs (a)
 and (c) of the Commercial Computer Software - Restricted
 Rights clause in FAR 52.227-19.
  
 Gaussian, Inc.
 340 Quinnipiac St., Bldg. 40, Wallingford CT 06492
  
  
 ---------------------------------------------------------------
 Warning -- This program may not be used in any manner that
 competes with the business of Gaussian, Inc. or will provide
 assistance to any competitor of Gaussian, Inc.  The licensee
 of this program is prohibited from giving any competitor of
 Gaussian, Inc. access to this program.  By using this program,
 the user acknowledges that Gaussian, Inc. is engaged in the
 business of creating and licensing software in the field of
 computational chemistry and represents and warrants to the
 licensee that it is not a competitor of Gaussian, Inc. and that
 it will not use this program in any manner prohibited above.
 ---------------------------------------------------------------
  

 Cite this work as:
 Gaussian 16, Revision C.01,
 M. J. Frisch, G. W. Trucks, H. B. Schlegel, G. E. Scuseria, 
 M. A. Robb, J. R. Cheeseman, G. Scalmani, V. Barone, 
 G. A. Petersson, H. Nakatsuji, X. Li, M. Caricato, A. V. Marenich, 
 J. Bloino, B. G. Janesko, R. Gomperts, B. Mennucci, H. P. Hratchian, 
 J. V. Ortiz, A. F. Izmaylov, J. L. Sonnenberg, D. Williams-Young, 
 F. Ding, F. Lipparini, F. Egidi, J. Goings, B. Peng, A. Petrone, 
 T. Henderson, D. Ranasinghe, V. G. Zakrzewski, J. Gao, N. Rega, 
 G. Zheng, W. Liang, M. Hada, M. Ehara, K. Toyota, R. Fukuda, 
 J. Hasegawa, M. Ishida, T. Nakajima, Y. Honda, O. Kitao, H. Nakai, 
 T. Vreven, K. Throssell, J. A. Montgomery, Jr., J. E. Peralta, 
 F. Ogliaro, M. J. Bearpark, J. J. Heyd, E. N. Brothers, K. N. Kudin, 
 V. N. Staroverov, T. A. Keith, R. Kobayashi, J. Normand, 
 K. Raghavachari, A. P. Rendell, J. C. Burant, S. S. Iyengar, 
 J. Tomasi, M. Cossi, J. M. Millam, M. Klene, C. Adamo, R. Cammi, 
 J. W. Ochterski, R. L. Martin, K. Morokuma, O. Farkas, 
 J. B. Foresman, and D. J. Fox, Gaussian, Inc., Wallingford CT, 2019.
 
 ******************************************
 Gaussian 16:  AS64L-G16RevC.01  3-Jul-2019
                29-Jan-2024 
 ******************************************
 %nprocshared=8
 Will use up to    8 processors via shared memory.
 %mem=16GB
 -------------------------
 # nmr=giao m062x/def2tzvp
 -------------------------
 1/38=1,172=1/1;
 2/12=2,17=6,18=5,40=1/2;
 3/5=44,7=101,11=2,25=1,30=1,74=-55/1,2,3,8;
 4//1;
 5/5=2,38=5/2;
 8/6=1,10=90,11=11/1;
 10/13=100,45=16/2;
 6/7=2,8=2,9=2,10=2,28=1/1;
 99/9=1/99;
 -----------------------
 Ac7_rdkit_conf_1_SP_NMR
 -----------------------
 Symbolic Z-matrix:
 Charge =  0 Multiplicity = 1
 O                    -1.7018   -1.2396   -0.6893 
 C                    -1.49361  -0.22711  -0.08027 
 O                    -2.2872    0.85536  -0.21497 
 C                    -0.38623  -0.00364   0.92826 
 C                     0.60446  -1.16822   0.92127 
 C                     1.46721  -1.17789  -0.34063 
 C                     2.16652   0.16312  -0.55299 
 C                     1.15698   1.30885  -0.58058 
 C                     0.32901   1.33589   0.70166 
 H                    -2.98012   0.61761  -0.84759 
 H                    -0.89971   0.03817   1.89496 
 H                     1.24824  -1.06397   1.79968 
 H                     0.0669   -2.11156   1.01784 
 H                     2.20198  -1.98237  -0.27469 
 H                     0.83213  -1.39827  -1.20235 
 H                     2.74496   0.14433  -1.4785 
 H                     2.87763   0.33636   0.26244 
 H                     1.66538   2.26543  -0.71398 
 H                     0.48995   1.18468  -1.44156 
 H                    -0.39456   2.14994   0.68387 
 H                     0.99321   1.50763   1.55369 
 
                          Input orientation:                          
 ---------------------------------------------------------------------
 Center     Atomic      Atomic             Coordinates (Angstroms)
 Number     Number       Type             X           Y           Z
 ---------------------------------------------------------------------
      1          8           0       -1.701797   -1.239603   -0.689302
      2          6           0       -1.493609   -0.227111   -0.080266
      3          8           0       -2.287202    0.855359   -0.214972
      4          6           0       -0.386233   -0.003644    0.928262
      5          6           0        0.604460   -1.168217    0.921268
      6          6           0        1.467205   -1.177890   -0.340629
      7          6           0        2.166519    0.163116   -0.552988
      8          6           0        1.156982    1.308854   -0.580577
      9          6           0        0.329012    1.335888    0.701662
     10          1           0       -2.980124    0.617613   -0.847587
     11          1           0       -0.899706    0.038165    1.894960
     12          1           0        1.248236   -1.063965    1.799676
     13          1           0        0.066899   -2.111564    1.017842
     14          1           0        2.201981   -1.982366   -0.274689
     15          1           0        0.832128   -1.398273   -1.202354
     16          1           0        2.744955    0.144326   -1.478504
     17          1           0        2.877627    0.336362    0.262437
     18          1           0        1.665382    2.265431   -0.713978
     19          1           0        0.489953    1.184681   -1.441557
     20          1           0       -0.394561    2.149941    0.683867
     21          1           0        0.993205    1.507628    1.553694
 ---------------------------------------------------------------------
                    Distance matrix (angstroms):
                    1          2          3          4          5
     1  O    0.000000
     2  C    1.199753   0.000000
     3  O    2.226332   1.348954   0.000000
     4  C    2.423802   1.514380   2.378771   0.000000
     5  C    2.813868   2.508116   3.707777   1.528971   0.000000
     6  C    3.188723   3.120607   4.271471   2.534595   1.528662
     7  C    4.117046   3.711102   4.519855   2.956087   2.527035
     8  C    3.831328   3.104051   3.493097   2.526016   2.949017
     9  C    3.562600   2.525139   2.813486   1.535340   2.528763
    10  H    2.260183   1.874051   0.967918   3.204352   4.378045
    11  H    2.992399   2.079570   2.654197   1.095403   2.160081
    12  H    3.863749   3.428151   4.499104   2.134275   1.094037
    13  H    2.608245   2.681826   3.982996   2.157934   1.090047
    14  H    3.995383   4.095864   5.311216   3.472936   2.155278
    15  H    2.590207   2.835446   3.972908   2.822927   2.148145
    16  H    4.723527   4.478667   5.236858   3.952057   3.473240
    17  H    4.935646   4.420707   5.212747   3.348389   2.804479
    18  H    4.860429   4.073522   4.226137   3.471999   3.948357
    19  H    3.353626   2.789406   3.053777   2.792107   3.336493
    20  H    3.883744   2.728036   2.462914   2.167424   3.473410
    21  H    4.454362   3.444327   3.783478   2.139616   2.776910
                    6          7          8          9         10
     6  C    0.000000
     7  C    1.527231   0.000000
     8  C    2.517481   1.527299   0.000000
     9  C    2.949735   2.515149   1.526565   0.000000
    10  H    4.822818   5.175064   4.202946   3.723771   0.000000
    11  H    3.475473   3.925532   3.460188   2.148905   3.490768
    12  H    2.154491   2.807846   3.362172   2.794620   5.264479
    13  H    2.162879   3.471323   3.929693   3.471829   4.495840
    14  H    1.091524   2.163747   3.466658   3.933457   5.826003
    15  H    1.092914   2.154115   2.796547   3.369575   4.326999
    16  H    2.162327   1.091568   2.164268   3.465505   5.779151
    17  H    2.155444   1.095722   2.148728   2.772618   5.968626
    18  H    3.469167   2.167207   1.091470   2.157307   4.930911
    19  H    2.783668   2.155000   1.096190   2.154566   3.565922
    20  H    3.948446   3.469354   2.171067   1.089292   3.373206
    21  H    3.320413   2.760885   2.149755   1.093895   4.727115
                   11         12         13         14         15
    11  H    0.000000
    12  H    2.416076   0.000000
    13  H    2.514954   1.761898   0.000000
    14  H    4.290732   2.460910   2.499181   0.000000
    15  H    3.828310   3.049113   2.454308   1.754487   0.000000
    16  H    4.967402   3.800868   4.300322   2.503360   2.472808
    17  H    4.125809   2.641767   3.803048   2.474167   3.055918
    18  H    4.283334   4.192534   4.971160   4.304032   3.788872
    19  H    3.791833   4.017088   4.134350   3.784549   2.616477
    20  H    2.486265   3.777963   4.299408   4.973612   4.201478
    21  H    2.420516   2.595889   3.774087   4.121187   4.008242
                   16         17         18         19         20
    16  H    0.000000
    17  H    1.756518   0.000000
    18  H    2.499813   2.478756   0.000000
    19  H    2.483694   3.053560   1.754715   0.000000
    20  H    4.307540   3.764822   2.492122   2.496301   0.000000
    21  H    3.757851   2.567149   2.483631   3.054355   1.759278
                   21
    21  H    0.000000
 Stoichiometry    C7H12O2
 Framework group  C1[X(C7H12O2)]
 Deg. of freedom    57
 Full point group                 C1      NOp   1
 Largest Abelian subgroup         C1      NOp   1
 Largest concise Abelian subgroup C1      NOp   1
                         Standard orientation:                         
 ---------------------------------------------------------------------
 Center     Atomic      Atomic             Coordinates (Angstroms)
 Number     Number       Type             X           Y           Z
 ---------------------------------------------------------------------
      1          8           0       -1.701797   -1.239603   -0.689302
      2          6           0       -1.493609   -0.227111   -0.080266
      3          8           0       -2.287202    0.855359   -0.214972
      4          6           0       -0.386233   -0.003644    0.928262
      5          6           0        0.604460   -1.168217    0.921268
      6          6           0        1.467205   -1.177890   -0.340629
      7          6           0        2.166519    0.163116   -0.552988
      8          6           0        1.156982    1.308854   -0.580577
      9          6           0        0.329012    1.335888    0.701662
     10          1           0       -2.980124    0.617613   -0.847587
     11          1           0       -0.899706    0.038165    1.894960
     12          1           0        1.248236   -1.063965    1.799676
     13          1           0        0.066899   -2.111564    1.017842
     14          1           0        2.201981   -1.982366   -0.274689
     15          1           0        0.832128   -1.398273   -1.202354
     16          1           0        2.744955    0.144326   -1.478504
     17          1           0        2.877627    0.336362    0.262437
     18          1           0        1.665382    2.265431   -0.713978
     19          1           0        0.489953    1.184681   -1.441557
     20          1           0       -0.394561    2.149941    0.683867
     21          1           0        0.993205    1.507628    1.553694
 ---------------------------------------------------------------------
 Rotational constants (GHZ):           2.5310325           1.4006431           1.1569964
 Standard basis: def2TZVP (5D, 7F)
 There are   396 symmetry adapted cartesian basis functions of A   symmetry.
 There are   351 symmetry adapted basis functions of A   symmetry.
   351 basis functions,   555 primitive gaussians,   396 cartesian basis functions
    35 alpha electrons       35 beta electrons
       nuclear repulsion energy       488.4188804523 Hartrees.
 NAtoms=   21 NActive=   21 NUniq=   21 SFac= 1.00D+00 NAtFMM=   60 NAOKFM=F Big=F
 Integral buffers will be    131072 words long.
 Raffenetti 2 integral format.
 Two-electron integral symmetry is turned on.
 One-electron integrals computed using PRISM.
   1 Symmetry operations used in ECPInt.
 ECPInt:  NShTT=   10878 NPrTT=   32112 LenC2=   10694 LenP2D=   25391.
 LDataN:  DoStor=T MaxTD1= 6 Len=  172
 NBasis=   351 RedAO= T EigKep=  7.65D-05  NBF=   351
 NBsUse=   351 1.00D-06 EigRej= -1.00D+00 NBFU=   351
 ExpMin= 9.52D-02 ExpMax= 2.70D+04 ExpMxC= 9.22D+02 IAcc=3 IRadAn=         5 AccDes= 0.00D+00
 Harris functional with IExCor= 1009 and IRadAn=       5 diagonalized for initial guess.
 HarFok:  IExCor= 1009 AccDes= 0.00D+00 IRadAn=         5 IDoV= 1 UseB2=F ITyADJ=14
 ICtDFT=  3500011 ScaDFX=  1.000000  1.000000  1.000000  1.000000
 FoFCou: FMM=F IPFlag=           0 FMFlag=      100000 FMFlg1=           0
         NFxFlg=           0 DoJE=T BraDBF=F KetDBF=T FulRan=T
         wScrn=  0.000000 ICntrl=       500 IOpCl=  0 I1Cent=   200000004 NGrid=           0
         NMat0=    1 NMatS0=      1 NMatT0=    0 NMatD0=    1 NMtDS0=    0 NMtDT0=    0
 Petite list used in FoFCou.
 Requested convergence on RMS density matrix=1.00D-08 within 128 cycles.
 Requested convergence on MAX density matrix=1.00D-06.
 Requested convergence on             energy=1.00D-06.
 No special actions if energy rises.
 Integral accuracy reduced to 1.0D-05 until final iterations.
 Initial convergence to 1.0D-05 achieved.  Increase integral accuracy.
 SCF Done:  E(RM062X) =  -424.431628176     A.U. after   14 cycles
            NFock= 14  Conv=0.94D-08     -V/T= 2.0048
 DoSCS=F DFT=T ScalE2(SS,OS)=  1.000000  1.000000
 Range of M.O.s used for correlation:     1   351
 NBasis=   351 NAE=    35 NBE=    35 NFC=     0 NFV=     0
 NROrb=    351 NOA=    35 NOB=    35 NVA=   316 NVB=   316

 **** Warning!!: The largest alpha MO coefficient is  0.25962553D+02

          Differentiating once with respect to magnetic field using GIAOs.
          Electric field/nuclear overlap derivatives assumed to be zero.
 FoFCou: FMM=F IPFlag=           0 FMFlag=      100000 FMFlg1=           0
         NFxFlg=           0 DoJE=F BraDBF=F KetDBF=T FulRan=T
         wScrn=  0.000000 ICntrl=      6100 IOpCl=  0 I1Cent=           7 NGrid=          21
         NMat0=    1 NMatS0=      1 NMatT0=    0 NMatD0=    1 NMtDS0=    0 NMtDT0=    0
 Symmetry not used in FoFCou.
   1 Symmetry operations used in ECPInt.
 ECPInt:  NShTT=   10878 NPrTT=   32112 LenC2=   10879 LenP2D=   32112.
 LDataN:  DoStor=T MaxTD1= 7 Len=  274
 FoFJK:  IHMeth= 1 ICntrl=    6127 DoSepK=F KAlg= 0 I1Cent=           0 FoldK=F
 IRaf=         1 NMat=       1 IRICut=       1 DoRegI=T DoRafI=F ISym2E= 0 IDoP0=0 IntGTp=1.
          There are     3 degrees of freedom in the 1st order CPHF.  IDoFFX=0 NUNeed=     3.
      3 vectors produced by pass  0 Test12= 3.69D-13 3.33D-08 XBig12= 5.77D+00 4.17D-01.
 AX will form     3 AO Fock derivatives at one time.
      3 vectors produced by pass  1 Test12= 3.69D-13 3.33D-08 XBig12= 4.14D-02 1.06D-01.
      3 vectors produced by pass  2 Test12= 3.69D-13 3.33D-08 XBig12= 1.13D-03 1.28D-02.
      3 vectors produced by pass  3 Test12= 3.69D-13 3.33D-08 XBig12= 1.20D-05 7.23D-04.
      3 vectors produced by pass  4 Test12= 3.69D-13 3.33D-08 XBig12= 1.39D-07 8.21D-05.
      3 vectors produced by pass  5 Test12= 3.69D-13 3.33D-08 XBig12= 1.74D-09 5.80D-06.
      3 vectors produced by pass  6 Test12= 3.69D-13 3.33D-08 XBig12= 1.31D-11 5.47D-07.
      1 vectors produced by pass  7 Test12= 3.69D-13 3.33D-08 XBig12= 1.34D-13 6.56D-08.
 InvSVY:  IOpt=1 It=  1 EMax= 1.33D-15
 Solved reduced A of dimension    22 with     3 vectors.
 Calculating GIAO nuclear magnetic shielding tensors.
 SCF GIAO Magnetic shielding tensor (ppm):
      1  O    Isotropic =  -158.1231   Anisotropy =   651.3955
   XX=  -116.4132   YX=   190.1790   ZX=  -218.7625
   XY=   140.1447   YY=  -358.2094   ZY=  -179.3806
   XZ=  -249.9683   YZ=  -177.6672   ZZ=     0.2533
   Eigenvalues:  -453.1414  -297.3684   276.1406
      2  C    Isotropic =    -6.3576   Anisotropy =   122.7370
   XX=   -40.3498   YX=    67.9006   ZX=   -60.6903
   XY=    87.9316   YY=   -16.0903   ZY=    26.2541
   XZ=   -48.3368   YZ=     2.9611   ZZ=    37.3671
   Eigenvalues:  -123.5300    28.9900    75.4670
      3  O    Isotropic =   111.5659   Anisotropy =   227.9558
   XX=   146.0177   YX=   -75.5938   ZX=   -32.4989
   XY=  -168.6121   YY=   133.0607   ZY=  -123.2958
   XZ=   -87.3562   YZ=   -51.8400   ZZ=    55.6194
   Eigenvalues:   -70.4230   141.5843   263.5364
      4  C    Isotropic =   143.7398   Anisotropy =    28.1317
   XX=   150.0078   YX=    -5.5045   ZX=    15.7130
   XY=     3.6334   YY=   134.3098   ZY=    -1.0991
   XZ=    11.4460   YZ=    -6.4934   ZZ=   146.9018
   Eigenvalues:   132.1268   136.5983   162.4942
      5  C    Isotropic =   157.9928   Anisotropy =     8.4034
   XX=   161.8703   YX=     0.2155   ZX=     2.6556
   XY=    -1.7845   YY=   153.3594   ZY=     0.0000
   XZ=     3.0027   YZ=     5.4250   ZZ=   158.7488
   Eigenvalues:   151.8788   158.5046   163.5951
      6  C    Isotropic =   162.6946   Anisotropy =     8.0107
   XX=   162.8551   YX=     1.3957   ZX=    -1.4898
   XY=     2.2264   YY=   165.7319   ZY=     0.2900
   XZ=     4.9395   YZ=    -8.7897   ZZ=   159.4969
   Eigenvalues:   156.4657   163.5831   168.0351
      7  C    Isotropic =   158.1287   Anisotropy =     6.5773
   XX=   155.8568   YX=    -0.1738   ZX=     8.2831
   XY=    -1.3928   YY=   158.3645   ZY=     1.6633
   XZ=    -0.4368   YZ=     0.0319   ZZ=   160.1647
   Eigenvalues:   153.2935   158.5790   162.5135
      8  C    Isotropic =   160.9954   Anisotropy =     5.1142
   XX=   162.4481   YX=    -0.6426   ZX=     0.9307
   XY=    -1.9841   YY=   163.0069   ZY=    -0.1006
   XZ=     3.2592   YZ=     6.0057   ZZ=   157.5312
   Eigenvalues:   155.3930   163.1883   164.4048
      9  C    Isotropic =   155.5148   Anisotropy =    11.6367
   XX=   162.0597   YX=     0.3611   ZX=     3.5094
   XY=     4.5914   YY=   152.3664   ZY=    -3.2283
   XZ=     3.4328   YZ=    -5.6003   ZZ=   152.1184
   Eigenvalues:   146.6689   156.6029   163.2726
     10  H    Isotropic =    25.9298   Anisotropy =    11.7487
   XX=    31.1278   YX=     0.9917   ZX=     5.4965
   XY=    -3.1689   YY=    21.2460   ZY=    -3.1765
   XZ=     3.3080   YZ=    -0.0985   ZZ=    25.4156
   Eigenvalues:    20.6545    23.3726    33.7622
     11  H    Isotropic =    29.5149   Anisotropy =     7.9149
   XX=    29.2515   YX=    -0.7236   ZX=    -3.6346
   XY=    -0.7352   YY=    27.0950   ZY=    -0.9339
   XZ=    -3.9447   YZ=     0.1058   ZZ=    32.1983
   Eigenvalues:    26.0129    27.7403    34.7915
     12  H    Isotropic =    30.8699   Anisotropy =     8.9583
   XX=    29.5765   YX=    -1.6979   ZX=     2.5794
   XY=    -2.0175   YY=    28.3494   ZY=    -2.3275
   XZ=     3.4370   YZ=    -1.5450   ZZ=    34.6837
   Eigenvalues:    26.9981    28.7694    36.8421
     13  H    Isotropic =    29.8106   Anisotropy =     9.0511
   XX=    28.5641   YX=     2.6023   ZX=    -1.5824
   XY=     2.6536   YY=    33.7927   ZY=    -2.3266
   XZ=    -0.8568   YZ=    -2.9415   ZZ=    27.0751
   Eigenvalues:    26.1070    27.4801    35.8447
     14  H    Isotropic =    30.5917   Anisotropy =    10.5593
   XX=    31.0091   YX=    -4.6433   ZX=    -1.7181
   XY=    -4.6213   YY=    34.2314   ZY=     0.2851
   XZ=    -1.5658   YZ=     0.0291   ZZ=    26.5347
   Eigenvalues:    25.6744    28.4695    37.6313
     15  H    Isotropic =    30.3197   Anisotropy =     7.1915
   XX=    30.0566   YX=     0.8993   ZX=     1.0345
   XY=     2.4505   YY=    28.7620   ZY=     3.5616
   XZ=     0.9126   YZ=     3.8317   ZZ=    32.1403
   Eigenvalues:    26.1663    29.6786    35.1140
     16  H    Isotropic =    30.4087   Anisotropy =    10.2624
   XX=    31.5636   YX=    -0.1043   ZX=    -5.4944
   XY=    -0.1328   YY=    28.1792   ZY=    -0.3206
   XZ=    -5.9533   YZ=    -0.3751   ZZ=    31.4834
   Eigenvalues:    25.7545    28.2214    37.2504
     17  H    Isotropic =    30.9256   Anisotropy =     8.7827
   XX=    35.3501   YX=     1.1544   ZX=     3.8866
   XY=     1.0478   YY=    29.1086   ZY=     0.4941
   XZ=     2.5466   YZ=     0.3499   ZZ=    28.3181
   Eigenvalues:    27.0687    28.9274    36.7807
     18  H    Isotropic =    30.5213   Anisotropy =    10.5932
   XX=    28.9435   YX=     2.9108   ZX=    -2.2136
   XY=     2.9650   YY=    35.5679   ZY=    -2.5143
   XZ=    -2.2590   YZ=    -2.3263   ZZ=    27.0527
   Eigenvalues:    25.5482    28.4324    37.5835
     19  H    Isotropic =    30.9048   Anisotropy =     6.9947
   XX=    30.6669   YX=    -0.3764   ZX=     1.7785
   XY=    -1.3837   YY=    28.0261   ZY=    -2.3627
   XZ=     1.8209   YZ=    -2.1056   ZZ=    34.0214
   Eigenvalues:    27.2601    29.8864    35.5679
     20  H    Isotropic =    29.6529   Anisotropy =     8.7312
   XX=    30.7540   YX=    -3.2309   ZX=    -1.0800
   XY=    -3.7477   YY=    32.4357   ZY=     1.4669
   XZ=    -1.0599   YZ=     1.1168   ZZ=    25.7691
   Eigenvalues:    25.4787    28.0063    35.4738
     21  H    Isotropic =    30.6383   Anisotropy =     8.2721
   XX=    28.9653   YX=     1.9010   ZX=     2.0083
   XY=     2.0249   YY=    30.0996   ZY=     3.5549
   XZ=     2.2318   YZ=     2.9746   ZZ=    32.8500
   Eigenvalues:    27.4482    28.3137    36.1530
 End of Minotr F.D. properties file   721 does not exist.
 End of Minotr F.D. properties file   722 does not exist.
 End of Minotr F.D. properties file   788 does not exist.

 **********************************************************************

            Population analysis using the SCF Density.

 **********************************************************************

 Orbital symmetries:
       Occupied  (A) (A) (A) (A) (A) (A) (A) (A) (A) (A) (A) (A)
                 (A) (A) (A) (A) (A) (A) (A) (A) (A) (A) (A) (A)
                 (A) (A) (A) (A) (A) (A) (A) (A) (A) (A) (A)
       Virtual   (A) (A) (A) (A) (A) (A) (A) (A) (A) (A) (A) (A)
                 (A) (A) (A) (A) (A) (A) (A) (A) (A) (A) (A) (A)
                 (A) (A) (A) (A) (A) (A) (A) (A) (A) (A) (A) (A)
                 (A) (A) (A) (A) (A) (A) (A) (A) (A) (A) (A) (A)
                 (A) (A) (A) (A) (A) (A) (A) (A) (A) (A) (A) (A)
                 (A) (A) (A) (A) (A) (A) (A) (A) (A) (A) (A) (A)
                 (A) (A) (A) (A) (A) (A) (A) (A) (A) (A) (A) (A)
                 (A) (A) (A) (A) (A) (A) (A) (A) (A) (A) (A) (A)
                 (A) (A) (A) (A) (A) (A) (A) (A) (A) (A) (A) (A)
                 (A) (A) (A) (A) (A) (A) (A) (A) (A) (A) (A) (A)
                 (A) (A) (A) (A) (A) (A) (A) (A) (A) (A) (A) (A)
                 (A) (A) (A) (A) (A) (A) (A) (A) (A) (A) (A) (A)
                 (A) (A) (A) (A) (A) (A) (A) (A) (A) (A) (A) (A)
                 (A) (A) (A) (A) (A) (A) (A) (A) (A) (A) (A) (A)
                 (A) (A) (A) (A) (A) (A) (A) (A) (A) (A) (A) (A)
                 (A) (A) (A) (A) (A) (A) (A) (A) (A) (A) (A) (A)
                 (A) (A) (A) (A) (A) (A) (A) (A) (A) (A) (A) (A)
                 (A) (A) (A) (A) (A) (A) (A) (A) (A) (A) (A) (A)
                 (A) (A) (A) (A) (A) (A) (A) (A) (A) (A) (A) (A)
                 (A) (A) (A) (A) (A) (A) (A) (A) (A) (A) (A) (A)
                 (A) (A) (A) (A) (A) (A) (A) (A) (A) (A) (A) (A)
                 (A) (A) (A) (A) (A) (A) (A) (A) (A) (A) (A) (A)
                 (A) (A) (A) (A) (A) (A) (A) (A) (A) (A) (A) (A)
                 (A) (A) (A) (A) (A) (A) (A) (A) (A) (A) (A) (A)
                 (A) (A) (A) (A) (A) (A) (A) (A) (A) (A) (A) (A)
                 (A) (A) (A) (A) (A) (A) (A) (A) (A) (A) (A) (A)
                 (A) (A) (A) (A)
 The electronic state is 1-A.
 Alpha  occ. eigenvalues --  -19.67289 -19.61873 -10.67358 -10.55437 -10.53610
 Alpha  occ. eigenvalues --  -10.53078 -10.53016 -10.52667 -10.52346  -1.24040
 Alpha  occ. eigenvalues --   -1.14331  -0.94619  -0.85966  -0.84133  -0.75011
 Alpha  occ. eigenvalues --   -0.69838  -0.67929  -0.63443  -0.58319  -0.57061
 Alpha  occ. eigenvalues --   -0.56101  -0.53419  -0.50966  -0.50411  -0.48945
 Alpha  occ. eigenvalues --   -0.44725  -0.44536  -0.44211  -0.43225  -0.40699
 Alpha  occ. eigenvalues --   -0.40197  -0.38360  -0.36126  -0.35947  -0.35014
 Alpha virt. eigenvalues --    0.04202   0.06161   0.07306   0.09152   0.10363
 Alpha virt. eigenvalues --    0.10803   0.12601   0.12956   0.13853   0.14945
 Alpha virt. eigenvalues --    0.15043   0.16388   0.17604   0.19129   0.20247
 Alpha virt. eigenvalues --    0.22183   0.23480   0.23785   0.24515   0.25299
 Alpha virt. eigenvalues --    0.26359   0.26916   0.27270   0.27755   0.27948
 Alpha virt. eigenvalues --    0.29688   0.31944   0.33391   0.35119   0.36333
 Alpha virt. eigenvalues --    0.37800   0.40342   0.41488   0.42412   0.42811
 Alpha virt. eigenvalues --    0.43745   0.43951   0.44555   0.44782   0.45280
 Alpha virt. eigenvalues --    0.46167   0.47283   0.47509   0.48120   0.48321
 Alpha virt. eigenvalues --    0.48754   0.50126   0.51009   0.52294   0.52869
 Alpha virt. eigenvalues --    0.52905   0.53849   0.54092   0.56111   0.56629
 Alpha virt. eigenvalues --    0.58269   0.62262   0.62326   0.63485   0.65946
 Alpha virt. eigenvalues --    0.68476   0.70072   0.73976   0.74707   0.76035
 Alpha virt. eigenvalues --    0.77576   0.78564   0.80338   0.82987   0.84249
 Alpha virt. eigenvalues --    0.84503   0.87095   0.87821   0.88276   0.91819
 Alpha virt. eigenvalues --    0.93616   0.95375   0.96207   0.98397   0.98877
 Alpha virt. eigenvalues --    1.02906   1.05565   1.07249   1.07930   1.10288
 Alpha virt. eigenvalues --    1.11110   1.13996   1.14966   1.17025   1.17365
 Alpha virt. eigenvalues --    1.18940   1.19446   1.20779   1.21949   1.24108
 Alpha virt. eigenvalues --    1.26872   1.28809   1.29192   1.31000   1.32767
 Alpha virt. eigenvalues --    1.33986   1.34890   1.42695   1.44608   1.46204
 Alpha virt. eigenvalues --    1.50154   1.53291   1.53886   1.55963   1.56355
 Alpha virt. eigenvalues --    1.59411   1.61684   1.62631   1.64137   1.64941
 Alpha virt. eigenvalues --    1.65307   1.66797   1.69071   1.69262   1.70838
 Alpha virt. eigenvalues --    1.72752   1.73212   1.74229   1.79069   1.81511
 Alpha virt. eigenvalues --    1.83180   1.83688   1.85793   1.87051   1.89428
 Alpha virt. eigenvalues --    1.90591   1.92282   1.93205   1.95204   1.96552
 Alpha virt. eigenvalues --    1.99137   2.00698   2.02390   2.03095   2.08222
 Alpha virt. eigenvalues --    2.08835   2.10769   2.13410   2.16545   2.16853
 Alpha virt. eigenvalues --    2.18803   2.20012   2.20756   2.22996   2.23755
 Alpha virt. eigenvalues --    2.26764   2.29017   2.30329   2.31740   2.34798
 Alpha virt. eigenvalues --    2.36259   2.38002   2.43305   2.43619   2.45067
 Alpha virt. eigenvalues --    2.48400   2.48756   2.51373   2.52929   2.55422
 Alpha virt. eigenvalues --    2.56840   2.57078   2.58725   2.59767   2.60501
 Alpha virt. eigenvalues --    2.61363   2.62525   2.64488   2.65634   2.66077
 Alpha virt. eigenvalues --    2.67395   2.69498   2.70292   2.72149   2.73028
 Alpha virt. eigenvalues --    2.74159   2.77155   2.77291   2.79571   2.82297
 Alpha virt. eigenvalues --    2.82404   2.84049   2.84699   2.90075   2.90708
 Alpha virt. eigenvalues --    2.91420   2.93614   2.96738   2.97018   2.98594
 Alpha virt. eigenvalues --    3.01778   3.02740   3.04311   3.04830   3.07992
 Alpha virt. eigenvalues --    3.09568   3.11652   3.13200   3.13670   3.16771
 Alpha virt. eigenvalues --    3.18816   3.19202   3.19930   3.23102   3.24686
 Alpha virt. eigenvalues --    3.25398   3.25775   3.27508   3.30955   3.31393
 Alpha virt. eigenvalues --    3.33890   3.35055   3.36946   3.37326   3.38890
 Alpha virt. eigenvalues --    3.40324   3.41340   3.42591   3.44472   3.45874
 Alpha virt. eigenvalues --    3.47386   3.48568   3.50260   3.50979   3.52612
 Alpha virt. eigenvalues --    3.53882   3.56535   3.57876   3.58502   3.59616
 Alpha virt. eigenvalues --    3.62191   3.63224   3.64831   3.67433   3.69884
 Alpha virt. eigenvalues --    3.74597   3.80037   3.84757   3.85622   3.89052
 Alpha virt. eigenvalues --    3.90666   3.95120   3.97754   3.99166   3.99658
 Alpha virt. eigenvalues --    4.01320   4.05361   4.05945   4.08345   4.09630
 Alpha virt. eigenvalues --    4.10755   4.15419   4.18306   4.20342   4.22322
 Alpha virt. eigenvalues --    4.23590   4.25085   4.31135   4.32407   4.34571
 Alpha virt. eigenvalues --    4.39064   4.45203   4.51061   4.52823   4.53651
 Alpha virt. eigenvalues --    4.57101   4.59876   4.63303   4.70252   4.74493
 Alpha virt. eigenvalues --    4.77636   4.79621   4.80963   4.86437   4.93618
 Alpha virt. eigenvalues --    4.96169   4.99351   5.00996   5.17504   5.22448
 Alpha virt. eigenvalues --    5.23247   5.40561   5.42408   5.53707   5.62841
 Alpha virt. eigenvalues --    5.76733   5.87989   5.89513   6.19708   6.22788
 Alpha virt. eigenvalues --    6.34808   6.38240   6.47864   6.51622   6.68290
 Alpha virt. eigenvalues --    6.70852   6.77901   6.83791   6.91537   7.09960
 Alpha virt. eigenvalues --    7.13516   7.30130  22.54966  22.59898  22.64661
 Alpha virt. eigenvalues --   22.67898  22.73625  22.79544  23.40283  44.00425
 Alpha virt. eigenvalues --   44.07237
          Condensed to atoms (all electrons):
               1          2          3          4          5          6
     1  O    7.830110   0.666317  -0.091352  -0.121369   0.028874  -0.011405
     2  C    0.666317   4.543935   0.371984   0.219521  -0.043953   0.013475
     3  O   -0.091352   0.371984   7.958311  -0.139260   0.010670  -0.000657
     4  C   -0.121369   0.219521  -0.139260   5.539507   0.195689  -0.017795
     5  C    0.028874  -0.043953   0.010670   0.195689   5.213914   0.204991
     6  C   -0.011405   0.013475  -0.000657  -0.017795   0.204991   5.256479
     7  C   -0.000712  -0.005643   0.000440  -0.001404  -0.032587   0.226080
     8  C    0.000218   0.008057  -0.002641  -0.026680  -0.003183  -0.051080
     9  C    0.004834  -0.020834   0.005684   0.187895  -0.019222  -0.007193
    10  H    0.006095  -0.027702   0.291780   0.021192  -0.001454   0.000177
    11  H    0.001735  -0.021433   0.002962   0.422306  -0.040502   0.008223
    12  H    0.000360   0.010174  -0.000120  -0.064299   0.446443  -0.048512
    13  H    0.002549  -0.008855   0.000166  -0.028755   0.429977  -0.042298
    14  H    0.000466  -0.000145   0.000007   0.007486  -0.043863   0.430853
    15  H    0.004585  -0.001318  -0.000102  -0.001395  -0.052283   0.440505
    16  H    0.000038   0.000003   0.000000  -0.001927   0.008927  -0.043956
    17  H   -0.000043   0.000310  -0.000006   0.000896  -0.002831  -0.050619
    18  H   -0.000035  -0.000841  -0.000200   0.009298  -0.001568   0.008560
    19  H   -0.001246   0.004188   0.001426  -0.004046   0.000634  -0.003543
    20  H    0.000110  -0.011996   0.004272  -0.027978   0.004754  -0.001455
    21  H   -0.000402   0.006140   0.000032  -0.055207  -0.002313   0.000856
               7          8          9         10         11         12
     1  O   -0.000712   0.000218   0.004834   0.006095   0.001735   0.000360
     2  C   -0.005643   0.008057  -0.020834  -0.027702  -0.021433   0.010174
     3  O    0.000440  -0.002641   0.005684   0.291780   0.002962  -0.000120
     4  C   -0.001404  -0.026680   0.187895   0.021192   0.422306  -0.064299
     5  C   -0.032587  -0.003183  -0.019222  -0.001454  -0.040502   0.446443
     6  C    0.226080  -0.051080  -0.007193   0.000177   0.008223  -0.048512
     7  C    5.209662   0.233786  -0.035823   0.000021  -0.001946  -0.002732
     8  C    0.233786   5.217307   0.220389   0.000175   0.007468   0.000153
     9  C   -0.035823   0.220389   5.247899  -0.001931  -0.043805  -0.002838
    10  H    0.000021   0.000175  -0.001931   0.378534  -0.000855   0.000033
    11  H   -0.001946   0.007468  -0.043805  -0.000855   0.525093  -0.004967
    12  H   -0.002732   0.000153  -0.002838   0.000033  -0.004967   0.522914
    13  H    0.008975  -0.001897   0.006439  -0.000019  -0.004261  -0.016081
    14  H   -0.047459   0.010457  -0.001590  -0.000004  -0.000253  -0.003372
    15  H   -0.050720  -0.002190   0.000898   0.000008  -0.000091   0.005482
    16  H    0.432480  -0.043789   0.009097  -0.000002   0.000142  -0.000177
    17  H    0.430045  -0.054684  -0.002569   0.000001  -0.000209   0.002079
    18  H   -0.044325   0.434917  -0.047267   0.000016  -0.000415  -0.000084
    19  H   -0.049324   0.433243  -0.054068  -0.000029  -0.000147   0.000023
    20  H    0.008320  -0.047168   0.434510  -0.000148  -0.004167  -0.000157
    21  H   -0.003924  -0.046368   0.435213   0.000090  -0.006178   0.001362
              13         14         15         16         17         18
     1  O    0.002549   0.000466   0.004585   0.000038  -0.000043  -0.000035
     2  C   -0.008855  -0.000145  -0.001318   0.000003   0.000310  -0.000841
     3  O    0.000166   0.000007  -0.000102   0.000000  -0.000006  -0.000200
     4  C   -0.028755   0.007486  -0.001395  -0.001927   0.000896   0.009298
     5  C    0.429977  -0.043863  -0.052283   0.008927  -0.002831  -0.001568
     6  C   -0.042298   0.430853   0.440505  -0.043956  -0.050619   0.008560
     7  C    0.008975  -0.047459  -0.050720   0.432480   0.430045  -0.044325
     8  C   -0.001897   0.010457  -0.002190  -0.043789  -0.054684   0.434917
     9  C    0.006439  -0.001590   0.000898   0.009097  -0.002569  -0.047267
    10  H   -0.000019  -0.000004   0.000008  -0.000002   0.000001   0.000016
    11  H   -0.004261  -0.000253  -0.000091   0.000142  -0.000209  -0.000415
    12  H   -0.016081  -0.003372   0.005482  -0.000177   0.002079  -0.000084
    13  H    0.498956  -0.006279  -0.001854  -0.000305  -0.000139   0.000135
    14  H   -0.006279   0.537685  -0.014515  -0.005916  -0.003465  -0.000327
    15  H   -0.001854  -0.014515   0.491001  -0.002952   0.006187  -0.000161
    16  H   -0.000305  -0.005916  -0.002952   0.535091  -0.018343  -0.006242
    17  H   -0.000139  -0.003465   0.006187  -0.018343   0.546556  -0.002684
    18  H    0.000135  -0.000327  -0.000161  -0.006242  -0.002684   0.534089
    19  H   -0.000134  -0.000317   0.001813  -0.002839   0.006946  -0.016913
    20  H   -0.000327   0.000132  -0.000109  -0.000299  -0.000129  -0.006091
    21  H   -0.000161  -0.000167   0.000014  -0.000133   0.002438  -0.002729
              19         20         21
     1  O   -0.001246   0.000110  -0.000402
     2  C    0.004188  -0.011996   0.006140
     3  O    0.001426   0.004272   0.000032
     4  C   -0.004046  -0.027978  -0.055207
     5  C    0.000634   0.004754  -0.002313
     6  C   -0.003543  -0.001455   0.000856
     7  C   -0.049324   0.008320  -0.003924
     8  C    0.433243  -0.047168  -0.046368
     9  C   -0.054068   0.434510   0.435213
    10  H   -0.000029  -0.000148   0.000090
    11  H   -0.000147  -0.004167  -0.006178
    12  H    0.000023  -0.000157   0.001362
    13  H   -0.000134  -0.000327  -0.000161
    14  H   -0.000317   0.000132  -0.000167
    15  H    0.001813  -0.000109   0.000014
    16  H   -0.002839  -0.000299  -0.000133
    17  H    0.006946  -0.000129   0.002438
    18  H   -0.016913  -0.006091  -0.002729
    19  H    0.524176  -0.001084   0.006110
    20  H   -0.001084   0.491571  -0.012852
    21  H    0.006110  -0.012852   0.523016
 Mulliken charges:
               1
     1  O   -0.319727
     2  C    0.298616
     3  O   -0.413396
     4  C   -0.113675
     5  C   -0.301114
     6  C   -0.311686
     7  C   -0.273211
     8  C   -0.286491
     9  C   -0.315721
    10  H    0.334023
    11  H    0.161298
    12  H    0.154315
    13  H    0.164169
    14  H    0.140586
    15  H    0.177197
    16  H    0.141104
    17  H    0.140262
    18  H    0.142866
    19  H    0.155132
    20  H    0.170290
    21  H    0.155163
 Sum of Mulliken charges =  -0.00000
 Mulliken charges with hydrogens summed into heavy atoms:
               1
     1  O   -0.319727
     2  C    0.298616
     3  O   -0.079373
     4  C    0.047623
     5  C    0.017370
     6  C    0.006097
     7  C    0.008155
     8  C    0.011507
     9  C    0.009732
 Electronic spatial extent (au):  <R**2>=           1156.6221
 Charge=             -0.0000 electrons
 Dipole moment (field-independent basis, Debye):
    X=              0.3770    Y=              1.3686    Z=              0.6916  Tot=              1.5790
 Quadrupole moment (field-independent basis, Debye-Ang):
   XX=            -52.4104   YY=            -59.2800   ZZ=            -54.1320
   XY=             -2.7314   XZ=              0.9758   YZ=             -2.4692
 Traceless Quadrupole moment (field-independent basis, Debye-Ang):
   XX=              2.8637   YY=             -4.0058   ZZ=              1.1421
   XY=             -2.7314   XZ=              0.9758   YZ=             -2.4692
 Octapole moment (field-independent basis, Debye-Ang**2):
  XXX=            -35.2676  YYY=              2.2811  ZZZ=             -2.3569  XYY=              2.9939
  XXY=              6.3017  XXZ=             -8.1103  XZZ=             -7.6154  YZZ=              1.9321
  YYZ=              1.5825  XYZ=              5.8885
 Hexadecapole moment (field-independent basis, Debye-Ang**3):
 XXXX=           -745.1439 YYYY=           -446.2358 ZZZZ=           -241.0668 XXXY=            -22.3888
 XXXZ=             40.1521 YYYX=             -5.6656 YYYZ=             -2.6085 ZZZX=              8.1109
 ZZZY=              0.9592 XXYY=           -222.1546 XXZZ=           -165.5935 YYZZ=           -119.0148
 XXYZ=            -13.9394 YYXZ=             -1.2657 ZZXY=             -4.8599
 N-N= 4.884188804523D+02 E-N=-1.966921270773D+03  KE= 4.224183167141D+02
 Unable to Open any file for archive entry.
 1\1\GINC-NODE04\SP\RM062X\def2TZVP\C7H12O2\SVSS\29-Jan-2024\0\\# nmr=g
 iao m062x/def2tzvp\\Ac7_rdkit_conf_1_SP_NMR\\0,1\O,0,-1.701797,-1.2396
 03,-0.689302\C,0,-1.493609,-0.227111,-0.080266\O,0,-2.287202,0.855359,
 -0.214972\C,0,-0.386233,-0.003644,0.928262\C,0,0.60446,-1.168217,0.921
 268\C,0,1.467205,-1.17789,-0.340629\C,0,2.166519,0.163116,-0.552988\C,
 0,1.156982,1.308854,-0.580577\C,0,0.329012,1.335888,0.701662\H,0,-2.98
 0124,0.617613,-0.847587\H,0,-0.899706,0.038165,1.89496\H,0,1.248236,-1
 .063965,1.799676\H,0,0.066899,-2.111564,1.017842\H,0,2.201981,-1.98236
 6,-0.274689\H,0,0.832128,-1.398273,-1.202354\H,0,2.744955,0.144326,-1.
 478504\H,0,2.877627,0.336362,0.262437\H,0,1.665382,2.265431,-0.713978\
 H,0,0.489953,1.184681,-1.441557\H,0,-0.394561,2.149941,0.683867\H,0,0.
 993205,1.507628,1.553694\\Version=AS64L-G16RevC.01\State=1-A\HF=-424.4
 316282\RMSD=9.388e-09\Dipole=0.1483267,0.538437,0.2720862\Quadrupole=2
 .1291093,-2.978251,0.8491417,-2.0307168,0.7254927,-1.835795\PG=C01 [X(
 C7H12O2)]\\@
 The archive entry for this job was punched.


 FROM THE ASHES OF OUR DESPAIR GROW THE FLOWERS OF TOMORROW.
 Job cpu time:       0 days  0 hours 21 minutes 22.2 seconds.
 Elapsed time:       0 days  0 hours  2 minutes 46.9 seconds.
 File lengths (MBytes):  RWF=     76 Int=      0 D2E=      0 Chk=     11 Scr=      1
 Normal termination of Gaussian 16 at Mon Jan 29 12:52:18 2024.
