
                                 *****************
                                 * O   R   C   A *
                                 *****************

                                            #,                                       
                                            ###                                      
                                            ####                                     
                                            #####                                    
                                            ######                                   
                                           ########,                                 
                                     ,,################,,,,,                         
                               ,,#################################,,                 
                          ,,##########################################,,             
                       ,#########################################, ''#####,          
                    ,#############################################,,   '####,        
                  ,##################################################,,,,####,       
                ,###########''''           ''''###############################       
              ,#####''   ,,,,##########,,,,          '''####'''          '####       
            ,##' ,,,,###########################,,,                        '##       
           ' ,,###''''                  '''############,,,                           
         ,,##''                                '''############,,,,        ,,,,,,###''
      ,#''                                            '''#######################'''  
     '                                                          ''''####''''         
             ,#######,   #######,   ,#######,      ##                                
            ,#'     '#,  ##    ##  ,#'     '#,    #''#        ######   ,####,        
            ##       ##  ##   ,#'  ##            #'  '#       #        #'  '#        
            ##       ##  #######   ##           ,######,      #####,   #    #        
            '#,     ,#'  ##    ##  '#,     ,#' ,#      #,         ##   #,  ,#        
             '#######'   ##     ##  '#######'  #'      '#     #####' # '####'        



                  #######################################################
                  #                        -***-                        #
                  #          Department of theory and spectroscopy      #
                  #    Directorship and core code : Frank Neese         #
                  #        Max Planck Institute fuer Kohlenforschung    #
                  #                Kaiser Wilhelm Platz 1               #
                  #                 D-45470 Muelheim/Ruhr               #
                  #                      Germany                        #
                  #                                                     #
                  #                  All rights reserved                #
                  #                        -***-                        #
                  #######################################################


                         Program Version 5.0.4 -  RELEASE  -


 With contributions from (in alphabetic order):
   Daniel Aravena         : Magnetic Suceptibility
   Michael Atanasov       : Ab Initio Ligand Field Theory (pilot matlab implementation)
   Alexander A. Auer      : GIAO ZORA, VPT2 properties, NMR spectrum
   Ute Becker             : Parallelization
   Giovanni Bistoni       : ED, misc. LED, open-shell LED, HFLD
   Martin Brehm           : Molecular dynamics
   Dmytro Bykov           : SCF Hessian
   Vijay G. Chilkuri      : MRCI spin determinant printing, contributions to CSF-ICE
   Dipayan Datta          : RHF DLPNO-CCSD density
   Achintya Kumar Dutta   : EOM-CC, STEOM-CC
   Dmitry Ganyushin       : Spin-Orbit,Spin-Spin,Magnetic field MRCI
   Miquel Garcia          : C-PCM and meta-GGA Hessian, CC/C-PCM, Gaussian charge scheme
   Yang Guo               : DLPNO-NEVPT2, F12-NEVPT2, CIM, IAO-localization
   Andreas Hansen         : Spin unrestricted coupled pair/coupled cluster methods
   Benjamin Helmich-Paris : MC-RPA, TRAH-SCF, COSX integrals
   Lee Huntington         : MR-EOM, pCC
   Robert Izsak           : Overlap fitted RIJCOSX, COSX-SCS-MP3, EOM
   Marcus Kettner         : VPT2
   Christian Kollmar      : KDIIS, OOCD, Brueckner-CCSD(T), CCSD density, CASPT2, CASPT2-K
   Simone Kossmann        : Meta GGA functionals, TD-DFT gradient, OOMP2, MP2 Hessian
   Martin Krupicka        : Initial AUTO-CI
   Lucas Lang             : DCDCAS
   Marvin Lechner         : AUTO-CI (C++ implementation), FIC-MRCC
   Dagmar Lenk            : GEPOL surface, SMD
   Dimitrios Liakos       : Extrapolation schemes; Compound Job, initial MDCI parallelization
   Dimitrios Manganas     : Further ROCIS development; embedding schemes
   Dimitrios Pantazis     : SARC Basis sets
   Anastasios Papadopoulos: AUTO-CI, single reference methods and gradients
   Taras Petrenko         : DFT Hessian,TD-DFT gradient, ASA, ECA, R-Raman, ABS, FL, XAS/XES, NRVS
   Peter Pinski           : DLPNO-MP2, DLPNO-MP2 Gradient
   Christoph Reimann      : Effective Core Potentials
   Marius Retegan         : Local ZFS, SOC
   Christoph Riplinger    : Optimizer, TS searches, QM/MM, DLPNO-CCSD(T), (RO)-DLPNO pert. Triples
   Tobias Risthaus        : Range-separated hybrids, TD-DFT gradient, RPA, STAB
   Michael Roemelt        : Original ROCIS implementation
   Masaaki Saitow         : Open-shell DLPNO-CCSD energy and density
   Barbara Sandhoefer     : DKH picture change effects
   Avijit Sen             : IP-ROCIS
   Kantharuban Sivalingam : CASSCF convergence, NEVPT2, FIC-MRCI
   Bernardo de Souza      : ESD, SOC TD-DFT
   Georgi Stoychev        : AutoAux, RI-MP2 NMR, DLPNO-MP2 response
   Willem Van den Heuvel  : Paramagnetic NMR
   Boris Wezisla          : Elementary symmetry handling
   Frank Wennmohs         : Technical directorship


 We gratefully acknowledge several colleagues who have allowed us to
 interface, adapt or use parts of their codes:
   Stefan Grimme, W. Hujo, H. Kruse, P. Pracht,  : VdW corrections, initial TS optimization,
                  C. Bannwarth, S. Ehlert          DFT functionals, gCP, sTDA/sTD-DF
   Ed Valeev, F. Pavosevic, A. Kumar             : LibInt (2-el integral package), F12 methods
   Garnet Chan, S. Sharma, J. Yang, R. Olivares  : DMRG
   Ulf Ekstrom                                   : XCFun DFT Library
   Mihaly Kallay                                 : mrcc  (arbitrary order and MRCC methods)
   Jiri Pittner, Ondrej Demel                    : Mk-CCSD
   Frank Weinhold                                : gennbo (NPA and NBO analysis)
   Christopher J. Cramer and Donald G. Truhlar   : smd solvation model
   Lars Goerigk                                  : TD-DFT with DH, B97 family of functionals
   V. Asgeirsson, H. Jonsson                     : NEB implementation
   FAccTs GmbH                                   : IRC, NEB, NEB-TS, DLPNO-Multilevel, CI-OPT
                                                   MM, QMMM, 2- and 3-layer-ONIOM, Crystal-QMMM,
                                                   LR-CPCM, SF, NACMEs, symmetry and pop. for TD-DFT,
                                                   nearIR, NL-DFT gradient (VV10), updates on ESD,
                                                   ML-optimized integration grids
   S Lehtola, MJT Oliveira, MAL Marques          : LibXC Library
   Liviu Ungur et al                             : ANISO software


 Your calculation uses the libint2 library for the computation of 2-el integrals
 For citations please refer to: http://libint.valeyev.net

 Your ORCA version has been built with support for libXC version: 5.1.0
 For citations please refer to: https://tddft.org/programs/libxc/

 This ORCA versions uses:
   CBLAS   interface :  Fast vector & matrix operations
   LAPACKE interface :  Fast linear algebra routines
   SCALAPACK package :  Parallel linear algebra routines
   Shared memory     :  Shared parallel matrices
   BLAS/LAPACK       :  OpenBLAS 0.3.15  USE64BITINT DYNAMIC_ARCH NO_AFFINITY SkylakeX SINGLE_THREADED
        Core in use  :  SkylakeX
   Copyright (c) 2011-2014, The OpenBLAS Project


Your calculation utilizes the DFT-NL dispersion correction.
Cite in your paper:
Vydrov, O. A.; Van Voorhis, T. J. Chem. Phys. 2010, 133, 244103
Hujo, W.; Grimme, S. J. Chem. Theory Comput. 2011, 7, 3866 
   

================================================================================

----- Orbital basis set information -----
Your calculation utilizes the basis: def2-TZVPP
   F. Weigend and R. Ahlrichs, Phys. Chem. Chem. Phys. 7, 3297 (2005).

----- AuxJ basis set information -----
Your calculation utilizes the auxiliary basis: def2/J
   F. Weigend, Phys. Chem. Chem. Phys. 8, 1057 (2006).

================================================================================
                                        WARNINGS
                       Please study these warnings very carefully!
================================================================================

Using LibXC functional ID 531 : wB97M-V exchange-correlation functional
[ 1]  N. Mardirossian and M. Head-Gordon, J. Chem. Phys. 144, 214110 (2016)
Using LibXC functional ID 531 : wB97M-V exchange-correlation functional
[ 1]  N. Mardirossian and M. Head-Gordon, J. Chem. Phys. 144, 214110 (2016)

WARNING: B97M-V or wB97M-V functional requested.
  ===> : libXC variant has now been activated.
         Any manually given DFX/HFX/RangeSep scaling parameters are IGNORED!

Your calculation utilizes LibXC
 by S Lehtola, C Steigemann, MJT Oliveira & MAL Marques
Please cite in your paper:
 S Lehtola, C Steigemann, MJT Oliveira & MAL Marques, SoftwareX, 7, (2018), 1.
   


INFO   : the flag for use of the SHARK integral package has been found!

================================================================================
                                       INPUT FILE
================================================================================
NAME = arbr_04_r2scan3c_wB97MV_nbo.inp
|  1> %PAL NPROCS 16 END
|  2> %maxcore 4000
|  3> # arbr_04_r2scan3c.out
|  4> ! wB97m-v def2-TZVPP def2/J RIJCOSX 
|  5> %nbo
|  6> NBOKEYLIST = "$NBO NBO NPA bndidx $END"
|  7> end
|  8> * xyz 0 1
|  9>    C        4.46238        -1.02125        -0.00009
| 10>    N        3.08700        -0.60025         0.00002
| 11>    C        1.98340        -1.53653         0.00003
| 12>    C        0.78340        -0.62772         0.00005
| 13>    C       -0.56530        -0.93404         0.00004
| 14>    C       -1.45609         0.13142         0.00001
| 15>   Br       -3.31452        -0.23619        -0.00001
| 16>    C       -1.03470         1.45847        -0.00002
| 17>    C        0.32245         1.74555        -0.00001
| 18>    C        1.21314         0.68811         0.00003
| 19>    C        2.70179         0.71357         0.00010
| 20>    O        3.43354         1.67745        -0.00002
| 21>    H        4.68923        -1.61602        -0.88806
| 22>    H        4.68932        -1.61612         0.88780
| 23>    H        5.08248        -0.12710        -0.00007
| 24>    H        2.00983        -2.18050        -0.88521
| 25>    H        2.00986        -2.18052         0.88525
| 26>    H       -0.92771        -1.95320         0.00004
| 27>    H       -1.76925         2.25127        -0.00004
| 28>    H        0.68431         2.76563        -0.00002
| 29> *
| 30> 
| 31>                          ****END OF INPUT****
================================================================================

                       ****************************
                       * Single Point Calculation *
                       ****************************

---------------------------------
CARTESIAN COORDINATES (ANGSTROEM)
---------------------------------
  C      4.462380   -1.021250   -0.000090
  N      3.087000   -0.600250    0.000020
  C      1.983400   -1.536530    0.000030
  C      0.783400   -0.627720    0.000050
  C     -0.565300   -0.934040    0.000040
  C     -1.456090    0.131420    0.000010
  Br    -3.314520   -0.236190   -0.000010
  C     -1.034700    1.458470   -0.000020
  C      0.322450    1.745550   -0.000010
  C      1.213140    0.688110    0.000030
  C      2.701790    0.713570    0.000100
  O      3.433540    1.677450   -0.000020
  H      4.689230   -1.616020   -0.888060
  H      4.689320   -1.616120    0.887800
  H      5.082480   -0.127100   -0.000070
  H      2.009830   -2.180500   -0.885210
  H      2.009860   -2.180520    0.885250
  H     -0.927710   -1.953200    0.000040
  H     -1.769250    2.251270   -0.000040
  H      0.684310    2.765630   -0.000020

----------------------------
CARTESIAN COORDINATES (A.U.)
----------------------------
  NO LB      ZA    FRAG     MASS         X           Y           Z
   0 C     6.0000    0    12.011    8.432676   -1.929883   -0.000170
   1 N     7.0000    0    14.007    5.833585   -1.134308    0.000038
   2 C     6.0000    0    12.011    3.748083   -2.903621    0.000057
   3 C     6.0000    0    12.011    1.480411   -1.186219    0.000094
   4 C     6.0000    0    12.011   -1.068262   -1.765080    0.000076
   5 C     6.0000    0    12.011   -2.751611    0.248348    0.000019
   6 Br   35.0000    0    79.900   -6.263535   -0.446334   -0.000019
   7 C     6.0000    0    12.011   -1.955300    2.756109   -0.000038
   8 C     6.0000    0    12.011    0.609342    3.298611   -0.000019
   9 C     6.0000    0    12.011    2.292502    1.300339    0.000057
  10 C     6.0000    0    12.011    5.105643    1.348452    0.000189
  11 O     8.0000    0    15.999    6.488450    3.169921   -0.000038
  12 H     1.0000    0     1.008    8.861360   -3.053835   -1.678190
  13 H     1.0000    0     1.008    8.861531   -3.054024    1.677699
  14 H     1.0000    0     1.008    9.604495   -0.240184   -0.000132
  15 H     1.0000    0     1.008    3.798028   -4.120548   -1.672804
  16 H     1.0000    0     1.008    3.798085   -4.120586    1.672880
  17 H     1.0000    0     1.008   -1.753118   -3.691013    0.000076
  18 H     1.0000    0     1.008   -3.343398    4.254284   -0.000076
  19 H     1.0000    0     1.008    1.293158    5.226283   -0.000038

--------------------------------
INTERNAL COORDINATES (ANGSTROEM)
--------------------------------
 C      0   0   0     0.000000000000     0.00000000     0.00000000
 N      1   0   0     1.438371007946     0.00000000     0.00000000
 C      2   1   0     1.447257129366   122.66995217     0.00000000
 C      3   2   1     1.505302499998   102.55099232   180.00425960
 C      4   3   2     1.383048673222   130.06575942   179.99858232
 C      5   4   3     1.388780701407   117.10161816   180.00252147
 Br     6   5   4     1.894439013904   118.70864368   179.99982016
 C      6   5   4     1.392347383199   122.48563727     0.00000000
 C      8   6   5     1.387180971972   119.56046448     0.00000000
 C      9   8   6     1.382572975036   118.16390140     0.00000000
 C      2   1   3     1.369127365478   123.36026012   180.00121600
 O     11   2   1     1.210174669748   126.45421973     0.00000000
 H      1   2   3     1.092567158714   110.97342701    60.49993359
 H      1   2   3     1.092575275484   110.97211356   299.49933215
 H      1   2   3     1.088130613897   107.72240567   180.00016638
 H      3   2   1     1.095009480964   111.22602185   299.86203245
 H      3   2   1     1.095005799117   111.22622553    60.14547097
 H      5   4   3     1.081678378124   122.37129848     0.00000000
 H      8   6   5     1.080784688502   119.56741707   180.00016261
 H      9   8   6     1.082361245657   121.47526939   180.00077996

---------------------------
INTERNAL COORDINATES (A.U.)
---------------------------
 C      0   0   0     0.000000000000     0.00000000     0.00000000
 N      1   0   0     2.718127283990     0.00000000     0.00000000
 C      2   1   0     2.734919619866   122.66995217     0.00000000
 C      3   2   1     2.844609473703   102.55099232   180.00425960
 C      4   3   2     2.613583222272   130.06575942   179.99858232
 C      5   4   3     2.624415185734   117.10161816   180.00252147
 Br     6   5   4     3.579970913694   118.70864368   179.99982016
 C      6   5   4     2.631155237527   122.48563727     0.00000000
 C      8   6   5     2.621392135213   119.56046448     0.00000000
 C      9   8   6     2.612684282979   118.16390140     0.00000000
 C      2   1   3     2.587275763210   123.36026012   180.00121600
 O     11   2   1     2.286898700033   126.45421973     0.00000000
 H      1   2   3     2.064652712886   110.97342701    60.49993359
 H      1   2   3     2.064668051359   110.97211356   299.49933215
 H      1   2   3     2.056268858201   107.72240567   180.00016638
 H      3   2   1     2.069268033068   111.22602185   299.86203245
 H      3   2   1     2.069261075387   111.22622553    60.14547097
 H      5   4   3     2.044075899638   122.37129848     0.00000000
 H      8   6   5     2.042387071004   119.56741707   180.00016261
 H      9   8   6     2.045366332261   121.47526939   180.00077996

---------------------
BASIS SET INFORMATION
---------------------
There are 5 groups of distinct atoms

 Group   1 Type C   : 11s6p2d1f contracted to 5s3p2d1f pattern {62111/411/11/1}
 Group   2 Type N   : 11s6p2d1f contracted to 5s3p2d1f pattern {62111/411/11/1}
 Group   3 Type Br  : 17s13p8d1f contracted to 6s5p4d1f pattern {842111/64111/5111/1}
 Group   4 Type O   : 11s6p2d1f contracted to 5s3p2d1f pattern {62111/411/11/1}
 Group   5 Type H   : 5s2p1d contracted to 3s2p1d pattern {311/11/1}

Atom   0C    basis set group =>   1
Atom   1N    basis set group =>   2
Atom   2C    basis set group =>   1
Atom   3C    basis set group =>   1
Atom   4C    basis set group =>   1
Atom   5C    basis set group =>   1
Atom   6Br   basis set group =>   3
Atom   7C    basis set group =>   1
Atom   8C    basis set group =>   1
Atom   9C    basis set group =>   1
Atom  10C    basis set group =>   1
Atom  11O    basis set group =>   4
Atom  12H    basis set group =>   5
Atom  13H    basis set group =>   5
Atom  14H    basis set group =>   5
Atom  15H    basis set group =>   5
Atom  16H    basis set group =>   5
Atom  17H    basis set group =>   5
Atom  18H    basis set group =>   5
Atom  19H    basis set group =>   5
---------------------------------
AUXILIARY/J BASIS SET INFORMATION
---------------------------------
There are 5 groups of distinct atoms

 Group   1 Type C   : 12s5p4d2f1g contracted to 6s4p3d1f1g pattern {711111/2111/211/2/1}
 Group   2 Type N   : 12s5p4d2f1g contracted to 6s4p3d1f1g pattern {711111/2111/211/2/1}
 Group   3 Type Br  : 19s5p5d3f1g contracted to 8s4p3d2f1g pattern {121111111/2111/311/21/1}
 Group   4 Type O   : 12s5p4d2f1g contracted to 6s4p3d1f1g pattern {711111/2111/211/2/1}
 Group   5 Type H   : 5s2p1d contracted to 3s1p1d pattern {311/2/1}

Atom   0C    basis set group =>   1
Atom   1N    basis set group =>   2
Atom   2C    basis set group =>   1
Atom   3C    basis set group =>   1
Atom   4C    basis set group =>   1
Atom   5C    basis set group =>   1
Atom   6Br   basis set group =>   3
Atom   7C    basis set group =>   1
Atom   8C    basis set group =>   1
Atom   9C    basis set group =>   1
Atom  10C    basis set group =>   1
Atom  11O    basis set group =>   4
Atom  12H    basis set group =>   5
Atom  13H    basis set group =>   5
Atom  14H    basis set group =>   5
Atom  15H    basis set group =>   5
Atom  16H    basis set group =>   5
Atom  17H    basis set group =>   5
Atom  18H    basis set group =>   5
Atom  19H    basis set group =>   5


           ************************************************************
           *        Program running with 16 parallel MPI-processes    *
           *              working on a common directory               *
           ************************************************************
------------------------------------------------------------------------------
                           ORCA GTO INTEGRAL CALCULATION
                           -- RI-GTO INTEGRALS CHOSEN --
------------------------------------------------------------------------------
------------------------------------------------------------------------------
                   ___                                                        
                  /   \      - P O W E R E D   B Y -                         
                 /     \                                                     
                 |  |  |   _    _      __       _____    __    __             
                 |  |  |  | |  | |    /  \     |  _  \  |  |  /  |          
                  \  \/   | |  | |   /    \    | | | |  |  | /  /          
                 / \  \   | |__| |  /  /\  \   | |_| |  |  |/  /          
                |  |  |   |  __  | /  /__\  \  |    /   |      \           
                |  |  |   | |  | | |   __   |  |    \   |  |\   \          
                \     /   | |  | | |  |  |  |  | |\  \  |  | \   \       
                 \___/    |_|  |_| |__|  |__|  |_| \__\ |__|  \__/        
                                                                              
                      - O R C A' S   B I G   F R I E N D -                    
                                      &                                       
                       - I N T E G R A L  F E E D E R -                       
                                                                              
 v1 FN, 2020, v2 2021                                                         
------------------------------------------------------------------------------


Reading SHARK input file arbr_04_r2scan3c_wB97MV_nbo.SHARKINP.tmp ... ok
----------------------
SHARK INTEGRAL PACKAGE
----------------------

Number of atoms                             ...     20
Number of basis functions                   ...    501
Number of shells                            ...    185
Maximum angular momentum                    ...      3
Integral batch strategy                     ... SHARK/LIBINT Hybrid
RI-J (if used) integral strategy            ... SPLIT-RIJ (Revised 2003 algorithm where possible)
Printlevel                                  ...      1
Contraction scheme used                     ... SEGMENTED contraction
Coulomb Range Separation                    ... NOT USED
Exchange Range Separation                   ... Long Range
   Mu parameter                             ...  0.300000
   Scaling (regular/separated)              ...  0.150000  0.850000
Finite Nucleus Model                        ... NOT USED
Auxiliary Coulomb fitting basis             ... AVAILABLE
   # of basis functions in Aux-J            ...    685
   # of shells in Aux-J                     ...    223
   Maximum angular momentum in Aux-J        ...      4
Auxiliary J/K fitting basis                 ... NOT available
Auxiliary Correlation fitting basis         ... NOT available
Auxiliary 'external' fitting basis          ... NOT available
Integral threshold                          ...     1.000000e-10
Primitive cut-off                           ...     1.000000e-11
Primitive pair pre-selection threshold      ...     1.000000e-11

Calculating pre-screening integrals         ... done (  0.1 sec) Dimension = 185
Organizing shell pair data                  ... done (  0.2 sec)
Shell pair information
Total number of shell pairs                 ...     17205
Shell pairs after pre-screening             ...     13924
Total number of primitive shell pairs       ...     52658
Primitive shell pairs kept                  ...     30037
          la=0 lb=0:   2864 shell pairs
          la=1 lb=0:   3802 shell pairs
          la=1 lb=1:   1285 shell pairs
          la=2 lb=0:   2246 shell pairs
          la=2 lb=1:   1511 shell pairs
          la=2 lb=2:    456 shell pairs
          la=3 lb=0:    818 shell pairs
          la=3 lb=1:    543 shell pairs
          la=3 lb=2:    331 shell pairs
          la=3 lb=3:     68 shell pairs

Calculating one electron integrals          ... done (  0.0 sec)
Calculating RI/J V-Matrix + Cholesky decomp.... done (  0.0 sec)
Calculating Nuclear repulsion               ... done (  0.0 sec) ENN=    906.650674471206 Eh

SHARK setup successfully completed in   0.6 seconds

Maximum memory used throughout the entire GTOINT-calculation: 30.3 MB


           ************************************************************
           *        Program running with 16 parallel MPI-processes    *
           *              working on a common directory               *
           ************************************************************
-------------------------------------------------------------------------------
                                 ORCA SCF
-------------------------------------------------------------------------------

------------
SCF SETTINGS
------------
Hamiltonian:
 Density Functional     Method          .... DFT(GTOs)
  Functional kind                       .... Exchange-Correlation
  Functional name                       .... wB97M-V exchange-correlation functional
  Functional family                     .... Hybrid MGGA
  Functional refs                              
    [ 0] N. Mardirossian and M. Head-Gordon, J. Chem. Phys. 144, 214110 (2016)
  Fraction of HF Exchange (short range) .... 0.1500
  Fraction of HF Exchange (long range)  .... 1.0000
  Range separation parameter mu         .... 0.3000
  Functional external parameters         .... 0
   Density functional embedding theory  .... OFF
 Long-range corrected/Screened/Range-Separated Hybrid DFT is turned on
   Amount of maximum screened exact exchange              ....  0.850000
   Range separation parameter mu (erf(mu*r12)/r12)        ....  0.300000
   NL short-range parameter             ....  6.000000
   NL long-range parameter              ....  0.010000
 RI-approximation to the Coulomb term is turned on
   Number of AuxJ basis functions       .... 685
   RIJ-COSX (HFX calculated with COS-X)).... on


General Settings:
 Integral files         IntName         .... arbr_04_r2scan3c_wB97MV_nbo
 Hartree-Fock type      HFTyp           .... RHF
 Total Charge           Charge          ....    0
 Multiplicity           Mult            ....    1
 Number of Electrons    NEL             ....  112
 Basis Dimension        Dim             ....  501
 Nuclear Repulsion      ENuc            ....    906.6506744712 Eh

Convergence Acceleration:
 DIIS                   CNVDIIS         .... on
   Start iteration      DIISMaxIt       ....    12
   Startup error        DIISStart       ....  0.200000
   # of expansion vecs  DIISMaxEq       ....     5
   Bias factor          DIISBfac        ....   1.050
   Max. coefficient     DIISMaxC        ....  10.000
 Trust-Rad. Augm. Hess. CNVTRAH         .... auto
   Auto Start mean grad. ratio tolernc. ....  1.125000
   Auto Start start iteration           ....    20
   Auto Start num. interpolation iter.  ....    10
   Max. Number of Micro iterations      ....    16
   Max. Number of Macro iterations      .... Maxiter - #DIIS iter
   Number of Davidson start vectors     ....     2
   Converg. threshold I  (grad. norm)   ....   5.000e-05
   Converg. threshold II (energy diff.) ....   1.000e-06
   Grad. Scal. Fac. for Micro threshold ....   0.100
   Minimum threshold for Micro iter.    ....   0.010
   NR start threshold (gradient norm)   ....   0.001
   Initial trust radius                 ....   0.400
   Minimum AH scaling param. (alpha)    ....   1.000
   Maximum AH scaling param. (alpha)    .... 1000.000
   Orbital update algorithm             .... Taylor
   White noise on init. David. guess    .... on
   Maximum white noise                  ....   0.010
   Quad. conv. algorithm                .... NR
 SOSCF                  CNVSOSCF        .... on
   Start iteration      SOSCFMaxIt      ....   150
   Startup grad/error   SOSCFStart      ....  0.003300
 Level Shifting         CNVShift        .... on
   Level shift para.    LevelShift      ....    0.2500
   Turn off err/grad.   ShiftErr        ....    0.0010
 Zerner damping         CNVZerner       .... off
 Static damping         CNVDamp         .... on
   Fraction old density DampFac         ....    0.7000
   Max. Damping (<1)    DampMax         ....    0.9800
   Min. Damping (>=0)   DampMin         ....    0.0000
   Turn off err/grad.   DampErr         ....    0.1000
 Fernandez-Rico         CNVRico         .... off

SCF Procedure:
 Maximum # iterations   MaxIter         ....   125
 SCF integral mode      SCFMode         .... Direct
   Integral package                     .... SHARK and LIBINT hybrid scheme
 Reset frequency        DirectResetFreq ....    20
 Integral Threshold     Thresh          ....  1.000e-10 Eh
 Primitive CutOff       TCut            ....  1.000e-11 Eh

Convergence Tolerance:
 Convergence Check Mode ConvCheckMode   .... Total+1el-Energy
 Convergence forced     ConvForced      .... 0
 Energy Change          TolE            ....  1.000e-06 Eh
 1-El. energy change                    ....  1.000e-03 Eh
 Orbital Gradient       TolG            ....  5.000e-05
 Orbital Rotation angle TolX            ....  5.000e-05
 DIIS Error             TolErr          ....  1.000e-06


Diagonalization of the overlap matrix:
Smallest eigenvalue                        ... 6.152e-06
Time for diagonalization                   ...    0.038 sec
Threshold for overlap eigenvalues          ... 1.000e-08
Number of eigenvalues below threshold      ... 0
Time for construction of square roots      ...    0.034 sec
Total time needed                          ...    0.074 sec

Time for model grid setup =    0.112 sec

------------------------------
INITIAL GUESS: MODEL POTENTIAL
------------------------------
Loading Hartree-Fock densities                     ... done
Calculating cut-offs                               ... done
Initializing the effective Hamiltonian             ... done
Setting up the integral package (SHARK)            ... done
Starting the Coulomb interaction                   ... done (   0.1 sec)
Reading the grid                                   ... done
Mapping shells                                     ... done
Starting the XC term evaluation                    ... done (   0.1 sec)
  promolecular density results
     # of electrons  =    111.992205983
     EX              =   -152.435886862
     EC              =     -4.313529055
     EX+EC           =   -156.749415917
Transforming the Hamiltonian                       ... done (   0.0 sec)
Diagonalizing the Hamiltonian                      ... done (   0.0 sec)
Back transforming the eigenvectors                 ... done (   0.0 sec)
Now organizing SCF variables                       ... done
                      ------------------
                      INITIAL GUESS DONE (   0.4 sec)
                      ------------------
-------------------
DFT GRID GENERATION
-------------------

General Integration Accuracy     IntAcc      ... 4.388
Radial Grid Type                 RadialGrid  ... OptM3 with GC (2021)
Angular Grid (max. ang.)         AngularGrid ... 4 (Lebedev-302)
Angular grid pruning method      GridPruning ... 4 (adaptive)
Weight generation scheme         WeightScheme... Becke
Basis function cutoff            BFCut       ... 1.0000e-10
Integration weight cutoff        WCut        ... 1.0000e-14
Angular grids for H and He will be reduced by one unit
Partially contracted basis set               ... off
Rotationally invariant grid construction     ... off

Total number of grid points                  ...   102830
Total number of batches                      ...     1619
Average number of points per batch           ...       63
Average number of grid points per atom       ...     5142
Time for grid setup =    0.540 sec

--------------------
COSX GRID GENERATION
--------------------

GRIDX 1
-------
General Integration Accuracy     IntAcc      ... 3.816
Radial Grid Type                 RadialGrid  ... OptM3 with GC (2021)
Angular Grid (max. ang.)         AngularGrid ... 1 (Lebedev-50)
Angular grid pruning method      GridPruning ... 4 (adaptive)
Weight generation scheme         WeightScheme... Becke
Basis function cutoff            BFCut       ... 1.0000e-10
Integration weight cutoff        WCut        ... 1.0000e-14
Angular grids for H and He will be reduced by one unit
Partially contracted basis set               ... on
Rotationally invariant grid construction     ... off

Total number of grid points                  ...    12921
Total number of batches                      ...      213
Average number of points per batch           ...       60
Average number of grid points per atom       ...      646
UseSFitting                                  ... on

GRIDX 2
-------
General Integration Accuracy     IntAcc      ... 4.020
Radial Grid Type                 RadialGrid  ... OptM3 with GC (2021)
Angular Grid (max. ang.)         AngularGrid ... 2 (Lebedev-110)
Angular grid pruning method      GridPruning ... 4 (adaptive)
Weight generation scheme         WeightScheme... Becke
Basis function cutoff            BFCut       ... 1.0000e-10
Integration weight cutoff        WCut        ... 1.0000e-14
Angular grids for H and He will be reduced by one unit
Partially contracted basis set               ... on
Rotationally invariant grid construction     ... off

Total number of grid points                  ...    28342
Total number of batches                      ...      453
Average number of points per batch           ...       62
Average number of grid points per atom       ...     1417
UseSFitting                                  ... on

GRIDX 3
-------
General Integration Accuracy     IntAcc      ... 4.338
Radial Grid Type                 RadialGrid  ... OptM3 with GC (2021)
Angular Grid (max. ang.)         AngularGrid ... 3 (Lebedev-194)
Angular grid pruning method      GridPruning ... 4 (adaptive)
Weight generation scheme         WeightScheme... Becke
Basis function cutoff            BFCut       ... 1.0000e-10
Integration weight cutoff        WCut        ... 1.0000e-14
Angular grids for H and He will be reduced by one unit
Partially contracted basis set               ... on
Rotationally invariant grid construction     ... off

Total number of grid points                  ...    62445
Total number of batches                      ...      986
Average number of points per batch           ...       63
Average number of grid points per atom       ...     3122
UseSFitting                                  ... on

Time for X-Grid setup             =    0.530 sec

--------------
SCF ITERATIONS
--------------
ITER       Energy         Delta-E        Max-DP      RMS-DP      [F,P]     Damp
               ***  Starting incremental Fock matrix formation  ***
  0  -3051.9411452305   0.000000000000 0.09081554  0.00099502  0.2965130 0.7000
  1  -3052.0590046183  -0.117859387852 0.09608091  0.00086462  0.1459686 0.7000
                               ***Turning on DIIS***
  2  -3052.1179663758  -0.058961757518 0.16946283  0.00166074  0.0560721 0.0000
  3  -3052.2168925361  -0.098926160230 0.06482985  0.00063141  0.0695048 0.0000
  4  -3052.2310243625  -0.014131826482 0.01372089  0.00018473  0.0118737 0.0000
  5  -3052.2315730022  -0.000548639643 0.00793830  0.00010321  0.0083238 0.0000
                      *** Initiating the SOSCF procedure ***
                           *** Shutting down DIIS ***
                      *** Re-Reading the Fockian *** 
                      *** Removing any level shift *** 
ITER      Energy       Delta-E        Grad      Rot      Max-DP    RMS-DP
  6  -3052.23174300  -0.0001699935  0.001660  0.001660  0.004553  0.000055
               *** Restarting incremental Fock matrix formation ***
  7  -3052.23176283  -0.0000198308  0.000834  0.002221  0.004877  0.000051
  8  -3052.23177839  -0.0000155636  0.000442  0.002622  0.004105  0.000034
  9  -3052.23178092  -0.0000025311  0.000247  0.000621  0.001406  0.000017
 10  -3052.23178288  -0.0000019599  0.000055  0.000121  0.000993  0.000007
 11  -3052.23178295  -0.0000000670  0.000035  0.000061  0.000164  0.000003
                  ***Gradient check signals convergence***
              ***Rediagonalizing the Fockian in SOSCF/NRSCF***

               *****************************************************
               *                     SUCCESS                       *
               *           SCF CONVERGED AFTER  12 CYCLES          *
               *****************************************************

Old exchange energy                            =    -38.234641510 Eh
New exchange energy                            =    -38.234681549 Eh
Exchange energy change after final integration =     -0.000040038 Eh
Total energy after final integration           =  -3052.231823030 Eh
Final COS-X integration done in                =    11.149 sec

------------------
NL GRID GENERATION
------------------

General Integration Accuracy     IntAcc      ... 4.004
Radial Grid Type                 RadialGrid  ... OptM3 with GC (2021)
Angular Grid (max. ang.)         AngularGrid ... 2 (Lebedev-110)
Angular grid pruning method      GridPruning ... 4 (adaptive)
Weight generation scheme         WeightScheme... Becke
Basis function cutoff            BFCut       ... 1.0000e-10
Integration weight cutoff        WCut        ... 1.0000e-14
Angular grids for H and He will be reduced by one unit
Partially contracted basis set               ... off
Rotationally invariant grid construction     ... off

Total number of grid points                  ...    34911
Total number of batches                      ...      558
Average number of points per batch           ...       62
Average number of grid points per atom       ...     1746
Final grid set up in    0.2 sec

-------------------------------------------------------------------------------
                    post-SCF DFT-NL dispersion correction                      
-------------------------------------------------------------------------------

SCF Energy:   -3052.231823030 
NL    Energy:  0.433395933 
SC+NL Energy: -3051.798427097 
NL done in:    0.7 sec
-------------------------------------------------------------------------------

----------------
TOTAL SCF ENERGY
----------------

Total Energy       :        -3051.79842710 Eh          -83043.65706 eV

Components:
Nuclear Repulsion  :          906.65067447 Eh           24671.21911 eV
Electronic Energy  :        -3958.44910157 Eh         -107714.87617 eV
One Electron Energy:        -6030.96148065 Eh         -164110.80512 eV
Two Electron Energy:         2072.51237908 Eh           56395.92895 eV
Max COSX asymmetry :            0.00000287 Eh               0.00008 eV

Virial components:
Potential Energy   :        -6099.28480268 Eh         -165969.97723 eV
Kinetic Energy     :         3047.48637558 Eh           82926.32017 eV
Virial Ratio       :            2.00141495


DFT components:
N(Alpha)           :       55.999981310589 electrons
N(Beta)            :       55.999981310589 electrons
N(Total)           :      111.999962621178 electrons
NL Energy, E(C,NL) :        0.433395933434 Eh       
E(XC)              :     -120.328381884964 Eh       
DFET-embed. en.    :        0.000000000000 Eh       

---------------
SCF CONVERGENCE
---------------

  Last Energy change         ...   -4.4044e-08  Tolerance :   1.0000e-06
  Last MAX-Density change    ...    3.9968e-15  Tolerance :   1.0000e-05
  Last RMS-Density change    ...    2.0287e-17  Tolerance :   1.0000e-06
  Last Orbital Gradient      ...    5.9838e-06  Tolerance :   5.0000e-05
  Last Orbital Rotation      ...    1.9462e-05  Tolerance :   5.0000e-05

             **** THE GBW FILE WAS UPDATED (arbr_04_r2scan3c_wB97MV_nbo.gbw) ****
             **** DENSITY arbr_04_r2scan3c_wB97MV_nbo.scfp WAS UPDATED ****
             **** ENERGY FILE WAS UPDATED (arbr_04_r2scan3c_wB97MV_nbo.en.tmp) ****
             **** THE GBW FILE WAS UPDATED (arbr_04_r2scan3c_wB97MV_nbo.gbw) ****
             **** DENSITY arbr_04_r2scan3c_wB97MV_nbo.scfp WAS UPDATED ****
----------------
ORBITAL ENERGIES
----------------

  NO   OCC          E(Eh)            E(eV) 
   0   2.0000    -483.516071    -13157.1412 
   1   2.0000     -62.821108     -1709.4493 
   2   2.0000     -56.507686     -1537.6523 
   3   2.0000     -56.505527     -1537.5936 
   4   2.0000     -56.505461     -1537.5918 
   5   2.0000     -19.300451      -525.1920 
   6   2.0000     -14.543443      -395.7472 
   7   2.0000     -10.451365      -284.3961 
   8   2.0000     -10.423762      -283.6450 
   9   2.0000     -10.408119      -283.2193 
  10   2.0000     -10.384495      -282.5765 
  11   2.0000     -10.382552      -282.5236 
  12   2.0000     -10.377595      -282.3887 
  13   2.0000     -10.373840      -282.2865 
  14   2.0000     -10.372928      -282.2617 
  15   2.0000     -10.367503      -282.1141 
  16   2.0000      -8.904370      -242.3002 
  17   2.0000      -6.690350      -182.0537 
  18   2.0000      -6.679471      -181.7577 
  19   2.0000      -6.679205      -181.7504 
  20   2.0000      -2.771320       -75.4114 
  21   2.0000      -2.768179       -75.3260 
  22   2.0000      -2.768031       -75.3219 
  23   2.0000      -2.759229       -75.0824 
  24   2.0000      -2.759221       -75.0822 
  25   2.0000      -1.176891       -32.0248 
  26   2.0000      -1.094151       -29.7734 
  27   2.0000      -1.022145       -27.8140 
  28   2.0000      -0.954098       -25.9623 
  29   2.0000      -0.916193       -24.9309 
  30   2.0000      -0.886525       -24.1236 
  31   2.0000      -0.846164       -23.0253 
  32   2.0000      -0.826537       -22.4912 
  33   2.0000      -0.749920       -20.4064 
  34   2.0000      -0.722911       -19.6714 
  35   2.0000      -0.686989       -18.6939 
  36   2.0000      -0.631759       -17.1910 
  37   2.0000      -0.618756       -16.8372 
  38   2.0000      -0.617752       -16.8099 
  39   2.0000      -0.587363       -15.9830 
  40   2.0000      -0.569248       -15.4900 
  41   2.0000      -0.560611       -15.2550 
  42   2.0000      -0.540959       -14.7202 
  43   2.0000      -0.534892       -14.5552 
  44   2.0000      -0.520770       -14.1709 
  45   2.0000      -0.518293       -14.1035 
  46   2.0000      -0.501972       -13.6593 
  47   2.0000      -0.497814       -13.5462 
  48   2.0000      -0.471406       -12.8276 
  49   2.0000      -0.466624       -12.6975 
  50   2.0000      -0.423678       -11.5289 
  51   2.0000      -0.397956       -10.8289 
  52   2.0000      -0.369700       -10.0600 
  53   2.0000      -0.367982       -10.0133 
  54   2.0000      -0.352388        -9.5890 
  55   2.0000      -0.340687        -9.2706 
  56   0.0000       0.023509         0.6397 
  57   0.0000       0.040794         1.1101 
  58   0.0000       0.073363         1.9963 
  59   0.0000       0.084286         2.2935 
  60   0.0000       0.112376         3.0579 
  61   0.0000       0.123972         3.3735 
  62   0.0000       0.132475         3.6048 
  63   0.0000       0.141266         3.8441 
  64   0.0000       0.157815         4.2944 
  65   0.0000       0.159489         4.3399 
  66   0.0000       0.171295         4.6612 
  67   0.0000       0.178398         4.8544 
  68   0.0000       0.183119         4.9829 
  69   0.0000       0.189444         5.1550 
  70   0.0000       0.195057         5.3078 
  71   0.0000       0.224400         6.1062 
  72   0.0000       0.225520         6.1367 
  73   0.0000       0.229788         6.2528 
  74   0.0000       0.236684         6.4405 
  75   0.0000       0.250411         6.8140 
  76   0.0000       0.270202         7.3526 
  77   0.0000       0.273920         7.4537 
  78   0.0000       0.275652         7.5009 
  79   0.0000       0.285938         7.7808 
  80   0.0000       0.288019         7.8374 
  81   0.0000       0.298944         8.1347 
  82   0.0000       0.301044         8.1918 
  83   0.0000       0.308371         8.3912 
  84   0.0000       0.316976         8.6254 
  85   0.0000       0.323626         8.8063 
  86   0.0000       0.332531         9.0486 
  87   0.0000       0.344166         9.3652 
  88   0.0000       0.344218         9.3666 
  89   0.0000       0.361828         9.8459 
  90   0.0000       0.364294         9.9129 
  91   0.0000       0.369528        10.0554 
  92   0.0000       0.381375        10.3777 
  93   0.0000       0.393472        10.7069 
  94   0.0000       0.407769        11.0960 
  95   0.0000       0.412209        11.2168 
  96   0.0000       0.418930        11.3997 
  97   0.0000       0.420729        11.4486 
  98   0.0000       0.431118        11.7313 
  99   0.0000       0.433432        11.7943 
 100   0.0000       0.445206        12.1147 
 101   0.0000       0.445747        12.1294 
 102   0.0000       0.461070        12.5464 
 103   0.0000       0.463597        12.6151 
 104   0.0000       0.482229        13.1221 
 105   0.0000       0.495141        13.4735 
 106   0.0000       0.499044        13.5797 
 107   0.0000       0.499669        13.5967 
 108   0.0000       0.500134        13.6093 
 109   0.0000       0.507515        13.8102 
 110   0.0000       0.511320        13.9137 
 111   0.0000       0.525373        14.2961 
 112   0.0000       0.532520        14.4906 
 113   0.0000       0.536466        14.5980 
 114   0.0000       0.547978        14.9112 
 115   0.0000       0.570389        15.5211 
 116   0.0000       0.575619        15.6634 
 117   0.0000       0.582985        15.8638 
 118   0.0000       0.602169        16.3858 
 119   0.0000       0.604606        16.4522 
 120   0.0000       0.614292        16.7157 
 121   0.0000       0.622444        16.9375 
 122   0.0000       0.643244        17.5036 
 123   0.0000       0.651228        17.7208 
 124   0.0000       0.656117        17.8538 
 125   0.0000       0.667238        18.1565 
 126   0.0000       0.671582        18.2747 
 127   0.0000       0.675514        18.3817 
 128   0.0000       0.698910        19.0183 
 129   0.0000       0.701551        19.0902 
 130   0.0000       0.711563        19.3626 
 131   0.0000       0.717807        19.5325 
 132   0.0000       0.738097        20.0847 
 133   0.0000       0.742855        20.2141 
 134   0.0000       0.747133        20.3305 
 135   0.0000       0.764821        20.8118 
 136   0.0000       0.779425        21.2092 
 137   0.0000       0.786583        21.4040 
 138   0.0000       0.808811        22.0089 
 139   0.0000       0.819767        22.3070 
 140   0.0000       0.836386        22.7592 
 141   0.0000       0.843669        22.9574 
 142   0.0000       0.843933        22.9646 
 143   0.0000       0.850625        23.1467 
 144   0.0000       0.874141        23.7866 
 145   0.0000       0.884018        24.0553 
 146   0.0000       0.884702        24.0740 
 147   0.0000       0.910846        24.7854 
 148   0.0000       0.928198        25.2575 
 149   0.0000       0.941259        25.6130 
 150   0.0000       0.942010        25.6334 
 151   0.0000       0.954097        25.9623 
 152   0.0000       0.969747        26.3881 
 153   0.0000       0.987718        26.8772 
 154   0.0000       0.998956        27.1830 
 155   0.0000       1.003602        27.3094 
 156   0.0000       1.015913        27.6444 
 157   0.0000       1.033029        28.1101 
 158   0.0000       1.040343        28.3092 
 159   0.0000       1.040757        28.3205 
 160   0.0000       1.065547        28.9950 
 161   0.0000       1.067835        29.0573 
 162   0.0000       1.076982        29.3062 
 163   0.0000       1.090247        29.6671 
 164   0.0000       1.100382        29.9429 
 165   0.0000       1.128901        30.7190 
 166   0.0000       1.133118        30.8337 
 167   0.0000       1.148652        31.2564 
 168   0.0000       1.157865        31.5071 
 169   0.0000       1.160372        31.5753 
 170   0.0000       1.168805        31.8048 
 171   0.0000       1.176285        32.0083 
 172   0.0000       1.191327        32.4177 
 173   0.0000       1.210230        32.9320 
 174   0.0000       1.234176        33.5836 
 175   0.0000       1.243887        33.8479 
 176   0.0000       1.246254        33.9123 
 177   0.0000       1.246376        33.9156 
 178   0.0000       1.266644        34.4671 
 179   0.0000       1.276610        34.7383 
 180   0.0000       1.298183        35.3253 
 181   0.0000       1.302575        35.4449 
 182   0.0000       1.307049        35.5666 
 183   0.0000       1.324073        36.0298 
 184   0.0000       1.328876        36.1606 
 185   0.0000       1.358632        36.9703 
 186   0.0000       1.361016        37.0351 
 187   0.0000       1.379091        37.5270 
 188   0.0000       1.380359        37.5615 
 189   0.0000       1.389450        37.8089 
 190   0.0000       1.402293        38.1583 
 191   0.0000       1.406442        38.2712 
 192   0.0000       1.433399        39.0048 
 193   0.0000       1.434332        39.0301 
 194   0.0000       1.448161        39.4065 
 195   0.0000       1.457784        39.6683 
 196   0.0000       1.461821        39.7782 
 197   0.0000       1.492170        40.6040 
 198   0.0000       1.501212        40.8501 
 199   0.0000       1.503448        40.9109 
 200   0.0000       1.516616        41.2692 
 201   0.0000       1.516890        41.2767 
 202   0.0000       1.535751        41.7899 
 203   0.0000       1.539159        41.8827 
 204   0.0000       1.539796        41.9000 
 205   0.0000       1.549813        42.1725 
 206   0.0000       1.568959        42.6935 
 207   0.0000       1.577803        42.9342 
 208   0.0000       1.598885        43.5079 
 209   0.0000       1.613315        43.9005 
 210   0.0000       1.618690        44.0468 
 211   0.0000       1.623899        44.1885 
 212   0.0000       1.629142        44.3312 
 213   0.0000       1.635366        44.5006 
 214   0.0000       1.640902        44.6512 
 215   0.0000       1.649055        44.8731 
 216   0.0000       1.661137        45.2018 
 217   0.0000       1.693790        46.0904 
 218   0.0000       1.699721        46.2518 
 219   0.0000       1.700529        46.2737 
 220   0.0000       1.717994        46.7490 
 221   0.0000       1.718623        46.7661 
 222   0.0000       1.733460        47.1698 
 223   0.0000       1.741011        47.3753 
 224   0.0000       1.749955        47.6187 
 225   0.0000       1.762831        47.9691 
 226   0.0000       1.784062        48.5468 
 227   0.0000       1.803079        49.0643 
 228   0.0000       1.816908        49.4406 
 229   0.0000       1.829371        49.7797 
 230   0.0000       1.833947        49.9042 
 231   0.0000       1.848101        50.2894 
 232   0.0000       1.862236        50.6740 
 233   0.0000       1.869385        50.8685 
 234   0.0000       1.871287        50.9203 
 235   0.0000       1.910752        51.9942 
 236   0.0000       1.920694        52.2647 
 237   0.0000       1.946410        52.9645 
 238   0.0000       1.952263        53.1238 
 239   0.0000       2.004839        54.5544 
 240   0.0000       2.011056        54.7236 
 241   0.0000       2.011809        54.7441 
 242   0.0000       2.023067        55.0504 
 243   0.0000       2.068761        56.2938 
 244   0.0000       2.076962        56.5170 
 245   0.0000       2.092235        56.9326 
 246   0.0000       2.128372        57.9160 
 247   0.0000       2.142559        58.3020 
 248   0.0000       2.174630        59.1747 
 249   0.0000       2.183479        59.4155 
 250   0.0000       2.206730        60.0482 
 251   0.0000       2.223767        60.5118 
 252   0.0000       2.242798        61.0296 
 253   0.0000       2.243043        61.0363 
 254   0.0000       2.276826        61.9556 
 255   0.0000       2.287766        62.2533 
 256   0.0000       2.302256        62.6476 
 257   0.0000       2.346663        63.8559 
 258   0.0000       2.350006        63.9469 
 259   0.0000       2.409779        65.5734 
 260   0.0000       2.419036        65.8253 
 261   0.0000       2.434304        66.2408 
 262   0.0000       2.471924        67.2645 
 263   0.0000       2.505455        68.1769 
 264   0.0000       2.509179        68.2782 
 265   0.0000       2.556096        69.5549 
 266   0.0000       2.556174        69.5570 
 267   0.0000       2.565780        69.8184 
 268   0.0000       2.593908        70.5838 
 269   0.0000       2.606109        70.9158 
 270   0.0000       2.612273        71.0836 
 271   0.0000       2.645251        71.9809 
 272   0.0000       2.671295        72.6896 
 273   0.0000       2.691079        73.2280 
 274   0.0000       2.702785        73.5465 
 275   0.0000       2.710933        73.7682 
 276   0.0000       2.726032        74.1791 
 277   0.0000       2.730810        74.3091 
 278   0.0000       2.762826        75.1803 
 279   0.0000       2.774051        75.4858 
 280   0.0000       2.786122        75.8142 
 281   0.0000       2.795535        76.0704 
 282   0.0000       2.819300        76.7171 
 283   0.0000       2.824785        76.8663 
 284   0.0000       2.836508        77.1853 
 285   0.0000       2.852731        77.6268 
 286   0.0000       2.862435        77.8908 
 287   0.0000       2.864000        77.9334 
 288   0.0000       2.879054        78.3430 
 289   0.0000       2.900123        78.9164 
 290   0.0000       2.903809        79.0167 
 291   0.0000       2.917603        79.3920 
 292   0.0000       2.939482        79.9874 
 293   0.0000       2.944697        80.1293 
 294   0.0000       2.955494        80.4231 
 295   0.0000       2.967516        80.7502 
 296   0.0000       2.970439        80.8297 
 297   0.0000       2.985223        81.2320 
 298   0.0000       3.009462        81.8916 
 299   0.0000       3.019028        82.1519 
 300   0.0000       3.021901        82.2301 
 301   0.0000       3.037630        82.6581 
 302   0.0000       3.040283        82.7303 
 303   0.0000       3.067615        83.4740 
 304   0.0000       3.073782        83.6419 
 305   0.0000       3.088004        84.0289 
 306   0.0000       3.095175        84.2240 
 307   0.0000       3.107640        84.5632 
 308   0.0000       3.117899        84.8423 
 309   0.0000       3.135346        85.3171 
 310   0.0000       3.146735        85.6270 
 311   0.0000       3.148859        85.6848 
 312   0.0000       3.160719        86.0075 
 313   0.0000       3.190491        86.8177 
 314   0.0000       3.199188        87.0543 
 315   0.0000       3.207754        87.2874 
 316   0.0000       3.234914        88.0265 
 317   0.0000       3.238041        88.1116 
 318   0.0000       3.244362        88.2836 
 319   0.0000       3.250850        88.4601 
 320   0.0000       3.263133        88.7944 
 321   0.0000       3.273459        89.0754 
 322   0.0000       3.279097        89.2288 
 323   0.0000       3.307889        90.0122 
 324   0.0000       3.317133        90.2638 
 325   0.0000       3.328419        90.5709 
 326   0.0000       3.340304        90.8943 
 327   0.0000       3.354896        91.2914 
 328   0.0000       3.369481        91.6882 
 329   0.0000       3.380682        91.9930 
 330   0.0000       3.386432        92.1495 
 331   0.0000       3.407031        92.7100 
 332   0.0000       3.416564        92.9694 
 333   0.0000       3.423736        93.1646 
 334   0.0000       3.428509        93.2945 
 335   0.0000       3.444647        93.7336 
 336   0.0000       3.455949        94.0411 
 337   0.0000       3.467616        94.3586 
 338   0.0000       3.472610        94.4945 
 339   0.0000       3.486982        94.8856 
 340   0.0000       3.490520        94.9819 
 341   0.0000       3.494406        95.0876 
 342   0.0000       3.538465        96.2865 
 343   0.0000       3.539481        96.3142 
 344   0.0000       3.542815        96.4049 
 345   0.0000       3.548283        96.5537 
 346   0.0000       3.558503        96.8318 
 347   0.0000       3.582092        97.4737 
 348   0.0000       3.594513        97.8117 
 349   0.0000       3.595800        97.8467 
 350   0.0000       3.622969        98.5860 
 351   0.0000       3.630980        98.8040 
 352   0.0000       3.651357        99.3585 
 353   0.0000       3.682176       100.1971 
 354   0.0000       3.692686       100.4831 
 355   0.0000       3.695333       100.5551 
 356   0.0000       3.725412       101.3736 
 357   0.0000       3.727331       101.4258 
 358   0.0000       3.735272       101.6419 
 359   0.0000       3.757550       102.2481 
 360   0.0000       3.767198       102.5107 
 361   0.0000       3.774245       102.7024 
 362   0.0000       3.783478       102.9537 
 363   0.0000       3.788036       103.0777 
 364   0.0000       3.798908       103.3735 
 365   0.0000       3.812672       103.7481 
 366   0.0000       3.838045       104.4385 
 367   0.0000       3.868113       105.2567 
 368   0.0000       3.874843       105.4398 
 369   0.0000       3.885640       105.7336 
 370   0.0000       3.903884       106.2301 
 371   0.0000       3.910327       106.4054 
 372   0.0000       3.940808       107.2348 
 373   0.0000       3.945474       107.3618 
 374   0.0000       3.957146       107.6794 
 375   0.0000       3.959000       107.7299 
 376   0.0000       3.977684       108.2383 
 377   0.0000       4.005409       108.9927 
 378   0.0000       4.015376       109.2639 
 379   0.0000       4.044183       110.0478 
 380   0.0000       4.073908       110.8567 
 381   0.0000       4.090306       111.3029 
 382   0.0000       4.099741       111.5596 
 383   0.0000       4.105536       111.7173 
 384   0.0000       4.114952       111.9735 
 385   0.0000       4.119936       112.1092 
 386   0.0000       4.133452       112.4770 
 387   0.0000       4.141815       112.7045 
 388   0.0000       4.146938       112.8439 
 389   0.0000       4.160052       113.2008 
 390   0.0000       4.169479       113.4573 
 391   0.0000       4.179684       113.7350 
 392   0.0000       4.191694       114.0618 
 393   0.0000       4.214601       114.6851 
 394   0.0000       4.220875       114.8558 
 395   0.0000       4.236458       115.2799 
 396   0.0000       4.250259       115.6554 
 397   0.0000       4.268587       116.1542 
 398   0.0000       4.274088       116.3038 
 399   0.0000       4.292404       116.8022 
 400   0.0000       4.310876       117.3049 
 401   0.0000       4.313441       117.3747 
 402   0.0000       4.322436       117.6195 
 403   0.0000       4.345626       118.2505 
 404   0.0000       4.350783       118.3908 
 405   0.0000       4.370858       118.9371 
 406   0.0000       4.390282       119.4656 
 407   0.0000       4.399546       119.7177 
 408   0.0000       4.415719       120.1578 
 409   0.0000       4.430760       120.5671 
 410   0.0000       4.435115       120.6856 
 411   0.0000       4.440339       120.8278 
 412   0.0000       4.474775       121.7648 
 413   0.0000       4.510170       122.7280 
 414   0.0000       4.527199       123.1914 
 415   0.0000       4.534320       123.3851 
 416   0.0000       4.561437       124.1230 
 417   0.0000       4.587878       124.8425 
 418   0.0000       4.607339       125.3721 
 419   0.0000       4.651477       126.5731 
 420   0.0000       4.665229       126.9473 
 421   0.0000       4.685962       127.5115 
 422   0.0000       4.695046       127.7587 
 423   0.0000       4.741055       129.0107 
 424   0.0000       4.753164       129.3402 
 425   0.0000       4.756415       129.4286 
 426   0.0000       4.769759       129.7917 
 427   0.0000       4.799830       130.6100 
 428   0.0000       4.837590       131.6375 
 429   0.0000       4.843607       131.8013 
 430   0.0000       4.865083       132.3856 
 431   0.0000       4.884436       132.9123 
 432   0.0000       4.923328       133.9706 
 433   0.0000       4.935867       134.3118 
 434   0.0000       4.939007       134.3972 
 435   0.0000       4.956016       134.8601 
 436   0.0000       4.979462       135.4981 
 437   0.0000       5.040054       137.1468 
 438   0.0000       5.052201       137.4774 
 439   0.0000       5.082785       138.3096 
 440   0.0000       5.118040       139.2690 
 441   0.0000       5.133416       139.6873 
 442   0.0000       5.146835       140.0525 
 443   0.0000       5.178352       140.9101 
 444   0.0000       5.194748       141.3563 
 445   0.0000       5.212999       141.8529 
 446   0.0000       5.225472       142.1923 
 447   0.0000       5.265590       143.2840 
 448   0.0000       5.266856       143.3184 
 449   0.0000       5.277637       143.6118 
 450   0.0000       5.299909       144.2179 
 451   0.0000       5.323704       144.8654 
 452   0.0000       5.333714       145.1377 
 453   0.0000       5.360796       145.8747 
 454   0.0000       5.363364       145.9446 
 455   0.0000       5.404569       147.0658 
 456   0.0000       5.417260       147.4111 
 457   0.0000       5.422200       147.5456 
 458   0.0000       5.437877       147.9722 
 459   0.0000       5.481311       149.1540 
 460   0.0000       5.530349       150.4884 
 461   0.0000       5.531498       150.5197 
 462   0.0000       5.556409       151.1976 
 463   0.0000       5.592027       152.1668 
 464   0.0000       5.598273       152.3367 
 465   0.0000       5.618509       152.8874 
 466   0.0000       5.643298       153.5619 
 467   0.0000       5.646114       153.6386 
 468   0.0000       5.670788       154.3100 
 469   0.0000       5.699989       155.1046 
 470   0.0000       5.728730       155.8867 
 471   0.0000       5.784540       157.4053 
 472   0.0000       5.863751       159.5608 
 473   0.0000       5.865947       159.6205 
 474   0.0000       5.887122       160.1967 
 475   0.0000       5.962300       162.2424 
 476   0.0000       5.984017       162.8334 
 477   0.0000       6.033164       164.1707 
 478   0.0000       6.115492       166.4110 
 479   0.0000       6.277295       170.8139 
 480   0.0000       6.330776       172.2692 
 481   0.0000       6.346970       172.7098 
 482   0.0000       6.523659       177.5178 
 483   0.0000       6.594177       179.4367 
 484   0.0000       6.753871       183.7822 
 485   0.0000       6.954358       189.2377 
 486   0.0000       7.042603       191.6390 
 487   0.0000       7.249631       197.2725 
 488   0.0000       7.324738       199.3163 
 489   0.0000       7.904004       215.0789 
 490   0.0000      22.785763       620.0321 
 491   0.0000      23.217517       631.7808 
 492   0.0000      23.419191       637.2686 
 493   0.0000      23.467747       638.5898 
 494   0.0000      23.692033       644.6930 
 495   0.0000      23.728833       645.6944 
 496   0.0000      23.952708       651.7863 
 497   0.0000      24.069512       654.9647 
 498   0.0000      24.320079       661.7830 
 499   0.0000      33.474841       910.8967 
 500   0.0000      44.460985      1209.8449 

                    ********************************
                    * MULLIKEN POPULATION ANALYSIS *
                    ********************************

-----------------------
MULLIKEN ATOMIC CHARGES
-----------------------
   0 C :   -0.252281
   1 N :   -0.106771
   2 C :   -0.085353
   3 C :   -0.030338
   4 C :   -0.146735
   5 C :   -0.005369
   6 Br:   -0.037722
   7 C :   -0.082164
   8 C :   -0.168457
   9 C :    0.043168
  10 C :    0.188123
  11 O :   -0.369937
  12 H :    0.121619
  13 H :    0.121628
  14 H :    0.142089
  15 H :    0.124832
  16 H :    0.124845
  17 H :    0.134291
  18 H :    0.132600
  19 H :    0.151932
Sum of atomic charges:    0.0000000

--------------------------------
MULLIKEN REDUCED ORBITAL CHARGES
--------------------------------
  0 C s       :     3.241947  s :     3.241947
      pz      :     1.069738  p :     2.921091
      px      :     0.780813
      py      :     1.070540
      dz2     :     0.006995  d :     0.083653
      dxz     :     0.026278
      dyz     :     0.018351
      dx2y2   :     0.012055
      dxy     :     0.019974
      f0      :     0.000872  f :     0.005590
      f+1     :     0.000559
      f-1     :     0.000493
      f+2     :     0.000942
      f-2     :     0.000423
      f+3     :     0.001186
      f-3     :     0.001115
  1 N s       :     3.432036  s :     3.432036
      pz      :     1.567926  p :     3.592894
      px      :     0.988633
      py      :     1.036335
      dz2     :     0.005164  d :     0.077060
      dxz     :     0.011073
      dyz     :     0.011404
      dx2y2   :     0.023217
      dxy     :     0.026202
      f0      :     0.000759  f :     0.004781
      f+1     :     0.000728
      f-1     :     0.000654
      f+2     :     0.000283
      f-2     :     0.000384
      f+3     :     0.001031
      f-3     :     0.000942
  2 C s       :     3.225121  s :     3.225121
      pz      :     1.072324  p :     2.733124
      px      :     0.771584
      py      :     0.889216
      dz2     :     0.006906  d :     0.119003
      dxz     :     0.025241
      dyz     :     0.044430
      dx2y2   :     0.024672
      dxy     :     0.017755
      f0      :     0.001138  f :     0.008104
      f+1     :     0.000534
      f-1     :     0.000858
      f+2     :     0.000015
      f-2     :     0.001952
      f+3     :     0.001969
      f-3     :     0.001638
  3 C s       :     3.244825  s :     3.244825
      pz      :     0.917568  p :     2.647001
      px      :     0.856030
      py      :     0.873403
      dz2     :     0.004831  d :     0.128035
      dxz     :     0.024417
      dyz     :     0.022869
      dx2y2   :     0.035045
      dxy     :     0.040873
      f0      :     0.001784  f :     0.010477
      f+1     :     0.000891
      f-1     :     0.000674
      f+2     :     0.001151
      f-2     :     0.000932
      f+3     :     0.002438
      f-3     :     0.002607
  4 C s       :     3.138627  s :     3.138627
      pz      :     0.984162  p :     2.909372
      px      :     0.918391
      py      :     1.006818
      dz2     :     0.003975  d :     0.091205
      dxz     :     0.019943
      dyz     :     0.009151
      dx2y2   :     0.026428
      dxy     :     0.031709
      f0      :     0.001506  f :     0.007531
      f+1     :     0.000635
      f-1     :     0.000605
      f+2     :     0.000529
      f-2     :     0.000802
      f+3     :     0.001528
      f-3     :     0.001926
  5 C s       :     3.261767  s :     3.261767
      pz      :     0.969529  p :     2.575466
      px      :     0.764446
      py      :     0.841492
      dz2     :     0.007453  d :     0.158586
      dxz     :     0.023651
      dyz     :     0.027448
      dx2y2   :     0.053660
      dxy     :     0.046374
      f0      :     0.001924  f :     0.009550
      f+1     :     0.000889
      f-1     :     0.000658
      f+2     :     0.000759
      f-2     :     0.000999
      f+3     :     0.001849
      f-3     :     0.002473
  6 Brs       :     7.875452  s :     7.875452
      pz      :     5.942171  p :    17.105604
      px      :     5.222009
      py      :     5.941423
      dz2     :     2.006482  d :    10.049361
      dxz     :     2.015045
      dyz     :     2.000887
      dx2y2   :     2.018209
      dxy     :     2.008738
      f0      :     0.000781  f :     0.007305
      f+1     :     0.001420
      f-1     :     0.000148
      f+2     :     0.000969
      f-2     :     0.000196
      f+3     :     0.002158
      f-3     :     0.001633
  7 C s       :     3.153035  s :     3.153035
      pz      :     0.970060  p :     2.835239
      px      :     0.957669
      py      :     0.907509
      dz2     :     0.004868  d :     0.086391
      dxz     :     0.014075
      dyz     :     0.014411
      dx2y2   :     0.016576
      dxy     :     0.036460
      f0      :     0.001514  f :     0.007499
      f+1     :     0.000605
      f-1     :     0.000617
      f+2     :     0.001026
      f-2     :     0.000289
      f+3     :     0.001470
      f-3     :     0.001979
  8 C s       :     3.205797  s :     3.205797
      pz      :     0.917962  p :     2.866543
      px      :     0.924590
      py      :     1.023991
      dz2     :     0.003259  d :     0.088762
      dxz     :     0.021832
      dyz     :     0.009023
      dx2y2   :     0.027247
      dxy     :     0.027401
      f0      :     0.001442  f :     0.007356
      f+1     :     0.000591
      f-1     :     0.000552
      f+2     :     0.000557
      f-2     :     0.000793
      f+3     :     0.001447
      f-3     :     0.001973
  9 C s       :     3.238763  s :     3.238763
      pz      :     0.974114  p :     2.601732
      px      :     0.796400
      py      :     0.831218
      dz2     :     0.006229  d :     0.105940
      dxz     :     0.014629
      dyz     :     0.024231
      dx2y2   :     0.036979
      dxy     :     0.023871
      f0      :     0.001922  f :     0.010397
      f+1     :     0.000865
      f-1     :     0.000694
      f+2     :     0.000620
      f-2     :     0.001034
      f+3     :     0.002151
      f-3     :     0.003110
 10 C s       :     3.091590  s :     3.091590
      pz      :     0.780797  p :     2.437412
      px      :     0.866267
      py      :     0.790348
      dz2     :     0.007337  d :     0.260640
      dxz     :     0.028625
      dyz     :     0.073527
      dx2y2   :     0.109624
      dxy     :     0.041527
      f0      :     0.002859  f :     0.022236
      f+1     :     0.001106
      f-1     :     0.001571
      f+2     :     0.001653
      f-2     :     0.002964
      f+3     :     0.004385
      f-3     :     0.007698
 11 O s       :     3.801102  s :     3.801102
      pz      :     1.442805  p :     4.535617
      px      :     1.601568
      py      :     1.491244
      dz2     :     0.002879  d :     0.031328
      dxz     :     0.004001
      dyz     :     0.007083
      dx2y2   :     0.007960
      dxy     :     0.009404
      f0      :     0.000197  f :     0.001890
      f+1     :     0.000085
      f-1     :     0.000145
      f+2     :     0.000042
      f-2     :     0.000408
      f+3     :     0.000492
      f-3     :     0.000519
 12 H s       :     0.848952  s :     0.848952
      pz      :     0.011301  p :     0.027181
      px      :     0.006794
      py      :     0.009086
      dz2     :     0.000692  d :     0.002247
      dxz     :     0.000484
      dyz     :     0.000471
      dx2y2   :     0.000263
      dxy     :     0.000337
 13 H s       :     0.848946  s :     0.848946
      pz      :     0.011299  p :     0.027179
      px      :     0.006795
      py      :     0.009086
      dz2     :     0.000692  d :     0.002247
      dxz     :     0.000484
      dyz     :     0.000471
      dx2y2   :     0.000264
      dxy     :     0.000337
 14 H s       :     0.825181  s :     0.825181
      pz      :     0.008304  p :     0.030368
      px      :     0.009587
      py      :     0.012477
      dz2     :     0.000175  d :     0.002362
      dxz     :     0.000214
      dyz     :     0.000543
      dx2y2   :     0.000854
      dxy     :     0.000577
 15 H s       :     0.843151  s :     0.843151
      pz      :     0.011943  p :     0.029543
      px      :     0.007865
      py      :     0.009735
      dz2     :     0.000737  d :     0.002474
      dxz     :     0.000520
      dyz     :     0.000514
      dx2y2   :     0.000207
      dxy     :     0.000496
 16 H s       :     0.843146  s :     0.843146
      pz      :     0.011940  p :     0.029535
      px      :     0.007864
      py      :     0.009732
      dz2     :     0.000737  d :     0.002474
      dxz     :     0.000520
      dyz     :     0.000514
      dx2y2   :     0.000207
      dxy     :     0.000496
 17 H s       :     0.828970  s :     0.828970
      pz      :     0.010594  p :     0.034297
      px      :     0.009718
      py      :     0.013984
      dz2     :     0.000141  d :     0.002442
      dxz     :     0.000093
      dyz     :     0.000659
      dx2y2   :     0.000718
      dxy     :     0.000831
 18 H s       :     0.831508  s :     0.831508
      pz      :     0.010832  p :     0.033430
      px      :     0.010253
      py      :     0.012345
      dz2     :     0.000142  d :     0.002463
      dxz     :     0.000365
      dyz     :     0.000410
      dx2y2   :     0.001034
      dxy     :     0.000512
 19 H s       :     0.814212  s :     0.814212
      pz      :     0.009522  p :     0.031531
      px      :     0.008121
      py      :     0.013888
      dz2     :     0.000129  d :     0.002324
      dxz     :     0.000097
      dyz     :     0.000607
      dx2y2   :     0.000720
      dxy     :     0.000770


                     *******************************
                     * LOEWDIN POPULATION ANALYSIS *
                     *******************************

----------------------
LOEWDIN ATOMIC CHARGES
----------------------
   0 C :   -0.009388
   1 N :    0.260742
   2 C :   -0.017242
   3 C :   -0.042660
   4 C :   -0.023679
   5 C :   -0.333486
   6 Br:    0.355808
   7 C :   -0.029414
   8 C :    0.033805
   9 C :   -0.061027
  10 C :   -0.376686
  11 O :    0.077771
  12 H :    0.007975
  13 H :    0.007979
  14 H :    0.023495
  15 H :    0.025234
  16 H :    0.025229
  17 H :    0.022260
  18 H :    0.021311
  19 H :    0.031974

-------------------------------
LOEWDIN REDUCED ORBITAL CHARGES
-------------------------------
  0 C s       :     2.703677  s :     2.703677
      pz      :     1.030237  p :     2.898842
      px      :     0.845683
      py      :     1.022922
      dz2     :     0.050973  d :     0.359782
      dxz     :     0.083522
      dyz     :     0.073258
      dx2y2   :     0.064904
      dxy     :     0.087125
      f0      :     0.005018  f :     0.047088
      f+1     :     0.006710
      f-1     :     0.004800
      f+2     :     0.008449
      f-2     :     0.003808
      f+3     :     0.009872
      f-3     :     0.008430
  1 N s       :     2.865632  s :     2.865632
      pz      :     1.357489  p :     3.573082
      px      :     1.087318
      py      :     1.128274
      dz2     :     0.017243  d :     0.280959
      dxz     :     0.036925
      dyz     :     0.035461
      dx2y2   :     0.091996
      dxy     :     0.099334
      f0      :     0.002015  f :     0.019586
      f+1     :     0.001621
      f-1     :     0.001859
      f+2     :     0.001820
      f-2     :     0.002202
      f+3     :     0.005514
      f-3     :     0.004554
  2 C s       :     2.684391  s :     2.684391
      pz      :     1.022161  p :     2.803979
      px      :     0.860497
      py      :     0.921322
      dz2     :     0.054721  d :     0.468926
      dxz     :     0.071923
      dyz     :     0.139335
      dx2y2   :     0.089354
      dxy     :     0.113594
      f0      :     0.005981  f :     0.059946
      f+1     :     0.006332
      f-1     :     0.005875
      f+2     :     0.004084
      f-2     :     0.011628
      f+3     :     0.014355
      f-3     :     0.011691
  3 C s       :     2.688309  s :     2.688309
      pz      :     0.816412  p :     2.786064
      px      :     0.982861
      py      :     0.986791
      dz2     :     0.032643  d :     0.508540
      dxz     :     0.083647
      dyz     :     0.069744
      dx2y2   :     0.146260
      dxy     :     0.176247
      f0      :     0.003998  f :     0.059746
      f+1     :     0.004585
      f-1     :     0.003682
      f+2     :     0.008150
      f-2     :     0.006314
      f+3     :     0.016304
      f-3     :     0.016712
  4 C s       :     2.715823  s :     2.715823
      pz      :     0.863257  p :     2.872249
      px      :     1.018942
      py      :     0.990051
      dz2     :     0.026521  d :     0.391019
      dxz     :     0.068150
      dyz     :     0.024054
      dx2y2   :     0.136925
      dxy     :     0.135370
      f0      :     0.002564  f :     0.044588
      f+1     :     0.004152
      f-1     :     0.003420
      f+2     :     0.004048
      f-2     :     0.006136
      f+3     :     0.011030
      f-3     :     0.013239
  5 C s       :     2.778511  s :     2.778511
      pz      :     0.897662  p :     2.949677
      px      :     0.965749
      py      :     1.086266
      dz2     :     0.036927  d :     0.550996
      dxz     :     0.071931
      dyz     :     0.084181
      dx2y2   :     0.198346
      dxy     :     0.159611
      f0      :     0.003755  f :     0.054302
      f+1     :     0.004100
      f-1     :     0.004335
      f+2     :     0.004958
      f-2     :     0.007126
      f+3     :     0.012743
      f-3     :     0.017286
  6 Brs       :     7.570986  s :     7.570986
      pz      :     5.875794  p :    16.941096
      px      :     5.215478
      py      :     5.849824
      dz2     :     2.015061  d :    10.117109
      dxz     :     2.032674
      dyz     :     2.001741
      dx2y2   :     2.041222
      dxy     :     2.026412
      f0      :     0.001510  f :     0.015001
      f+1     :     0.002667
      f-1     :     0.000302
      f+2     :     0.001996
      f-2     :     0.000359
      f+3     :     0.004421
      f-3     :     0.003746
  7 C s       :     2.721441  s :     2.721441
      pz      :     0.855792  p :     2.873811
      px      :     1.019559
      py      :     0.998461
      dz2     :     0.026325  d :     0.390458
      dxz     :     0.047374
      dyz     :     0.043740
      dx2y2   :     0.109997
      dxy     :     0.163023
      f0      :     0.002542  f :     0.043704
      f+1     :     0.003703
      f-1     :     0.003714
      f+2     :     0.007589
      f-2     :     0.002222
      f+3     :     0.010843
      f-3     :     0.013090
  8 C s       :     2.713427  s :     2.713427
      pz      :     0.814685  p :     2.818583
      px      :     1.009097
      py      :     0.994801
      dz2     :     0.024309  d :     0.389849
      dxz     :     0.072344
      dyz     :     0.024136
      dx2y2   :     0.138810
      dxy     :     0.130250
      f0      :     0.002477  f :     0.044337
      f+1     :     0.003842
      f-1     :     0.003253
      f+2     :     0.004167
      f-2     :     0.005966
      f+3     :     0.010636
      f-3     :     0.013995
  9 C s       :     2.687827  s :     2.687827
      pz      :     0.853417  p :     2.822847
      px      :     0.958272
      py      :     1.011158
      dz2     :     0.036206  d :     0.491822
      dxz     :     0.050392
      dyz     :     0.075419
      dx2y2   :     0.188771
      dxy     :     0.141033
      f0      :     0.003965  f :     0.058532
      f+1     :     0.004325
      f-1     :     0.004371
      f+2     :     0.005188
      f-2     :     0.006667
      f+3     :     0.013326
      f-3     :     0.020689
 10 C s       :     2.714258  s :     2.714258
      pz      :     0.743970  p :     2.631573
      px      :     0.964905
      py      :     0.922699
      dz2     :     0.055747  d :     0.901729
      dxz     :     0.086607
      dyz     :     0.198616
      dx2y2   :     0.342438
      dxy     :     0.218322
      f0      :     0.008101  f :     0.129126
      f+1     :     0.006273
      f-1     :     0.009978
      f+2     :     0.010897
      f-2     :     0.021560
      f+3     :     0.025951
      f-3     :     0.046365
 11 O s       :     3.394745  s :     3.394745
      pz      :     1.357154  p :     4.454719
      px      :     1.569275
      py      :     1.528291
      dz2     :     0.008052  d :     0.066726
      dxz     :     0.005111
      dyz     :     0.009815
      dx2y2   :     0.019081
      dxy     :     0.024666
      f0      :     0.000467  f :     0.006039
      f+1     :     0.000413
      f-1     :     0.000687
      f+2     :     0.000122
      f-2     :     0.000744
      f+3     :     0.001846
      f-3     :     0.001760
 12 H s       :     0.819435  s :     0.819435
      pz      :     0.060463  p :     0.143211
      px      :     0.033303
      py      :     0.049445
      dz2     :     0.009183  d :     0.029378
      dxz     :     0.005777
      dyz     :     0.008019
[...]
  203. RY (18) C  5             0.00000     3.31923
  204. RY (19) C  5             0.00000     2.75947
  205. RY (20) C  5             0.00000     3.32540
  206. RY (21) C  5             0.00000     4.52572
  207. RY (22) C  5             0.00000     3.36725
  208. RY (23) C  5             0.00000     3.41976
  209. RY (24) C  5             0.00000     3.70455
  210. RY (25) C  5             0.00000     2.85900
  211. RY (26) C  5             0.00000    19.03209
  212. RY ( 1) C  6             0.00538     1.32452
  213. RY ( 2) C  6             0.00507     1.10746
  214. RY ( 3) C  6             0.00282     0.99976
  215. RY ( 4) C  6             0.00065     0.99560
  216. RY ( 5) C  6             0.00052     1.63878
  217. RY ( 6) C  6             0.00049     2.72779
  218. RY ( 7) C  6             0.00030     3.59041
  219. RY ( 8) C  6             0.00030     0.82602
  220. RY ( 9) C  6             0.00026     3.21916
  221. RY (10) C  6             0.00009     2.39090
  222. RY (11) C  6             0.00002     3.12803
  223. RY (12) C  6             0.00001     3.03720
  224. RY (13) C  6             0.00001     2.30890
  225. RY (14) C  6             0.00001     3.19982
  226. RY (15) C  6             0.00000     3.85620
  227. RY (16) C  6             0.00000     3.16857
  228. RY (17) C  6             0.00000     1.94752
  229. RY (18) C  6             0.00000     2.20534
  230. RY (19) C  6             0.00000     2.99589
  231. RY (20) C  6             0.00000     6.52225
  232. RY (21) C  6             0.00000     3.28648
  233. RY (22) C  6             0.00000     4.82478
  234. RY (23) C  6             0.00000     2.86344
  235. RY (24) C  6             0.00000     3.22380
  236. RY (25) C  6             0.00000    12.92468
  237. RY (26) C  6             0.00000     4.24762
  238. RY ( 1)Br  7             0.00294     0.73102
  239. RY ( 2)Br  7             0.00109     0.97688
  240. RY ( 3)Br  7             0.00020     0.87826
  241. RY ( 4)Br  7             0.00015     0.94192
  242. RY ( 5)Br  7             0.00010     0.52609
  243. RY ( 6)Br  7             0.00003     1.30618
  244. RY ( 7)Br  7             0.00002     1.14111
  245. RY ( 8)Br  7             0.00001     1.44463
  246. RY ( 9)Br  7             0.00000     1.52079
  247. RY (10)Br  7             0.00000     0.98517
  248. RY (11)Br  7             0.00000     3.11523
  249. RY (12)Br  7             0.00000     1.77318
  250. RY (13)Br  7             0.00000     2.63305
  251. RY (14)Br  7             0.00000     2.31472
  252. RY (15)Br  7             0.00000     3.60136
  253. RY (16)Br  7             0.00000     2.06674
  254. RY (17)Br  7             0.00000     2.36925
  255. RY (18)Br  7             0.00000     2.33253
  256. RY (19)Br  7             0.00000     3.33992
  257. RY (20)Br  7             0.00000     1.67695
  258. RY (21)Br  7             0.00000     3.89610
  259. RY (22)Br  7             0.00000     3.00012
  260. RY (23)Br  7             0.00000     2.24715
  261. RY (24)Br  7             0.00000     2.21376
  262. RY (25)Br  7             0.00000     1.61563
  263. RY (26)Br  7             0.00000     4.04107
  264. RY (27)Br  7             0.00000     3.75887
  265. RY (28)Br  7             0.00000     1.84516
  266. RY (29)Br  7             0.00000     2.58284
  267. RY (30)Br  7             0.00000     2.28614
  268. RY ( 1) C  8             0.00471     1.41851
  269. RY ( 2) C  8             0.00203     1.32948
  270. RY ( 3) C  8             0.00139     0.66888
  271. RY ( 4) C  8             0.00076     1.65632
  272. RY ( 5) C  8             0.00035     2.12116
  273. RY ( 6) C  8             0.00031     2.57756
  274. RY ( 7) C  8             0.00013     2.96553
  275. RY ( 8) C  8             0.00011     1.89521
  276. RY ( 9) C  8             0.00008     2.30437
  277. RY (10) C  8             0.00005     3.14729
  278. RY (11) C  8             0.00002     3.24393
  279. RY (12) C  8             0.00001     1.61914
  280. RY (13) C  8             0.00001     2.88274
  281. RY (14) C  8             0.00000     3.11360
  282. RY (15) C  8             0.00000     3.99876
  283. RY (16) C  8             0.00000     3.23811
  284. RY (17) C  8             0.00000     3.94020
  285. RY (18) C  8             0.00000    10.00746
  286. RY (19) C  8             0.00000     3.17938
  287. RY (20) C  8             0.00000     1.78130
  288. RY (21) C  8             0.00000     3.19271
  289. RY (22) C  8             0.00000     3.62679
  290. RY (23) C  8             0.00000    12.24829
  291. RY (24) C  8             0.00000     3.06759
  292. RY (25) C  8             0.00000     3.42858
  293. RY (26) C  8             0.00000     3.38487
  294. RY ( 1) C  9             0.00447     1.73551
  295. RY ( 2) C  9             0.00203     1.40144
  296. RY ( 3) C  9             0.00116     0.57537
  297. RY ( 4) C  9             0.00076     1.66116
  298. RY ( 5) C  9             0.00034     3.12646
  299. RY ( 6) C  9             0.00034     3.75573
  300. RY ( 7) C  9             0.00013     2.50299
  301. RY ( 8) C  9             0.00009     2.29861
  302. RY ( 9) C  9             0.00006     1.45006
  303. RY (10) C  9             0.00003     3.22464
  304. RY (11) C  9             0.00003     2.51040
  305. RY (12) C  9             0.00002     1.73861
  306. RY (13) C  9             0.00001     2.59418
  307. RY (14) C  9             0.00001     3.06347
  308. RY (15) C  9             0.00000     3.98021
  309. RY (16) C  9             0.00000     2.56546
  310. RY (17) C  9             0.00000     4.39708
  311. RY (18) C  9             0.00000     3.51098
  312. RY (19) C  9             0.00000     3.37431
  313. RY (20) C  9             0.00000    11.16132
  314. RY (21) C  9             0.00000     5.38211
  315. RY (22) C  9             0.00000     3.08396
  316. RY (23) C  9             0.00000     4.79404
  317. RY (24) C  9             0.00000     7.69568
  318. RY (25) C  9             0.00000     2.90719
  319. RY (26) C  9             0.00000     3.08917
  320. RY ( 1) C 10             0.00552     1.48612
  321. RY ( 2) C 10             0.00221     1.70861
  322. RY ( 3) C 10             0.00143     0.75229
  323. RY ( 4) C 10             0.00089     1.79671
  324. RY ( 5) C 10             0.00082     1.58721
  325. RY ( 6) C 10             0.00033     3.23540
  326. RY ( 7) C 10             0.00030     2.86714
  327. RY ( 8) C 10             0.00028     3.41374
  328. RY ( 9) C 10             0.00027     3.06127
  329. RY (10) C 10             0.00019     2.35763
  330. RY (11) C 10             0.00012     3.07430
  331. RY (12) C 10             0.00009     2.52768
  332. RY (13) C 10             0.00004     3.50845
  333. RY (14) C 10             0.00002     3.70673
  334. RY (15) C 10             0.00002     2.70997
  335. RY (16) C 10             0.00001     3.49924
  336. RY (17) C 10             0.00001     2.42478
  337. RY (18) C 10             0.00000     4.23564
  338. RY (19) C 10             0.00000     2.07972
  339. RY (20) C 10             0.00000     3.83156
  340. RY (21) C 10             0.00000     3.22815
  341. RY (22) C 10             0.00000     9.28441
  342. RY (23) C 10             0.00000     9.39239
  343. RY (24) C 10             0.00000     3.05963
  344. RY (25) C 10             0.00000     3.28495
  345. RY (26) C 10             0.00000     8.41356
  346. RY ( 1) C 11             0.01400     1.32409
  347. RY ( 2) C 11             0.00517     2.08193
  348. RY ( 3) C 11             0.00416     2.27341
  349. RY ( 4) C 11             0.00139     2.83754
  350. RY ( 5) C 11             0.00123     3.45692
  351. RY ( 6) C 11             0.00055     2.05366
  352. RY ( 7) C 11             0.00027     0.94423
  353. RY ( 8) C 11             0.00021     3.01823
  354. RY ( 9) C 11             0.00019     2.77527
  355. RY (10) C 11             0.00007     3.04456
  356. RY (11) C 11             0.00005     3.29399
  357. RY (12) C 11             0.00003     2.98018
  358. RY (13) C 11             0.00002     2.52993
  359. RY (14) C 11             0.00001     2.34941
  360. RY (15) C 11             0.00001     2.85122
  361. RY (16) C 11             0.00001     2.67157
  362. RY (17) C 11             0.00001     3.70843
  363. RY (18) C 11             0.00000     5.45055
  364. RY (19) C 11             0.00000     3.00779
  365. RY (20) C 11             0.00000     3.37310
  366. RY (21) C 11             0.00000    15.94139
  367. RY (22) C 11             0.00000     2.16802
  368. RY (23) C 11             0.00000     3.33704
  369. RY (24) C 11             0.00000     3.95172
  370. RY (25) C 11             0.00000     5.44760
  371. RY (26) C 11             0.00000     2.57859
  372. RY ( 1) O 12             0.00183     0.99892
  373. RY ( 2) O 12             0.00171     0.90882
  374. RY ( 3) O 12             0.00019     1.67916
  375. RY ( 4) O 12             0.00007     2.84303
  376. RY ( 5) O 12             0.00005     1.77311
  377. RY ( 6) O 12             0.00005     2.16347
  378. RY ( 7) O 12             0.00003     2.76008
  379. RY ( 8) O 12             0.00001     4.15299
  380. RY ( 9) O 12             0.00000     2.25472
  381. RY (10) O 12             0.00000     3.64857
  382. RY (11) O 12             0.00000     3.45580
  383. RY (12) O 12             0.00000     4.14240
  384. RY (13) O 12             0.00000     4.71890
  385. RY (14) O 12             0.00000     7.70826
  386. RY (15) O 12             0.00000    35.91188
  387. RY (16) O 12             0.00000     5.72467
  388. RY (17) O 12             0.00000     6.01846
  389. RY (18) O 12             0.00000     6.49710
  390. RY (19) O 12             0.00000     7.52825
  391. RY (20) O 12             0.00000     6.29606
  392. RY (21) O 12             0.00000     7.06736
  393. RY (22) O 12             0.00000     5.49350
  394. RY (23) O 12             0.00000     5.61540
  395. RY (24) O 12             0.00000     4.89814
  396. RY (25) O 12             0.00000     6.62843
  397. RY (26) O 12             0.00000     5.14462
  398. RY ( 1) H 13             0.00100     0.72981
  399. RY ( 2) H 13             0.00012     3.76685
  400. RY ( 3) H 13             0.00009     3.45166
  401. RY ( 4) H 13             0.00006     2.04204
  402. RY ( 5) H 13             0.00002     2.74526
  403. RY ( 6) H 13             0.00001     1.66058
  404. RY ( 7) H 13             0.00000     2.86505
  405. RY ( 8) H 13             0.00000     3.66531
  406. RY ( 9) H 13             0.00000     4.00186
  407. RY (10) H 13             0.00000     4.10651
  408. RY (11) H 13             0.00000     4.49531
  409. RY (12) H 13             0.00000     3.85514
  410. RY (13) H 13             0.00000     4.35416
  411. RY ( 1) H 14             0.00100     0.72981
  412. RY ( 2) H 14             0.00012     3.76685
  413. RY ( 3) H 14             0.00009     3.45183
  414. RY ( 4) H 14             0.00006     2.04174
  415. RY ( 5) H 14             0.00002     2.74532
  416. RY ( 6) H 14             0.00001     1.66077
  417. RY ( 7) H 14             0.00000     2.86410
  418. RY ( 8) H 14             0.00000     3.66517
  419. RY ( 9) H 14             0.00000     4.00228
  420. RY (10) H 14             0.00000     4.10631
  421. RY (11) H 14             0.00000     4.49550
  422. RY (12) H 14             0.00000     3.85519
  423. RY (13) H 14             0.00000     4.35466
  424. RY ( 1) H 15             0.00088     0.93016
  425. RY ( 2) H 15             0.00014     3.65166
  426. RY ( 3) H 15             0.00013     1.76395
  427. RY ( 4) H 15             0.00008     3.55101
  428. RY ( 5) H 15             0.00003     2.41598
  429. RY ( 6) H 15             0.00002     2.02038
  430. RY ( 7) H 15             0.00000     3.01254
  431. RY ( 8) H 15             0.00000     4.24190
  432. RY ( 9) H 15             0.00000     3.30656
  433. RY (10) H 15             0.00000     4.73501
  434. RY (11) H 15             0.00000     4.51155
  435. RY (12) H 15             0.00000     4.07787
  436. RY (13) H 15             0.00000     3.76502
  437. RY ( 1) H 16             0.00130     0.81409
  438. RY ( 2) H 16             0.00019     2.14165
  439. RY ( 3) H 16             0.00015     3.39532
  440. RY ( 4) H 16             0.00008     3.95045
  441. RY ( 5) H 16             0.00003     3.05603
  442. RY ( 6) H 16             0.00001     3.02800
  443. RY ( 7) H 16             0.00001     3.93222
  444. RY ( 8) H 16             0.00000     2.69675
  445. RY ( 9) H 16             0.00000     3.12188
  446. RY (10) H 16             0.00000     3.68579
  447. RY (11) H 16             0.00000     3.76679
  448. RY (12) H 16             0.00000     4.14025
  449. RY (13) H 16             0.00000     4.14957
  450. RY ( 1) H 17             0.00130     0.81417
  451. RY ( 2) H 17             0.00019     2.14210
  452. RY ( 3) H 17             0.00015     3.39484
  453. RY ( 4) H 17             0.00008     3.95051
  454. RY ( 5) H 17             0.00003     3.05622
  455. RY ( 6) H 17             0.00001     3.02712
  456. RY ( 7) H 17             0.00001     3.93438
  457. RY ( 8) H 17             0.00000     2.69501
  458. RY ( 9) H 17             0.00000     3.12274
  459. RY (10) H 17             0.00000     3.68423
  460. RY (11) H 17             0.00000     3.76760
  461. RY (12) H 17             0.00000     4.13977
  462. RY (13) H 17             0.00000     4.15012
  463. RY ( 1) H 18             0.00087     0.61844
  464. RY ( 2) H 18             0.00022     2.74960
  465. RY ( 3) H 18             0.00014     3.18592
  466. RY ( 4) H 18             0.00013     2.64415
  467. RY ( 5) H 18             0.00006     2.92199
  468. RY ( 6) H 18             0.00001     2.76590
  469. RY ( 7) H 18             0.00001     3.69685
  470. RY ( 8) H 18             0.00000     4.11329
  471. RY ( 9) H 18             0.00000     3.78703
  472. RY (10) H 18             0.00000     3.50125
  473. RY (11) H 18             0.00000     3.81776
  474. RY (12) H 18             0.00000     4.20087
  475. RY (13) H 18             0.00000     4.13184
  476. RY ( 1) H 19             0.00064     0.74379
  477. RY ( 2) H 19             0.00018     2.83658
  478. RY ( 3) H 19             0.00014     3.01657
  479. RY ( 4) H 19             0.00013     2.66579
  480. RY ( 5) H 19             0.00006     2.80801
  481. RY ( 6) H 19             0.00001     2.67901
  482. RY ( 7) H 19             0.00001     2.63258
  483. RY ( 8) H 19             0.00000     4.56797
  484. RY ( 9) H 19             0.00000     3.53951
  485. RY (10) H 19             0.00000     3.99866
  486. RY (11) H 19             0.00000     4.47230
  487. RY (12) H 19             0.00000     4.24234
  488. RY (13) H 19             0.00000     3.70424
  489. RY ( 1) H 20             0.00057     0.78554
  490. RY ( 2) H 20             0.00016     2.94196
  491. RY ( 3) H 20             0.00014     2.92082
  492. RY ( 4) H 20             0.00011     2.83581
  493. RY ( 5) H 20             0.00005     2.68326
  494. RY ( 6) H 20             0.00001     3.38118
  495. RY ( 7) H 20             0.00000     2.74591
  496. RY ( 8) H 20             0.00000     3.29831
  497. RY ( 9) H 20             0.00000     4.91241
  498. RY (10) H 20             0.00000     3.36248
  499. RY (11) H 20             0.00000     4.19911
  500. RY (12) H 20             0.00000     4.01189
  501. RY (13) H 20             0.00000     4.22393
          -------------------------------
                 Total Lewis  109.99516  ( 98.2100%)
           Valence non-Lewis    1.86433  (  1.6646%)
           Rydberg non-Lewis    0.14051  (  0.1255%)
          -------------------------------
               Total unit  1  112.00000  (100.0000%)
              Charge unit  1    0.00000

 $CHOOSE
   LONE 2 1 7 3 12 2 END
   BOND S 1 2 S 1 13 S 1 14 S 1 15 S 2 3 S 2 11 S 3 4 S 3 16 S 3 17 S 4 5
        D 4 10 D 5 6 S 5 18 S 6 7 S 6 8 D 8 9 S 8 19 S 9 10 S 9 20 S 10 11
        D 11 12 END
 $END

 NBO analysis completed in 10.99 CPU seconds (11 wall seconds)
 Maximum scratch memory used by NBO was 2704164 words (20.63 MB)
Stopping NBO...-------
TIMINGS
-------

Total SCF time: 0 days 0 hours 1 min 12 sec 

Total time                  ....      72.530 sec
Sum of individual times     ....      71.090 sec  ( 98.0%)

Fock matrix formation       ....      57.275 sec  ( 79.0%)
  Split-RI-J                ....       3.159 sec  (  5.5% of F)
  Chain of spheres X        ....      47.385 sec  ( 82.7% of F)
  XC integration            ....       7.039 sec  ( 12.3% of F)
    Basis function eval.    ....       0.738 sec  ( 10.5% of XC)
    Density eval.           ....       2.128 sec  ( 30.2% of XC)
    XC-Functional eval.     ....       0.264 sec  (  3.7% of XC)
    XC-Potential eval.      ....       2.720 sec  ( 38.6% of XC)
Diagonalization             ....       0.447 sec  (  0.6%)
Density matrix formation    ....       0.037 sec  (  0.1%)
Population analysis         ....      11.145 sec  ( 15.4%)
Initial guess               ....       0.245 sec  (  0.3%)
Orbital Transformation      ....       0.000 sec  (  0.0%)
Orbital Orthonormalization  ....       0.000 sec  (  0.0%)
DIIS solution               ....       0.240 sec  (  0.3%)
SOSCF solution              ....       0.353 sec  (  0.5%)
Grid generation             ....       1.348 sec  (  1.9%)

Maximum memory used throughout the entire SCF-calculation: 100.4 MB

-------------------------   --------------------
FINAL SINGLE POINT ENERGY     -3051.798427096915
-------------------------   --------------------


                            ***************************************
                            *     ORCA property calculations      *
                            ***************************************

                                    ---------------------
                                    Active property flags
                                    ---------------------
   (+) Dipole Moment


------------------------------------------------------------------------------
                       ORCA ELECTRIC PROPERTIES CALCULATION
------------------------------------------------------------------------------

Dipole Moment Calculation                       ... on
Quadrupole Moment Calculation                   ... off
Polarizability Calculation                      ... off
GBWName                                         ... arbr_04_r2scan3c_wB97MV_nbo.gbw
Electron density                                ... arbr_04_r2scan3c_wB97MV_nbo.scfp
The origin for moment calculation is the CENTER OF MASS  = (-0.409923,  0.019077  0.000004)

-------------
DIPOLE MOMENT
-------------
                                X             Y             Z
Electronic contribution:    -45.93368       0.83856       0.00020
Nuclear contribution   :     45.91144      -2.13639      -0.00019
                        -----------------------------------------
Total Dipole Moment    :     -0.02224      -1.29782       0.00001
                        -----------------------------------------
Magnitude (a.u.)       :      1.29801
Magnitude (Debye)      :      3.29929



--------------------
Rotational spectrum 
--------------------
 
Rotational constants in cm-1:     0.077069     0.009808     0.008730 
Rotational constants in MHz :  2310.480207   294.048128   261.706648 

 Dipole components along the rotational axes: 
x,y,z [a.u.] :     0.050630    -1.297025     0.000009 
x,y,z [Debye]:     0.128692    -3.296775     0.000023 

 

Timings for individual modules:

Sum of individual times         ...       73.691 sec (=   1.228 min)
GTO integral calculation        ...        0.843 sec (=   0.014 min)   1.1 %
SCF iterations                  ...       72.847 sec (=   1.214 min)  98.9 %
                             ****ORCA TERMINATED NORMALLY****
TOTAL RUN TIME: 0 days 0 hours 1 minutes 14 seconds 346 msec
