
                                 *****************
                                 * O   R   C   A *
                                 *****************

                                            #,                                       
                                            ###                                      
                                            ####                                     
                                            #####                                    
                                            ######                                   
                                           ########,                                 
                                     ,,################,,,,,                         
                               ,,#################################,,                 
                          ,,##########################################,,             
                       ,#########################################, ''#####,          
                    ,#############################################,,   '####,        
                  ,##################################################,,,,####,       
                ,###########''''           ''''###############################       
              ,#####''   ,,,,##########,,,,          '''####'''          '####       
            ,##' ,,,,###########################,,,                        '##       
           ' ,,###''''                  '''############,,,                           
         ,,##''                                '''############,,,,        ,,,,,,###''
      ,#''                                            '''#######################'''  
     '                                                          ''''####''''         
             ,#######,   #######,   ,#######,      ##                                
            ,#'     '#,  ##    ##  ,#'     '#,    #''#        ######   ,####,        
            ##       ##  ##   ,#'  ##            #'  '#       #        #'  '#        
            ##       ##  #######   ##           ,######,      #####,   #    #        
            '#,     ,#'  ##    ##  '#,     ,#' ,#      #,         ##   #,  ,#        
             '#######'   ##     ##  '#######'  #'      '#     #####' # '####'        



                  #######################################################
                  #                        -***-                        #
                  #          Department of theory and spectroscopy      #
                  #    Directorship and core code : Frank Neese         #
                  #        Max Planck Institute fuer Kohlenforschung    #
                  #                Kaiser Wilhelm Platz 1               #
                  #                 D-45470 Muelheim/Ruhr               #
                  #                      Germany                        #
                  #                                                     #
                  #                  All rights reserved                #
                  #                        -***-                        #
                  #######################################################


                         Program Version 5.0.4 -  RELEASE  -


 With contributions from (in alphabetic order):
   Daniel Aravena         : Magnetic Suceptibility
   Michael Atanasov       : Ab Initio Ligand Field Theory (pilot matlab implementation)
   Alexander A. Auer      : GIAO ZORA, VPT2 properties, NMR spectrum
   Ute Becker             : Parallelization
   Giovanni Bistoni       : ED, misc. LED, open-shell LED, HFLD
   Martin Brehm           : Molecular dynamics
   Dmytro Bykov           : SCF Hessian
   Vijay G. Chilkuri      : MRCI spin determinant printing, contributions to CSF-ICE
   Dipayan Datta          : RHF DLPNO-CCSD density
   Achintya Kumar Dutta   : EOM-CC, STEOM-CC
   Dmitry Ganyushin       : Spin-Orbit,Spin-Spin,Magnetic field MRCI
   Miquel Garcia          : C-PCM and meta-GGA Hessian, CC/C-PCM, Gaussian charge scheme
   Yang Guo               : DLPNO-NEVPT2, F12-NEVPT2, CIM, IAO-localization
   Andreas Hansen         : Spin unrestricted coupled pair/coupled cluster methods
   Benjamin Helmich-Paris : MC-RPA, TRAH-SCF, COSX integrals
   Lee Huntington         : MR-EOM, pCC
   Robert Izsak           : Overlap fitted RIJCOSX, COSX-SCS-MP3, EOM
   Marcus Kettner         : VPT2
   Christian Kollmar      : KDIIS, OOCD, Brueckner-CCSD(T), CCSD density, CASPT2, CASPT2-K
   Simone Kossmann        : Meta GGA functionals, TD-DFT gradient, OOMP2, MP2 Hessian
   Martin Krupicka        : Initial AUTO-CI
   Lucas Lang             : DCDCAS
   Marvin Lechner         : AUTO-CI (C++ implementation), FIC-MRCC
   Dagmar Lenk            : GEPOL surface, SMD
   Dimitrios Liakos       : Extrapolation schemes; Compound Job, initial MDCI parallelization
   Dimitrios Manganas     : Further ROCIS development; embedding schemes
   Dimitrios Pantazis     : SARC Basis sets
   Anastasios Papadopoulos: AUTO-CI, single reference methods and gradients
   Taras Petrenko         : DFT Hessian,TD-DFT gradient, ASA, ECA, R-Raman, ABS, FL, XAS/XES, NRVS
   Peter Pinski           : DLPNO-MP2, DLPNO-MP2 Gradient
   Christoph Reimann      : Effective Core Potentials
   Marius Retegan         : Local ZFS, SOC
   Christoph Riplinger    : Optimizer, TS searches, QM/MM, DLPNO-CCSD(T), (RO)-DLPNO pert. Triples
   Tobias Risthaus        : Range-separated hybrids, TD-DFT gradient, RPA, STAB
   Michael Roemelt        : Original ROCIS implementation
   Masaaki Saitow         : Open-shell DLPNO-CCSD energy and density
   Barbara Sandhoefer     : DKH picture change effects
   Avijit Sen             : IP-ROCIS
   Kantharuban Sivalingam : CASSCF convergence, NEVPT2, FIC-MRCI
   Bernardo de Souza      : ESD, SOC TD-DFT
   Georgi Stoychev        : AutoAux, RI-MP2 NMR, DLPNO-MP2 response
   Willem Van den Heuvel  : Paramagnetic NMR
   Boris Wezisla          : Elementary symmetry handling
   Frank Wennmohs         : Technical directorship


 We gratefully acknowledge several colleagues who have allowed us to
 interface, adapt or use parts of their codes:
   Stefan Grimme, W. Hujo, H. Kruse, P. Pracht,  : VdW corrections, initial TS optimization,
                  C. Bannwarth, S. Ehlert          DFT functionals, gCP, sTDA/sTD-DF
   Ed Valeev, F. Pavosevic, A. Kumar             : LibInt (2-el integral package), F12 methods
   Garnet Chan, S. Sharma, J. Yang, R. Olivares  : DMRG
   Ulf Ekstrom                                   : XCFun DFT Library
   Mihaly Kallay                                 : mrcc  (arbitrary order and MRCC methods)
   Jiri Pittner, Ondrej Demel                    : Mk-CCSD
   Frank Weinhold                                : gennbo (NPA and NBO analysis)
   Christopher J. Cramer and Donald G. Truhlar   : smd solvation model
   Lars Goerigk                                  : TD-DFT with DH, B97 family of functionals
   V. Asgeirsson, H. Jonsson                     : NEB implementation
   FAccTs GmbH                                   : IRC, NEB, NEB-TS, DLPNO-Multilevel, CI-OPT
                                                   MM, QMMM, 2- and 3-layer-ONIOM, Crystal-QMMM,
                                                   LR-CPCM, SF, NACMEs, symmetry and pop. for TD-DFT,
                                                   nearIR, NL-DFT gradient (VV10), updates on ESD,
                                                   ML-optimized integration grids
   S Lehtola, MJT Oliveira, MAL Marques          : LibXC Library
   Liviu Ungur et al                             : ANISO software


 Your calculation uses the libint2 library for the computation of 2-el integrals
 For citations please refer to: http://libint.valeyev.net

 Your ORCA version has been built with support for libXC version: 5.1.0
 For citations please refer to: https://tddft.org/programs/libxc/

 This ORCA versions uses:
   CBLAS   interface :  Fast vector & matrix operations
   LAPACKE interface :  Fast linear algebra routines
   SCALAPACK package :  Parallel linear algebra routines
   Shared memory     :  Shared parallel matrices
   BLAS/LAPACK       :  OpenBLAS 0.3.15  USE64BITINT DYNAMIC_ARCH NO_AFFINITY SkylakeX SINGLE_THREADED
        Core in use  :  SkylakeX
   Copyright (c) 2011-2014, The OpenBLAS Project


Your calculation utilizes the DFT-NL dispersion correction.
Cite in your paper:
Vydrov, O. A.; Van Voorhis, T. J. Chem. Phys. 2010, 133, 244103
Hujo, W.; Grimme, S. J. Chem. Theory Comput. 2011, 7, 3866 
   

================================================================================

----- Orbital basis set information -----
Your calculation utilizes the basis: def2-TZVPP
   F. Weigend and R. Ahlrichs, Phys. Chem. Chem. Phys. 7, 3297 (2005).

----- AuxJ basis set information -----
Your calculation utilizes the auxiliary basis: def2/J
   F. Weigend, Phys. Chem. Chem. Phys. 8, 1057 (2006).

================================================================================
                                        WARNINGS
                       Please study these warnings very carefully!
================================================================================

Using LibXC functional ID 531 : wB97M-V exchange-correlation functional
[ 1]  N. Mardirossian and M. Head-Gordon, J. Chem. Phys. 144, 214110 (2016)
Using LibXC functional ID 531 : wB97M-V exchange-correlation functional
[ 1]  N. Mardirossian and M. Head-Gordon, J. Chem. Phys. 144, 214110 (2016)

WARNING: B97M-V or wB97M-V functional requested.
  ===> : libXC variant has now been activated.
         Any manually given DFX/HFX/RangeSep scaling parameters are IGNORED!

Your calculation utilizes LibXC
 by S Lehtola, C Steigemann, MJT Oliveira & MAL Marques
Please cite in your paper:
 S Lehtola, C Steigemann, MJT Oliveira & MAL Marques, SoftwareX, 7, (2018), 1.
   


INFO   : the flag for use of the SHARK integral package has been found!

================================================================================
                                       INPUT FILE
================================================================================
NAME = arbr_20_r2scan3c_wB97MV_nbo.inp
|  1> %PAL NPROCS 16 END
|  2> %maxcore 4000
|  3> # arbr_20_r2scan3c.out
|  4> ! wB97m-v def2-TZVPP def2/J RIJCOSX 
|  5> %nbo
|  6> NBOKEYLIST = "$NBO NBO NPA bndidx $END"
|  7> end
|  8> * xyz 0 1
|  9>   Br        1.76825        -0.00000        -0.00000
| 10>    C       -0.11355         0.00000         0.00001
| 11>    C       -0.83134         1.18506         0.00002
| 12>    N       -2.15797         1.18628         0.00001
| 13>    C       -2.75470        -0.00000        -0.00005
| 14>    N       -2.15797        -1.18628         0.00001
| 15>    C       -0.83134        -1.18506         0.00001
| 16>    H       -0.32651         2.14471         0.00001
| 17>    H       -3.83867        -0.00000         0.00006
| 18>    H       -0.32651        -2.14471         0.00001
| 19> *
| 20> 
| 21>                          ****END OF INPUT****
================================================================================

                       ****************************
                       * Single Point Calculation *
                       ****************************

---------------------------------
CARTESIAN COORDINATES (ANGSTROEM)
---------------------------------
  Br     1.768250   -0.000000   -0.000000
  C     -0.113550    0.000000    0.000010
  C     -0.831340    1.185060    0.000020
  N     -2.157970    1.186280    0.000010
  C     -2.754700   -0.000000   -0.000050
  N     -2.157970   -1.186280    0.000010
  C     -0.831340   -1.185060    0.000010
  H     -0.326510    2.144710    0.000010
  H     -3.838670   -0.000000    0.000060
  H     -0.326510   -2.144710    0.000010

----------------------------
CARTESIAN COORDINATES (A.U.)
----------------------------
  NO LB      ZA    FRAG     MASS         X           Y           Z
   0 Br   35.0000    0    79.900    3.341508   -0.000000   -0.000000
   1 C     6.0000    0    12.011   -0.214578    0.000000    0.000019
   2 C     6.0000    0    12.011   -1.571005    2.239439    0.000038
   3 N     7.0000    0    14.007   -4.077972    2.241744    0.000019
   4 C     6.0000    0    12.011   -5.205629   -0.000000   -0.000094
   5 N     7.0000    0    14.007   -4.077972   -2.241744    0.000019
   6 C     6.0000    0    12.011   -1.571005   -2.239439    0.000019
   7 H     1.0000    0     1.008   -0.617014    4.052915    0.000019
   8 H     1.0000    0     1.008   -7.254035   -0.000000    0.000113
   9 H     1.0000    0     1.008   -0.617014   -4.052915    0.000019

--------------------------------
INTERNAL COORDINATES (ANGSTROEM)
--------------------------------
 Br     0   0   0     0.000000000000     0.00000000     0.00000000
 C      1   0   0     1.881800000027     0.00000000     0.00000000
 C      2   1   0     1.385492579482   121.20325972     0.00000000
 N      3   2   1     1.326630561008   121.25595024   179.99913829
 C      4   3   2     1.327910740562   116.65090652     0.00000000
 N      5   4   3     1.327910740562   126.59280565     0.00000000
 C      6   5   4     1.326630560970   116.65090650     0.00000000
 H      3   2   1     1.084334566220   121.04984013     0.00000000
 H      5   4   3     1.083970005581   116.70359658   179.99300531
 H      7   6   5     1.084334566174   117.69420962   180.00289658

---------------------------
INTERNAL COORDINATES (A.U.)
---------------------------
 Br     0   0   0     0.000000000000     0.00000000     0.00000000
 C      1   0   0     3.556086638863     0.00000000     0.00000000
 C      2   1   0     2.618201535801   121.20325972     0.00000000
 N      3   2   1     2.506968441195   121.25595024   179.99913829
 C      4   3   2     2.509387629955   116.65090652     0.00000000
 N      5   4   3     2.509387629955   126.59280565     0.00000000
 C      6   5   4     2.506968441124   116.65090650     0.00000000
 H      3   2   1     2.049095367701   121.04984013     0.00000000
 H      5   4   3     2.048406447934   116.70359658   179.99300531
 H      7   6   5     2.049095367613   117.69420962   180.00289658

---------------------
BASIS SET INFORMATION
---------------------
There are 4 groups of distinct atoms

 Group   1 Type Br  : 17s13p8d1f contracted to 6s5p4d1f pattern {842111/64111/5111/1}
 Group   2 Type C   : 11s6p2d1f contracted to 5s3p2d1f pattern {62111/411/11/1}
 Group   3 Type N   : 11s6p2d1f contracted to 5s3p2d1f pattern {62111/411/11/1}
 Group   4 Type H   : 5s2p1d contracted to 3s2p1d pattern {311/11/1}

Atom   0Br   basis set group =>   1
Atom   1C    basis set group =>   2
Atom   2C    basis set group =>   2
Atom   3N    basis set group =>   3
Atom   4C    basis set group =>   2
Atom   5N    basis set group =>   3
Atom   6C    basis set group =>   2
Atom   7H    basis set group =>   4
Atom   8H    basis set group =>   4
Atom   9H    basis set group =>   4
---------------------------------
AUXILIARY/J BASIS SET INFORMATION
---------------------------------
There are 4 groups of distinct atoms

 Group   1 Type Br  : 19s5p5d3f1g contracted to 8s4p3d2f1g pattern {121111111/2111/311/21/1}
 Group   2 Type C   : 12s5p4d2f1g contracted to 6s4p3d1f1g pattern {711111/2111/211/2/1}
 Group   3 Type N   : 12s5p4d2f1g contracted to 6s4p3d1f1g pattern {711111/2111/211/2/1}
 Group   4 Type H   : 5s2p1d contracted to 3s1p1d pattern {311/2/1}

Atom   0Br   basis set group =>   1
Atom   1C    basis set group =>   2
Atom   2C    basis set group =>   2
Atom   3N    basis set group =>   3
Atom   4C    basis set group =>   2
Atom   5N    basis set group =>   3
Atom   6C    basis set group =>   2
Atom   7H    basis set group =>   4
Atom   8H    basis set group =>   4
Atom   9H    basis set group =>   4


           ************************************************************
           *        Program running with 16 parallel MPI-processes    *
           *              working on a common directory               *
           ************************************************************
------------------------------------------------------------------------------
                           ORCA GTO INTEGRAL CALCULATION
                           -- RI-GTO INTEGRALS CHOSEN --
------------------------------------------------------------------------------
------------------------------------------------------------------------------
                   ___                                                        
                  /   \      - P O W E R E D   B Y -                         
                 /     \                                                     
                 |  |  |   _    _      __       _____    __    __             
                 |  |  |  | |  | |    /  \     |  _  \  |  |  /  |          
                  \  \/   | |  | |   /    \    | | | |  |  | /  /          
                 / \  \   | |__| |  /  /\  \   | |_| |  |  |/  /          
                |  |  |   |  __  | /  /__\  \  |    /   |      \           
                |  |  |   | |  | | |   __   |  |    \   |  |\   \          
                \     /   | |  | | |  |  |  |  | |\  \  |  | \   \       
                 \___/    |_|  |_| |__|  |__|  |_| \__\ |__|  \__/        
                                                                              
                      - O R C A' S   B I G   F R I E N D -                    
                                      &                                       
                       - I N T E G R A L  F E E D E R -                       
                                                                              
 v1 FN, 2020, v2 2021                                                         
------------------------------------------------------------------------------


Reading SHARK input file arbr_20_r2scan3c_wB97MV_nbo.SHARKINP.tmp ... ok
----------------------
SHARK INTEGRAL PACKAGE
----------------------

Number of atoms                             ...     10
Number of basis functions                   ...    276
Number of shells                            ...    100
Maximum angular momentum                    ...      3
Integral batch strategy                     ... SHARK/LIBINT Hybrid
RI-J (if used) integral strategy            ... SPLIT-RIJ (Revised 2003 algorithm where possible)
Printlevel                                  ...      1
Contraction scheme used                     ... SEGMENTED contraction
Coulomb Range Separation                    ... NOT USED
Exchange Range Separation                   ... Long Range
   Mu parameter                             ...  0.300000
   Scaling (regular/separated)              ...  0.150000  0.850000
Finite Nucleus Model                        ... NOT USED
Auxiliary Coulomb fitting basis             ... AVAILABLE
   # of basis functions in Aux-J            ...    385
   # of shells in Aux-J                     ...    123
   Maximum angular momentum in Aux-J        ...      4
Auxiliary J/K fitting basis                 ... NOT available
Auxiliary Correlation fitting basis         ... NOT available
Auxiliary 'external' fitting basis          ... NOT available
Integral threshold                          ...     1.000000e-10
Primitive cut-off                           ...     1.000000e-11
Primitive pair pre-selection threshold      ...     1.000000e-11

Calculating pre-screening integrals         ... done (  0.1 sec) Dimension = 100
Organizing shell pair data                  ... done (  0.1 sec)
Shell pair information
Total number of shell pairs                 ...      5050
Shell pairs after pre-screening             ...      4627
Total number of primitive shell pairs       ...     17043
Primitive shell pairs kept                  ...     11620
          la=0 lb=0:    894 shell pairs
          la=1 lb=0:   1207 shell pairs
          la=1 lb=1:    417 shell pairs
          la=2 lb=0:    765 shell pairs
          la=2 lb=1:    517 shell pairs
          la=2 lb=2:    178 shell pairs
          la=3 lb=0:    296 shell pairs
          la=3 lb=1:    196 shell pairs
          la=3 lb=2:    129 shell pairs
          la=3 lb=3:     28 shell pairs

Calculating one electron integrals          ... done (  0.0 sec)
Calculating RI/J V-Matrix + Cholesky decomp.... done (  0.0 sec)
Calculating Nuclear repulsion               ... done (  0.0 sec) ENN=    440.895539983534 Eh

SHARK setup successfully completed in   0.4 seconds

Maximum memory used throughout the entire GTOINT-calculation: 22.0 MB


           ************************************************************
           *        Program running with 16 parallel MPI-processes    *
           *              working on a common directory               *
           ************************************************************
-------------------------------------------------------------------------------
                                 ORCA SCF
-------------------------------------------------------------------------------

------------
SCF SETTINGS
------------
Hamiltonian:
 Density Functional     Method          .... DFT(GTOs)
  Functional kind                       .... Exchange-Correlation
  Functional name                       .... wB97M-V exchange-correlation functional
  Functional family                     .... Hybrid MGGA
  Functional refs                              
    [ 0] N. Mardirossian and M. Head-Gordon, J. Chem. Phys. 144, 214110 (2016)
  Fraction of HF Exchange (short range) .... 0.1500
  Fraction of HF Exchange (long range)  .... 1.0000
  Range separation parameter mu         .... 0.3000
  Functional external parameters         .... 0
   Density functional embedding theory  .... OFF
 Long-range corrected/Screened/Range-Separated Hybrid DFT is turned on
   Amount of maximum screened exact exchange              ....  0.850000
   Range separation parameter mu (erf(mu*r12)/r12)        ....  0.300000
   NL short-range parameter             ....  6.000000
   NL long-range parameter              ....  0.010000
 RI-approximation to the Coulomb term is turned on
   Number of AuxJ basis functions       .... 385
   RIJ-COSX (HFX calculated with COS-X)).... on


General Settings:
 Integral files         IntName         .... arbr_20_r2scan3c_wB97MV_nbo
 Hartree-Fock type      HFTyp           .... RHF
 Total Charge           Charge          ....    0
 Multiplicity           Mult            ....    1
 Number of Electrons    NEL             ....   76
 Basis Dimension        Dim             ....  276
 Nuclear Repulsion      ENuc            ....    440.8955399835 Eh

Convergence Acceleration:
 DIIS                   CNVDIIS         .... on
   Start iteration      DIISMaxIt       ....    12
   Startup error        DIISStart       ....  0.200000
   # of expansion vecs  DIISMaxEq       ....     5
   Bias factor          DIISBfac        ....   1.050
   Max. coefficient     DIISMaxC        ....  10.000
 Trust-Rad. Augm. Hess. CNVTRAH         .... auto
   Auto Start mean grad. ratio tolernc. ....  1.125000
   Auto Start start iteration           ....    20
   Auto Start num. interpolation iter.  ....    10
   Max. Number of Micro iterations      ....    16
   Max. Number of Macro iterations      .... Maxiter - #DIIS iter
   Number of Davidson start vectors     ....     2
   Converg. threshold I  (grad. norm)   ....   5.000e-05
   Converg. threshold II (energy diff.) ....   1.000e-06
   Grad. Scal. Fac. for Micro threshold ....   0.100
   Minimum threshold for Micro iter.    ....   0.010
   NR start threshold (gradient norm)   ....   0.001
   Initial trust radius                 ....   0.400
   Minimum AH scaling param. (alpha)    ....   1.000
   Maximum AH scaling param. (alpha)    .... 1000.000
   Orbital update algorithm             .... Taylor
   White noise on init. David. guess    .... on
   Maximum white noise                  ....   0.010
   Quad. conv. algorithm                .... NR
 SOSCF                  CNVSOSCF        .... on
   Start iteration      SOSCFMaxIt      ....   150
   Startup grad/error   SOSCFStart      ....  0.003300
 Level Shifting         CNVShift        .... on
   Level shift para.    LevelShift      ....    0.2500
   Turn off err/grad.   ShiftErr        ....    0.0010
 Zerner damping         CNVZerner       .... off
 Static damping         CNVDamp         .... on
   Fraction old density DampFac         ....    0.7000
   Max. Damping (<1)    DampMax         ....    0.9800
   Min. Damping (>=0)   DampMin         ....    0.0000
   Turn off err/grad.   DampErr         ....    0.1000
 Fernandez-Rico         CNVRico         .... off

SCF Procedure:
 Maximum # iterations   MaxIter         ....   125
 SCF integral mode      SCFMode         .... Direct
   Integral package                     .... SHARK and LIBINT hybrid scheme
 Reset frequency        DirectResetFreq ....    20
 Integral Threshold     Thresh          ....  1.000e-10 Eh
 Primitive CutOff       TCut            ....  1.000e-11 Eh

Convergence Tolerance:
 Convergence Check Mode ConvCheckMode   .... Total+1el-Energy
 Convergence forced     ConvForced      .... 0
 Energy Change          TolE            ....  1.000e-06 Eh
 1-El. energy change                    ....  1.000e-03 Eh
 Orbital Gradient       TolG            ....  5.000e-05
 Orbital Rotation angle TolX            ....  5.000e-05
 DIIS Error             TolErr          ....  1.000e-06


Diagonalization of the overlap matrix:
Smallest eigenvalue                        ... 1.016e-04
Time for diagonalization                   ...    0.016 sec
Threshold for overlap eigenvalues          ... 1.000e-08
Number of eigenvalues below threshold      ... 0
Time for construction of square roots      ...    0.010 sec
Total time needed                          ...    0.027 sec

Time for model grid setup =    0.094 sec

------------------------------
INITIAL GUESS: MODEL POTENTIAL
------------------------------
Loading Hartree-Fock densities                     ... done
Calculating cut-offs                               ... done
Initializing the effective Hamiltonian             ... done
Setting up the integral package (SHARK)            ... done
Starting the Coulomb interaction                   ... done (   0.0 sec)
Reading the grid                                   ... done
Mapping shells                                     ... done
Starting the XC term evaluation                    ... done (   0.1 sec)
  promolecular density results
     # of electrons  =     75.998988030
     EX              =   -123.697606665
     EC              =     -3.094496431
     EX+EC           =   -126.792103096
Transforming the Hamiltonian                       ... done (   0.0 sec)
Diagonalizing the Hamiltonian                      ... done (   0.0 sec)
Back transforming the eigenvectors                 ... done (   0.0 sec)
Now organizing SCF variables                       ... done
                      ------------------
                      INITIAL GUESS DONE (   0.2 sec)
                      ------------------
-------------------
DFT GRID GENERATION
-------------------

General Integration Accuracy     IntAcc      ... 4.388
Radial Grid Type                 RadialGrid  ... OptM3 with GC (2021)
Angular Grid (max. ang.)         AngularGrid ... 4 (Lebedev-302)
Angular grid pruning method      GridPruning ... 4 (adaptive)
Weight generation scheme         WeightScheme... Becke
Basis function cutoff            BFCut       ... 1.0000e-10
Integration weight cutoff        WCut        ... 1.0000e-14
Angular grids for H and He will be reduced by one unit
Partially contracted basis set               ... off
Rotationally invariant grid construction     ... off

Total number of grid points                  ...    57262
Total number of batches                      ...      899
Average number of points per batch           ...       63
Average number of grid points per atom       ...     5726
Time for grid setup =    0.480 sec

--------------------
COSX GRID GENERATION
--------------------

GRIDX 1
-------
General Integration Accuracy     IntAcc      ... 3.816
Radial Grid Type                 RadialGrid  ... OptM3 with GC (2021)
Angular Grid (max. ang.)         AngularGrid ... 1 (Lebedev-50)
Angular grid pruning method      GridPruning ... 4 (adaptive)
Weight generation scheme         WeightScheme... Becke
Basis function cutoff            BFCut       ... 1.0000e-10
Integration weight cutoff        WCut        ... 1.0000e-14
Angular grids for H and He will be reduced by one unit
Partially contracted basis set               ... on
Rotationally invariant grid construction     ... off

Total number of grid points                  ...     7070
Total number of batches                      ...      115
Average number of points per batch           ...       61
Average number of grid points per atom       ...      707
UseSFitting                                  ... on

GRIDX 2
-------
General Integration Accuracy     IntAcc      ... 4.020
Radial Grid Type                 RadialGrid  ... OptM3 with GC (2021)
Angular Grid (max. ang.)         AngularGrid ... 2 (Lebedev-110)
Angular grid pruning method      GridPruning ... 4 (adaptive)
Weight generation scheme         WeightScheme... Becke
Basis function cutoff            BFCut       ... 1.0000e-10
Integration weight cutoff        WCut        ... 1.0000e-14
Angular grids for H and He will be reduced by one unit
Partially contracted basis set               ... on
Rotationally invariant grid construction     ... off

Total number of grid points                  ...    15886
Total number of batches                      ...      254
Average number of points per batch           ...       62
Average number of grid points per atom       ...     1589
UseSFitting                                  ... on

GRIDX 3
-------
General Integration Accuracy     IntAcc      ... 4.338
Radial Grid Type                 RadialGrid  ... OptM3 with GC (2021)
Angular Grid (max. ang.)         AngularGrid ... 3 (Lebedev-194)
Angular grid pruning method      GridPruning ... 4 (adaptive)
Weight generation scheme         WeightScheme... Becke
Basis function cutoff            BFCut       ... 1.0000e-10
Integration weight cutoff        WCut        ... 1.0000e-14
Angular grids for H and He will be reduced by one unit
Partially contracted basis set               ... on
Rotationally invariant grid construction     ... off

Total number of grid points                  ...    35409
Total number of batches                      ...      558
Average number of points per batch           ...       63
Average number of grid points per atom       ...     3541
UseSFitting                                  ... on

Time for X-Grid setup             =    0.343 sec

--------------
SCF ITERATIONS
--------------
ITER       Energy         Delta-E        Max-DP      RMS-DP      [F,P]     Damp
               ***  Starting incremental Fock matrix formation  ***
  0  -2837.9059633469   0.000000000000 0.02911094  0.00074021  0.1986270 0.7000
  1  -2837.9635666289  -0.057603282058 0.02912526  0.00062123  0.1124295 0.7000
                               ***Turning on DIIS***
  2  -2837.9925609776  -0.028994348667 0.05591431  0.00130009  0.0546870 0.0000
  3  -2838.0406117221  -0.048050744525 0.02305060  0.00045168  0.0408049 0.0000
  4  -2838.0480901633  -0.007478441206 0.00855894  0.00017689  0.0046170 0.0000
                      *** Initiating the SOSCF procedure ***
                           *** Shutting down DIIS ***
                      *** Re-Reading the Fockian *** 
                      *** Removing any level shift *** 
ITER      Energy       Delta-E        Grad      Rot      Max-DP    RMS-DP
  5  -2838.04830964  -0.0002194748  0.001331  0.001331  0.003769  0.000076
               *** Restarting incremental Fock matrix formation ***
  6  -2838.04834160  -0.0000319630  0.000876  0.002217  0.002744  0.000050
  7  -2838.04835578  -0.0000141832  0.000420  0.001499  0.001872  0.000038
  8  -2838.04835766  -0.0000018779  0.000320  0.000493  0.000691  0.000014
  9  -2838.04835898  -0.0000013146  0.000039  0.000077  0.000072  0.000002
                 **** Energy Check signals convergence ****
              ***Rediagonalizing the Fockian in SOSCF/NRSCF***

               *****************************************************
               *                     SUCCESS                       *
               *           SCF CONVERGED AFTER  10 CYCLES          *
               *****************************************************

Old exchange energy                            =    -29.027750912 Eh
New exchange energy                            =    -29.027755773 Eh
Exchange energy change after final integration =     -0.000004861 Eh
Total energy after final integration           =  -2838.048363840 Eh
Final COS-X integration done in                =     3.468 sec

------------------
NL GRID GENERATION
------------------

General Integration Accuracy     IntAcc      ... 4.004
Radial Grid Type                 RadialGrid  ... OptM3 with GC (2021)
Angular Grid (max. ang.)         AngularGrid ... 2 (Lebedev-110)
Angular grid pruning method      GridPruning ... 4 (adaptive)
Weight generation scheme         WeightScheme... Becke
Basis function cutoff            BFCut       ... 1.0000e-10
Integration weight cutoff        WCut        ... 1.0000e-14
Angular grids for H and He will be reduced by one unit
Partially contracted basis set               ... off
Rotationally invariant grid construction     ... off

Total number of grid points                  ...    20608
Total number of batches                      ...      328
Average number of points per batch           ...       62
Average number of grid points per atom       ...     2061
Final grid set up in    0.1 sec

-------------------------------------------------------------------------------
                    post-SCF DFT-NL dispersion correction                      
-------------------------------------------------------------------------------

SCF Energy:   -2838.048363840 
NL    Energy:  0.302222508 
SC+NL Energy: -2837.746141332 
NL done in:    0.2 sec
-------------------------------------------------------------------------------

----------------
TOTAL SCF ENERGY
----------------

Total Energy       :        -2837.74614133 Eh          -77218.99824 eV

Components:
Nuclear Repulsion  :          440.89553998 Eh           11997.37758 eV
Electronic Energy  :        -3278.64168132 Eh          -89216.37582 eV
One Electron Energy:        -4813.79023721 Eh         -130989.89175 eV
Two Electron Energy:         1535.14855590 Eh           41773.51593 eV
Max COSX asymmetry :            0.00000695 Eh               0.00019 eV

Virial components:
Potential Energy   :        -5671.79270087 Eh         -154337.32575 eV
Kinetic Energy     :         2834.04655954 Eh           77118.32751 eV
Virial Ratio       :            2.00130541


DFT components:
N(Alpha)           :       37.999991516210 electrons
N(Beta)            :       37.999991516210 electrons
N(Total)           :       75.999983032420 electrons
NL Energy, E(C,NL) :        0.302222508301 Eh       
E(XC)              :      -98.779777908540 Eh       
DFET-embed. en.    :        0.000000000000 Eh       

---------------
SCF CONVERGENCE
---------------

  Last Energy change         ...   -2.2701e-09  Tolerance :   1.0000e-06
  Last MAX-Density change    ...    5.3291e-15  Tolerance :   1.0000e-05
  Last RMS-Density change    ...    3.3181e-17  Tolerance :   1.0000e-06
  Last Orbital Gradient      ...    2.2662e-05  Tolerance :   5.0000e-05
  Last Orbital Rotation      ...    3.9205e-05  Tolerance :   5.0000e-05

             **** THE GBW FILE WAS UPDATED (arbr_20_r2scan3c_wB97MV_nbo.gbw) ****
             **** DENSITY arbr_20_r2scan3c_wB97MV_nbo.scfp WAS UPDATED ****
             **** ENERGY FILE WAS UPDATED (arbr_20_r2scan3c_wB97MV_nbo.en.tmp) ****
             **** THE GBW FILE WAS UPDATED (arbr_20_r2scan3c_wB97MV_nbo.gbw) ****
             **** DENSITY arbr_20_r2scan3c_wB97MV_nbo.scfp WAS UPDATED ****
----------------
ORBITAL ENERGIES
----------------

  NO   OCC          E(Eh)            E(eV) 
   0   2.0000    -483.530522    -13157.5344 
   1   2.0000     -62.835525     -1709.8416 
   2   2.0000     -56.522202     -1538.0473 
   3   2.0000     -56.519884     -1537.9842 
   4   2.0000     -56.519797     -1537.9819 
   5   2.0000     -14.532426      -395.4474 
   6   2.0000     -14.532418      -395.4472 
   7   2.0000     -10.431018      -283.8424 
   8   2.0000     -10.429962      -283.8137 
   9   2.0000     -10.421886      -283.5939 
  10   2.0000     -10.421869      -283.5935 
  11   2.0000      -8.918836      -242.6939 
  12   2.0000      -6.705064      -182.4541 
  13   2.0000      -6.693739      -182.1459 
  14   2.0000      -6.693592      -182.1419 
  15   2.0000      -2.786000       -75.8109 
  16   2.0000      -2.782696       -75.7210 
  17   2.0000      -2.782617       -75.7189 
  18   2.0000      -2.773460       -75.4697 
  19   2.0000      -2.773459       -75.4697 
  20   2.0000      -1.142732       -31.0953 
  21   2.0000      -1.040754       -28.3204 
  22   2.0000      -0.984833       -26.7987 
  23   2.0000      -0.893314       -24.3083 
  24   2.0000      -0.803841       -21.8736 
  25   2.0000      -0.780079       -21.2270 
  26   2.0000      -0.670554       -18.2467 
  27   2.0000      -0.656178       -17.8555 
  28   2.0000      -0.570616       -15.5273 
  29   2.0000      -0.557203       -15.1623 
  30   2.0000      -0.550636       -14.9836 
  31   2.0000      -0.535802       -14.5799 
  32   2.0000      -0.458458       -12.4753 
  33   2.0000      -0.436417       -11.8755 
  34   2.0000      -0.426198       -11.5974 
  35   2.0000      -0.417611       -11.3638 
  36   2.0000      -0.373245       -10.1565 
  37   2.0000      -0.366750        -9.9798 
  38   0.0000       0.015984         0.4350 
  39   0.0000       0.028640         0.7793 
  40   0.0000       0.067050         1.8245 
  41   0.0000       0.121582         3.3084 
  42   0.0000       0.142789         3.8855 
  43   0.0000       0.147408         4.0112 
  44   0.0000       0.155227         4.2239 
  45   0.0000       0.181048         4.9266 
  46   0.0000       0.191996         5.2245 
  47   0.0000       0.209171         5.6918 
  48   0.0000       0.246907         6.7187 
  49   0.0000       0.257410         7.0045 
  50   0.0000       0.263231         7.1629 
  51   0.0000       0.271284         7.3820 
  52   0.0000       0.283296         7.7089 
  53   0.0000       0.293041         7.9740 
  54   0.0000       0.298419         8.1204 
  55   0.0000       0.298569         8.1245 
  56   0.0000       0.335358         9.1256 
  57   0.0000       0.358865         9.7652 
  58   0.0000       0.377498        10.2722 
  59   0.0000       0.389342        10.5945 
  60   0.0000       0.401605        10.9282 
  61   0.0000       0.404155        10.9976 
  62   0.0000       0.405629        11.0377 
  63   0.0000       0.428736        11.6665 
  64   0.0000       0.440179        11.9779 
  65   0.0000       0.442748        12.0478 
  66   0.0000       0.457098        12.4383 
  67   0.0000       0.478505        13.0208 
  68   0.0000       0.479239        13.0408 
  69   0.0000       0.510714        13.8972 
  70   0.0000       0.517223        14.0744 
  71   0.0000       0.518132        14.0991 
  72   0.0000       0.533694        14.5226 
  73   0.0000       0.549225        14.9452 
  74   0.0000       0.601154        16.3582 
  75   0.0000       0.603095        16.4111 
  76   0.0000       0.634627        17.2691 
  77   0.0000       0.639558        17.4033 
  78   0.0000       0.643207        17.5026 
  79   0.0000       0.666444        18.1349 
  80   0.0000       0.675183        18.3727 
  81   0.0000       0.695654        18.9297 
  82   0.0000       0.711311        19.3558 
  83   0.0000       0.731535        19.9061 
  84   0.0000       0.733522        19.9602 
  85   0.0000       0.747915        20.3518 
  86   0.0000       0.775743        21.1090 
  87   0.0000       0.780957        21.2509 
  88   0.0000       0.792061        21.5531 
  89   0.0000       0.808123        21.9901 
  90   0.0000       0.889007        24.1911 
  91   0.0000       0.969919        26.3928 
  92   0.0000       0.971165        26.4268 
  93   0.0000       0.983449        26.7610 
  94   0.0000       0.983623        26.7657 
  95   0.0000       1.017829        27.6965 
  96   0.0000       1.018023        27.7018 
  97   0.0000       1.022526        27.8243 
  98   0.0000       1.066689        29.0261 
  99   0.0000       1.098478        29.8911 
 100   0.0000       1.113441        30.2983 
 101   0.0000       1.144369        31.1399 
 102   0.0000       1.199665        32.6445 
 103   0.0000       1.200689        32.6724 
 104   0.0000       1.238420        33.6991 
 105   0.0000       1.257557        34.2199 
 106   0.0000       1.291014        35.1303 
 107   0.0000       1.299086        35.3499 
 108   0.0000       1.338687        36.4275 
 109   0.0000       1.371017        37.3073 
 110   0.0000       1.424161        38.7534 
 111   0.0000       1.426405        38.8144 
 112   0.0000       1.456187        39.6249 
 113   0.0000       1.463059        39.8119 
 114   0.0000       1.467180        39.9240 
 115   0.0000       1.482238        40.3337 
 116   0.0000       1.490236        40.5514 
 117   0.0000       1.490791        40.5665 
 118   0.0000       1.504610        40.9425 
 119   0.0000       1.521002        41.3886 
 120   0.0000       1.525225        41.5035 
 121   0.0000       1.527202        41.5573 
 122   0.0000       1.534764        41.7630 
 123   0.0000       1.569154        42.6989 
 124   0.0000       1.569379        42.7050 
 125   0.0000       1.607512        43.7426 
 126   0.0000       1.626129        44.2492 
 127   0.0000       1.626924        44.2709 
 128   0.0000       1.648471        44.8572 
 129   0.0000       1.655922        45.0599 
 130   0.0000       1.687451        45.9179 
 131   0.0000       1.707852        46.4730 
 132   0.0000       1.717807        46.7439 
 133   0.0000       1.726210        46.9726 
 134   0.0000       1.741545        47.3898 
 135   0.0000       1.763072        47.9756 
 136   0.0000       1.765164        48.0326 
 137   0.0000       1.788572        48.6695 
 138   0.0000       1.793331        48.7990 
 139   0.0000       1.803754        49.0827 
 140   0.0000       1.840441        50.0809 
 141   0.0000       1.851620        50.3852 
 142   0.0000       1.879812        51.1523 
 143   0.0000       1.932596        52.5886 
 144   0.0000       1.963010        53.4162 
 145   0.0000       1.974929        53.7405 
 146   0.0000       2.064554        56.1794 
 147   0.0000       2.077754        56.5386 
 148   0.0000       2.138694        58.1968 
 149   0.0000       2.197452        59.7957 
 150   0.0000       2.208570        60.0983 
 151   0.0000       2.218928        60.3801 
 152   0.0000       2.295125        62.4535 
 153   0.0000       2.331391        63.4404 
 154   0.0000       2.396072        65.2004 
 155   0.0000       2.441062        66.4247 
 156   0.0000       2.449823        66.6631 
 157   0.0000       2.464547        67.0637 
 158   0.0000       2.580193        70.2106 
 159   0.0000       2.581274        70.2400 
 160   0.0000       2.589072        70.4522 
 161   0.0000       2.627207        71.4899 
 162   0.0000       2.706308        73.6424 
 163   0.0000       2.749058        74.8057 
 164   0.0000       2.754006        74.9403 
 165   0.0000       2.797321        76.1190 
 166   0.0000       2.831654        77.0532 
 167   0.0000       2.846023        77.4442 
 168   0.0000       2.854365        77.6712 
 169   0.0000       2.871205        78.1294 
 170   0.0000       2.945300        80.1457 
 171   0.0000       2.955564        80.4250 
 172   0.0000       2.965699        80.7008 
 173   0.0000       2.975655        80.9717 
 174   0.0000       2.977857        81.0316 
 175   0.0000       3.005755        81.7908 
 176   0.0000       3.026469        82.3544 
 177   0.0000       3.052798        83.0709 
 178   0.0000       3.070788        83.5604 
 179   0.0000       3.096403        84.2574 
 180   0.0000       3.110922        84.6525 
 181   0.0000       3.142823        85.5206 
 182   0.0000       3.157299        85.9145 
 183   0.0000       3.222610        87.6917 
 184   0.0000       3.252704        88.5106 
 185   0.0000       3.275686        89.1360 
 186   0.0000       3.279265        89.2333 
 187   0.0000       3.369891        91.6994 
 188   0.0000       3.371774        91.7506 
 189   0.0000       3.377281        91.9005 
 190   0.0000       3.377585        91.9088 
 191   0.0000       3.383298        92.0642 
 192   0.0000       3.435051        93.4725 
 193   0.0000       3.485930        94.8570 
 194   0.0000       3.486301        94.8671 
 195   0.0000       3.504260        95.3558 
 196   0.0000       3.511238        95.5456 
 197   0.0000       3.549848        96.5963 
 198   0.0000       3.599333        97.9428 
 199   0.0000       3.609654        98.2237 
 200   0.0000       3.630576        98.7930 
 201   0.0000       3.680197       100.1433 
 202   0.0000       3.682091       100.1948 
 203   0.0000       3.729167       101.4758 
 204   0.0000       3.748330       101.9972 
 205   0.0000       3.816835       103.8614 
 206   0.0000       3.830867       104.2432 
 207   0.0000       3.844807       104.6225 
 208   0.0000       3.853897       104.8699 
 209   0.0000       3.865800       105.1938 
 210   0.0000       3.871109       105.3382 
 211   0.0000       3.941330       107.2490 
 212   0.0000       3.949754       107.4783 
 213   0.0000       3.984678       108.4286 
 214   0.0000       4.022988       109.4711 
 215   0.0000       4.066927       110.6667 
 216   0.0000       4.088804       111.2620 
 217   0.0000       4.110723       111.8585 
 218   0.0000       4.140206       112.6607 
 219   0.0000       4.161201       113.2320 
 220   0.0000       4.173315       113.5617 
 221   0.0000       4.206196       114.4564 
 222   0.0000       4.237065       115.2964 
 223   0.0000       4.237176       115.2994 
 224   0.0000       4.264146       116.0333 
 225   0.0000       4.301425       117.0477 
 226   0.0000       4.381494       119.2265 
 227   0.0000       4.435111       120.6855 
 228   0.0000       4.445223       120.9607 
 229   0.0000       4.449976       121.0900 
 230   0.0000       4.492363       122.2434 
 231   0.0000       4.513172       122.8097 
 232   0.0000       4.523379       123.0874 
 233   0.0000       4.658275       126.7581 
 234   0.0000       4.685153       127.4895 
 235   0.0000       4.692152       127.6799 
 236   0.0000       4.692372       127.6859 
 237   0.0000       4.811512       130.9279 
 238   0.0000       4.815769       131.0437 
 239   0.0000       4.892605       133.1346 
 240   0.0000       4.941746       134.4718 
 241   0.0000       4.973436       135.3341 
 242   0.0000       4.989133       135.7612 
 243   0.0000       5.007750       136.2678 
 244   0.0000       5.034436       136.9940 
 245   0.0000       5.066936       137.8783 
 246   0.0000       5.102781       138.8537 
 247   0.0000       5.134190       139.7084 
 248   0.0000       5.138283       139.8198 
 249   0.0000       5.149584       140.1273 
 250   0.0000       5.177175       140.8781 
 251   0.0000       5.208978       141.7435 
 252   0.0000       5.292784       144.0240 
 253   0.0000       5.328842       145.0052 
 254   0.0000       5.397770       146.8808 
 255   0.0000       5.434051       147.8680 
 256   0.0000       5.442781       148.1056 
 257   0.0000       5.498222       149.6142 
 258   0.0000       5.508515       149.8943 
 259   0.0000       5.510572       149.9503 
 260   0.0000       5.546102       150.9171 
 261   0.0000       5.558837       151.2636 
 262   0.0000       5.661822       154.0660 
 263   0.0000       5.796025       157.7179 
 264   0.0000       5.818054       158.3173 
 265   0.0000       6.061997       164.9553 
 266   0.0000       6.207266       168.9083 
 267   0.0000       6.256838       170.2572 
 268   0.0000       6.638108       180.6321 
 269   0.0000       7.875484       214.3028 
 270   0.0000      23.047220       627.1467 
 271   0.0000      23.479354       638.9057 
 272   0.0000      23.732219       645.7865 
 273   0.0000      23.745668       646.1525 
 274   0.0000      32.659864       888.7201 
 275   0.0000      32.893553       895.0791 

                    ********************************
                    * MULLIKEN POPULATION ANALYSIS *
                    ********************************

-----------------------
MULLIKEN ATOMIC CHARGES
-----------------------
   0 Br:   -0.012114
   1 C :   -0.010571
   2 C :   -0.002866
   3 N :   -0.239366
   4 C :    0.102813
   5 N :   -0.239381
   6 C :   -0.002849
   7 H :    0.134810
   8 H :    0.134715
   9 H :    0.134809
Sum of atomic charges:   -0.0000000

--------------------------------
MULLIKEN REDUCED ORBITAL CHARGES
--------------------------------
  0 Brs       :     7.877818  s :     7.877818
      pz      :     5.940811  p :    17.076418
      px      :     5.170592
      py      :     5.965015
      dz2     :     2.006884  d :    10.050227
      dxz     :     2.015279
      dyz     :     2.000082
      dx2y2   :     2.020973
      dxy     :     2.007009
      f0      :     0.000813  f :     0.007651
      f+1     :     0.001552
      f-1     :     0.000099
      f+2     :     0.001187
      f-2     :     0.000019
      f+3     :     0.002658
      f-3     :     0.001325
  1 C s       :     3.224324  s :     3.224324
      pz      :     1.013335  p :     2.628751
      px      :     0.770684
      py      :     0.844733
      dz2     :     0.009931  d :     0.148128
      dxz     :     0.024205
      dyz     :     0.016511
      dx2y2   :     0.056609
      dxy     :     0.040871
      f0      :     0.001919  f :     0.009368
      f+1     :     0.000953
      f-1     :     0.000636
      f+2     :     0.000644
      f-2     :     0.000822
      f+3     :     0.001331
      f-3     :     0.003062
  2 C s       :     3.160508  s :     3.160508
      pz      :     0.864387  p :     2.706660
      px      :     0.878664
      py      :     0.963610
      dz2     :     0.003062  d :     0.124675
      dxz     :     0.026441
      dyz     :     0.013635
      dx2y2   :     0.025449
      dxy     :     0.056089
      f0      :     0.001807  f :     0.011023
      f+1     :     0.000991
      f-1     :     0.000581
      f+2     :     0.001417
      f-2     :     0.000545
      f+3     :     0.001733
      f-3     :     0.003948
  3 N s       :     3.595501  s :     3.595501
      pz      :     1.093194  p :     3.579193
      px      :     1.124266
      py      :     1.361733
      dz2     :     0.005945  d :     0.060901
      dxz     :     0.011177
      dyz     :     0.010164
      dx2y2   :     0.018803
      dxy     :     0.014812
      f0      :     0.000637  f :     0.003771
      f+1     :     0.000348
      f-1     :     0.000263
      f+2     :     0.000480
      f-2     :     0.000302
      f+3     :     0.000823
      f-3     :     0.000919
  4 C s       :     3.122716  s :     3.122716
      pz      :     0.858991  p :     2.615881
      px      :     0.979604
      py      :     0.777287
      dz2     :     0.002112  d :     0.144203
      dxz     :     0.011310
      dyz     :     0.034024
      dx2y2   :     0.065023
      dxy     :     0.031734
      f0      :     0.002032  f :     0.014387
      f+1     :     0.000736
      f-1     :     0.001239
      f+2     :     0.000749
      f-2     :     0.001664
      f+3     :     0.002295
      f-3     :     0.005671
  5 N s       :     3.595534  s :     3.595534
      pz      :     1.093195  p :     3.579180
      px      :     1.124254
      py      :     1.361731
      dz2     :     0.005946  d :     0.060897
      dxz     :     0.011176
      dyz     :     0.010164
      dx2y2   :     0.018800
      dxy     :     0.014811
      f0      :     0.000637  f :     0.003771
      f+1     :     0.000348
      f-1     :     0.000263
      f+2     :     0.000480
      f-2     :     0.000302
      f+3     :     0.000823
      f-3     :     0.000919
  6 C s       :     3.160506  s :     3.160506
      pz      :     0.864386  p :     2.706679
      px      :     0.878667
      py      :     0.963626
      dz2     :     0.003061  d :     0.124641
      dxz     :     0.026440
      dyz     :     0.013635
      dx2y2   :     0.025436
      dxy     :     0.056069
      f0      :     0.001807  f :     0.011023
      f+1     :     0.000991
      f-1     :     0.000581
      f+2     :     0.001417
      f-2     :     0.000545
      f+3     :     0.001734
      f-3     :     0.003948
  7 H s       :     0.831359  s :     0.831359
      pz      :     0.008585  p :     0.031305
      px      :     0.007722
      py      :     0.014998
      dz2     :     0.000170  d :     0.002526
      dxz     :     0.000159
      dyz     :     0.000557
      dx2y2   :     0.000919
      dxy     :     0.000720
  8 H s       :     0.836707  s :     0.836707
      pz      :     0.007863  p :     0.025998
      px      :     0.013850
      py      :     0.004285
      dz2     :     0.000181  d :     0.002580
      dxz     :     0.000759
      dyz     :     0.000011
      dx2y2   :     0.000530
      dxy     :     0.001098
  9 H s       :     0.831353  s :     0.831353
      pz      :     0.008585  p :     0.031313
      px      :     0.007729
      py      :     0.014999
      dz2     :     0.000170  d :     0.002526
      dxz     :     0.000159
      dyz     :     0.000557
      dx2y2   :     0.000919
      dxy     :     0.000720


                     *******************************
                     * LOEWDIN POPULATION ANALYSIS *
                     *******************************

----------------------
LOEWDIN ATOMIC CHARGES
----------------------
   0 Br:    0.379726
   1 C :   -0.383692
   2 C :   -0.104601
   3 N :    0.168779
   4 C :   -0.184337
   5 N :    0.168779
   6 C :   -0.104601
   7 H :    0.022778
   8 H :    0.014392
   9 H :    0.022778

-------------------------------
LOEWDIN REDUCED ORBITAL CHARGES
-------------------------------
  0 Brs       :     7.567030  s :     7.567030
      pz      :     5.872962  p :    16.918497
      px      :     5.176001
      py      :     5.869534
      dz2     :     2.015057  d :    10.118946
      dxz     :     2.035151
      dyz     :     2.000164
      dx2y2   :     2.045960
      dxy     :     2.022613
      f0      :     0.001612  f :     0.015800
      f+1     :     0.002915
      f-1     :     0.000198
      f+2     :     0.002539
      f-2     :     0.000011
      f+3     :     0.005209
      f-3     :     0.003316
  1 C s       :     2.789825  s :     2.789825
      pz      :     0.925730  p :     3.006413
      px      :     0.982362
      py      :     1.098321
      dz2     :     0.039214  d :     0.533051
      dxz     :     0.077382
      dyz     :     0.059369
      dx2y2   :     0.198492
      dxy     :     0.158593
      f0      :     0.003994  f :     0.054403
      f+1     :     0.004451
      f-1     :     0.004411
      f+2     :     0.004357
      f-2     :     0.006852
      f+3     :     0.009431
      f-3     :     0.020907
  2 C s       :     2.740064  s :     2.740064
      pz      :     0.785187  p :     2.785557
      px      :     0.984298
      py      :     1.016072
      dz2     :     0.034088  d :     0.513847
      dxz     :     0.080701
      dyz     :     0.034021
      dx2y2   :     0.150541
      dxy     :     0.214496
      f0      :     0.003658  f :     0.065133
      f+1     :     0.006097
      f-1     :     0.003578
      f+2     :     0.009723
      f-2     :     0.004127
      f+3     :     0.011803
      f-3     :     0.026146
  3 N s       :     3.041580  s :     3.041580
      pz      :     1.000317  p :     3.561595
      px      :     1.211241
      py      :     1.350037
      dz2     :     0.017807  d :     0.209594
      dxz     :     0.034213
      dyz     :     0.019007
      dx2y2   :     0.071114
      dxy     :     0.067453
      f0      :     0.001144  f :     0.018451
      f+1     :     0.001690
      f-1     :     0.001134
      f+2     :     0.002742
      f-2     :     0.000939
      f+3     :     0.003998
      f-3     :     0.006804
  4 C s       :     2.743962  s :     2.743962
      pz      :     0.788219  p :     2.750792
      px      :     0.977839
      py      :     0.984735
      dz2     :     0.040483  d :     0.605911
      dxz     :     0.021778
      dyz     :     0.104107
      dx2y2   :     0.290416
      dxy     :     0.149128
      f0      :     0.004451  f :     0.083672
      f+1     :     0.003875
      f-1     :     0.007844
      f+2     :     0.004035
      f-2     :     0.012022
      f+3     :     0.014017
      f-3     :     0.037427
  5 N s       :     3.041581  s :     3.041581
      pz      :     1.000317  p :     3.561595
      px      :     1.211241
      py      :     1.350037
      dz2     :     0.017807  d :     0.209594
      dxz     :     0.034213
      dyz     :     0.019007
      dx2y2   :     0.071114
      dxy     :     0.067453
      f0      :     0.001144  f :     0.018451
      f+1     :     0.001690
      f-1     :     0.001134
      f+2     :     0.002742
      f-2     :     0.000939
      f+3     :     0.003998
      f-3     :     0.006804
  6 C s       :     2.740064  s :     2.740064
      pz      :     0.785187  p :     2.785557
      px      :     0.984298
      py      :     1.016072
      dz2     :     0.034088  d :     0.513847
      dxz     :     0.080701
      dyz     :     0.034021
      dx2y2   :     0.150541
      dxy     :     0.214496
      f0      :     0.003658  f :     0.065133
      f+1     :     0.006097
      f-1     :     0.003578
      f+2     :     0.009723
      f-2     :     0.004127
      f+3     :     0.011804
      f-3     :     0.026146
  7 H s       :     0.810447  s :     0.810447
      pz      :     0.033193  p :     0.137937
      px      :     0.036971
      py      :     0.067773
      dz2     :     0.002830  d :     0.028838
      dxz     :     0.001776
      dyz     :     0.006051
      dx2y2   :     0.009074
      dxy     :     0.009106
  8 H s       :     0.820811  s :     0.820811
      pz      :     0.033722  p :     0.135909
      px      :     0.077493
      py      :     0.024694
      dz2     :     0.002877  d :     0.028887
      dxz     :     0.007894
      dyz     :     0.000049
      dx2y2   :     0.009726
      dxy     :     0.008342
  9 H s       :     0.810447  s :     0.810447
      pz      :     0.033193  p :     0.137938
      px      :     0.036972
      py      :     0.067773
      dz2     :     0.002830  d :     0.028838
      dxz     :     0.001776
      dyz     :     0.006051
      dx2y2   :     0.009074
      dxy     :     0.009106


                      *****************************
                      * MAYER POPULATION ANALYSIS *
                      *****************************

  NA   - Mulliken gross atomic population
  ZA   - Total nuclear charge
  QA   - Mulliken gross atomic charge
  VA   - Mayer's total valence
  BVA  - Mayer's bonded valence
  FA   - Mayer's free valence

  ATOM       NA         ZA         QA         VA         BVA        FA
  0 Br    35.0121    35.0000    -0.0121     1.2285     1.2285    -0.0000
  1 C      6.0106     6.0000    -0.0106     3.8816     3.8816    -0.0000
  2 C      6.0029     6.0000    -0.0029     4.0079     4.0079    -0.0000
  3 N      7.2394     7.0000    -0.2394     3.0356     3.0356    -0.0000
  4 C      5.8972     6.0000     0.1028     4.0608     4.0608    -0.0000
  5 N      7.2394     7.0000    -0.2394     3.0355     3.0355    -0.0000
  6 C      6.0028     6.0000    -0.0028     4.0078     4.0078    -0.0000
  7 H      0.8652     1.0000     0.1348     0.9994     0.9994    -0.0000
  8 H      0.8653     1.0000     0.1347     0.9862     0.9862    -0.0000
  9 H      0.8652     1.0000     0.1348     0.9994     0.9994    -0.0000

  Mayer bond orders larger than 0.100000
B(  0-Br,  1-C ) :   1.1258 B(  1-C ,  2-C ) :   1.3496 B(  1-C ,  6-C ) :   1.3496 
B(  2-C ,  3-N ) :   1.4917 B(  2-C ,  7-H ) :   0.9969 B(  3-N ,  4-C ) :   1.4610 
B(  4-C ,  5-N ) :   1.4610 B(  4-C ,  8-H ) :   0.9843 B(  5-N ,  6-C ) :   1.4917 
B(  6-C ,  9-H ) :   0.9969 

Now starting NBO....

 *********************************** NBO 7.0 ***********************************
             N A T U R A L   A T O M I C   O R B I T A L   A N D
          N A T U R A L   B O N D   O R B I T A L   A N A L Y S I S
 **************************** Robert Paton (I101709) ***************************
  (c) Copyright 1996-2019 Board of Regents of the University of Wisconsin System
      on behalf of the Theoretical Chemistry Institute.  All rights reserved.

          Cite this program [NBO 7.0.5 (4-Jun-2019)] as:

          NBO 7.0.  E. D. Glendening, J. K. Badenhoop, A. E. Reed,
          J. E. Carpenter, J. A. Bohmann, C. M. Morales, P. Karafiloglou,
          C. R. Landis, and F. Weinhold, Theoretical Chemistry Institute,
          University of Wisconsin, Madison, WI (2018)

       /NPA    / : Natural Population Analysis
       /NBO    / : Natural Bond Orbital Analysis
       /BNDIDX / : Print bond indices based on the NAO density matrix

 Job title:  ORCA Job: arbr_20_r2scan3c_wB97MV_nbo


 NATURAL POPULATIONS:  Natural atomic orbital occupancies

  NAO Atom No lang   Type(AO)    Occupancy      Energy
 -------------------------------------------------------
   1   Br  1  s      Cor( 1s)     2.00000    -465.75127
   2   Br  1  s      Cor( 2s)     2.00000     -75.71758
   3   Br  1  s      Cor( 3s)     1.99999     -13.81581
   4   Br  1  s      Val( 4s)     1.85902      -0.81074
   5   Br  1  s      Ryd( 5s)     0.00148       1.15782
   6   Br  1  s      Ryd( 6s)     0.00000       7.61206
   7   Br  1  px     Cor( 2p)     2.00000     -40.14178
   8   Br  1  px     Cor( 3p)     2.00000     -23.08545
   9   Br  1  px     Val( 4p)     1.13484      -0.26975
  10   Br  1  px     Ryd( 5p)     0.00255       0.58552
  11   Br  1  px     Ryd( 6p)     0.00003       1.65013
  12   Br  1  py     Cor( 2p)     2.00000     -40.13463
  13   Br  1  py     Cor( 3p)     2.00000     -23.07880
  14   Br  1  py     Val( 4p)     1.96761      -0.40509
  15   Br  1  py     Ryd( 5p)     0.00101       0.56530
  16   Br  1  py     Ryd( 6p)     0.00001       1.54109
  17   Br  1  pz     Cor( 2p)     2.00000     -40.13463
  18   Br  1  pz     Cor( 3p)     2.00000     -23.07887
  19   Br  1  pz     Val( 4p)     1.94138      -0.40218
  20   Br  1  pz     Ryd( 5p)     0.00141       0.53619
  21   Br  1  pz     Ryd( 6p)     0.00003       1.50899
  22   Br  1  dxy    Cor( 3d)     1.99999      -2.78261
  23   Br  1  dxy    Ryd( 4d)     0.00084       1.15061
  24   Br  1  dxy    Ryd( 5d)     0.00002       1.48690
  25   Br  1  dxy    Ryd( 6d)     0.00000       4.42290
  26   Br  1  dxz    Cor( 3d)     1.99999      -2.78270
  27   Br  1  dxz    Ryd( 4d)     0.00203       0.91270
  28   Br  1  dxz    Ryd( 5d)     0.00001       1.33037
  29   Br  1  dxz    Ryd( 6d)     0.00000       4.19103
  30   Br  1  dyz    Cor( 3d)     2.00000      -2.77346
  31   Br  1  dyz    Ryd( 4d)     0.00002       0.69558
  32   Br  1  dyz    Ryd( 5d)     0.00001       1.18895
  33   Br  1  dyz    Ryd( 6d)     0.00000       4.04746
  34   Br  1  dx2y2  Cor( 3d)     1.99999      -2.78278
  35   Br  1  dx2y2  Ryd( 5d)     0.00192       1.77971
  36   Br  1  dx2y2  Ryd( 4d)     0.00003       1.38465
  37   Br  1  dx2y2  Ryd( 6d)     0.00001       4.60128
  38   Br  1  dz2    Cor( 3d)     1.99999      -2.77663
  39   Br  1  dz2    Ryd( 4d)     0.00062       1.10636
  40   Br  1  dz2    Ryd( 5d)     0.00002       1.29979
  41   Br  1  dz2    Ryd( 6d)     0.00000       4.30758
  42   Br  1  f(0)   Ryd( 4f)     0.00008       1.78362
  43   Br  1  f(c1)  Ryd( 4f)     0.00008       2.08084
  44   Br  1  f(s1)  Ryd( 4f)     0.00001       1.66115
  45   Br  1  f(c2)  Ryd( 4f)     0.00011       1.91264
  46   Br  1  f(s2)  Ryd( 4f)     0.00000       1.72662
  47   Br  1  f(c3)  Ryd( 4f)     0.00012       2.15755
  48   Br  1  f(s3)  Ryd( 4f)     0.00012       2.25357

  49    C  2  s      Cor( 1s)     1.99999     -10.42986
  50    C  2  s      Val( 2s)     1.00533      -0.24350
  51    C  2  s      Ryd( 3s)     0.00164       1.37176
  52    C  2  s      Ryd( 4s)     0.00082       2.46166
  53    C  2  s      Ryd( 5s)     0.00001      17.89441
  54    C  2  px     Val( 2p)     0.97626      -0.14549
  55    C  2  px     Ryd( 3p)     0.00424       1.39751
  56    C  2  px     Ryd( 4p)     0.00109       2.04346
  57    C  2  py     Val( 2p)     1.08590      -0.09899
  58    C  2  py     Ryd( 3p)     0.00471       1.14550
  59    C  2  py     Ryd( 4p)     0.00003       2.25728
  60    C  2  pz     Val( 2p)     1.09336      -0.19049
  61    C  2  pz     Ryd( 3p)     0.00104       0.92356
  62    C  2  pz     Ryd( 4p)     0.00065       1.15211
  63    C  2  dxy    Ryd( 3d)     0.00211       2.24467
  64    C  2  dxy    Ryd( 4d)     0.00029       4.01708
  65    C  2  dxz    Ryd( 3d)     0.00175       1.29874
  66    C  2  dxz    Ryd( 4d)     0.00012       3.24183
  67    C  2  dyz    Ryd( 3d)     0.00009       1.50220
  68    C  2  dyz    Ryd( 4d)     0.00011       3.30278
  69    C  2  dx2y2  Ryd( 3d)     0.00266       2.26181
  70    C  2  dx2y2  Ryd( 4d)     0.00029       4.12248
  71    C  2  dz2    Ryd( 3d)     0.00248       1.95830
  72    C  2  dz2    Ryd( 4d)     0.00009       3.56538
  73    C  2  f(0)   Ryd( 4f)     0.00073       3.17492
  74    C  2  f(c1)  Ryd( 4f)     0.00073       3.18825
  75    C  2  f(s1)  Ryd( 4f)     0.00053       3.41280
  76    C  2  f(c2)  Ryd( 4f)     0.00005       3.16472
  77    C  2  f(s2)  Ryd( 4f)     0.00000       3.28699
  78    C  2  f(c3)  Ryd( 4f)     0.00097       3.83517
  79    C  2  f(s3)  Ryd( 4f)     0.00019       3.75853

  80    C  3  s      Cor( 1s)     1.99999     -10.42181
  81    C  3  s      Val( 2s)     0.95570      -0.17246
  82    C  3  s      Ryd( 3s)     0.00258       1.36459
  83    C  3  s      Ryd( 4s)     0.00012       1.80742
  84    C  3  s      Ryd( 5s)     0.00000      21.82596
  85    C  3  px     Val( 2p)     0.94796      -0.04070
  86    C  3  px     Ryd( 3p)     0.00822       1.10793
  87    C  3  px     Ryd( 4p)     0.00017       1.40100
  88    C  3  py     Val( 2p)     1.14114      -0.10904
  89    C  3  py     Ryd( 3p)     0.00534       1.13325
  90    C  3  py     Ryd( 4p)     0.00021       1.80492
  91    C  3  pz     Val( 2p)     0.87479      -0.13890
  92    C  3  pz     Ryd( 3p)     0.00072       0.74769
  93    C  3  pz     Ryd( 4p)     0.00015       1.14183
  94    C  3  dxy    Ryd( 3d)     0.00183       2.60413
  95    C  3  dxy    Ryd( 4d)     0.00040       3.70808
  96    C  3  dxz    Ryd( 3d)     0.00054       2.02881
  97    C  3  dxz    Ryd( 4d)     0.00006       2.69732
  98    C  3  dyz    Ryd( 3d)     0.00055       1.90395
  99    C  3  dyz    Ryd( 4d)     0.00010       2.73415
 100    C  3  dx2y2  Ryd( 3d)     0.00116       2.85655
 101    C  3  dx2y2  Ryd( 4d)     0.00033       3.63881
 102    C  3  dz2    Ryd( 3d)     0.00099       2.34995
 103    C  3  dz2    Ryd( 4d)     0.00007       3.22387
 104    C  3  f(0)   Ryd( 4f)     0.00034       3.25655
 105    C  3  f(c1)  Ryd( 4f)     0.00037       3.44412
 106    C  3  f(s1)  Ryd( 4f)     0.00046       3.38702
 107    C  3  f(c2)  Ryd( 4f)     0.00001       3.39756
 108    C  3  f(s2)  Ryd( 4f)     0.00002       3.26849
 109    C  3  f(c3)  Ryd( 4f)     0.00063       3.92720
 110    C  3  f(s3)  Ryd( 4f)     0.00008       3.90639

 111    N  4  s      Cor( 1s)     1.99999     -14.53234
 112    N  4  s      Val( 2s)     1.38611      -0.47398
 113    N  4  s      Ryd( 3s)     0.00060       1.83595
 114    N  4  s      Ryd( 4s)     0.00009       3.62215
 115    N  4  s      Ryd( 5s)     0.00000      29.07603
 116    N  4  px     Val( 2p)     1.30459      -0.19623
 117    N  4  px     Ryd( 3p)     0.00311       0.92967
 118    N  4  px     Ryd( 4p)     0.00014       3.37674
 119    N  4  py     Val( 2p)     1.53852      -0.25947
 120    N  4  py     Ryd( 3p)     0.00493       0.83499
 121    N  4  py     Ryd( 4p)     0.00026       3.31721
 122    N  4  pz     Val( 2p)     1.16487      -0.22459
 123    N  4  pz     Ryd( 3p)     0.00062       0.70966
 124    N  4  pz     Ryd( 4p)     0.00001       2.32542
 125    N  4  dxy    Ryd( 3d)     0.00454       2.11487
 126    N  4  dxy    Ryd( 4d)     0.00021       5.34433
 127    N  4  dxz    Ryd( 3d)     0.00109       1.54766
 128    N  4  dxz    Ryd( 4d)     0.00009       4.87666
 129    N  4  dyz    Ryd( 3d)     0.00306       1.47203
 130    N  4  dyz    Ryd( 4d)     0.00004       4.83252
 131    N  4  dx2y2  Ryd( 3d)     0.00714       2.06071
 132    N  4  dx2y2  Ryd( 4d)     0.00012       5.40011
 133    N  4  dz2    Ryd( 3d)     0.00596       1.77828
 134    N  4  dz2    Ryd( 4d)     0.00001       5.09097
 135    N  4  f(0)   Ryd( 4f)     0.00019       4.46754
 136    N  4  f(c1)  Ryd( 4f)     0.00017       4.54346
 137    N  4  f(s1)  Ryd( 4f)     0.00013       4.42393
 138    N  4  f(c2)  Ryd( 4f)     0.00002       4.63944
 139    N  4  f(s2)  Ryd( 4f)     0.00005       4.50838
 140    N  4  f(c3)  Ryd( 4f)     0.00030       5.13889
 141    N  4  f(s3)  Ryd( 4f)     0.00006       5.28325

 142    C  5  s      Cor( 1s)     1.99999     -10.43095
 143    C  5  s      Val( 2s)     0.91963      -0.15766
 144    C  5  s      Ryd( 3s)     0.00250       1.57426
 145    C  5  s      Ryd( 4s)     0.00002       6.83563
 146    C  5  s      Ryd( 5s)     0.00000      16.57550
 147    C  5  px     Val( 2p)     1.09833      -0.10102
 148    C  5  px     Ryd( 3p)     0.00469       1.22977
 149    C  5  px     Ryd( 4p)     0.00027       1.46582
 150    C  5  py     Val( 2p)     0.84585       0.02260
 151    C  5  py     Ryd( 3p)     0.01399       1.10229
 152    C  5  py     Ryd( 4p)     0.00012       1.18491
 153    C  5  pz     Val( 2p)     0.85881      -0.13053
 154    C  5  pz     Ryd( 3p)     0.00139       0.75981
 155    C  5  pz     Ryd( 4p)     0.00017       1.08413
 156    C  5  dxy    Ryd( 4d)     0.00063       3.46813
 157    C  5  dxy    Ryd( 3d)     0.00037       2.90526
 158    C  5  dxz    Ryd( 4d)     0.00052       2.44320
 159    C  5  dxz    Ryd( 3d)     0.00017       2.18073
 160    C  5  dyz    Ryd( 4d)     0.00073       2.67616
 161    C  5  dyz    Ryd( 3d)     0.00000       2.18969
 162    C  5  dx2y2  Ryd( 4d)     0.00172       3.40728
 163    C  5  dx2y2  Ryd( 3d)     0.00029       3.32858
 164    C  5  dz2    Ryd( 4d)     0.00057       2.97762
 165    C  5  dz2    Ryd( 3d)     0.00008       2.62722
 166    C  5  f(0)   Ryd( 4f)     0.00027       3.31642
 167    C  5  f(c1)  Ryd( 4f)     0.00033       3.38795
 168    C  5  f(s1)  Ryd( 4f)     0.00025       3.54810
 169    C  5  f(c2)  Ryd( 4f)     0.00003       3.35453
 170    C  5  f(s2)  Ryd( 4f)     0.00000       3.48199
 171    C  5  f(c3)  Ryd( 4f)     0.00046       3.93198
 172    C  5  f(s3)  Ryd( 4f)     0.00005       4.11226

 173    N  6  s      Cor( 1s)     1.99999     -14.53234
 174    N  6  s      Val( 2s)     1.38611      -0.47398
 175    N  6  s      Ryd( 3s)     0.00060       1.83607
 176    N  6  s      Ryd( 4s)     0.00009       3.62250
 177    N  6  s      Ryd( 5s)     0.00000      29.07555
 178    N  6  px     Val( 2p)     1.30459      -0.19623
 179    N  6  px     Ryd( 3p)     0.00311       0.92967
 180    N  6  px     Ryd( 4p)     0.00014       3.37673
 181    N  6  py     Val( 2p)     1.53852      -0.25947
 182    N  6  py     Ryd( 3p)     0.00493       0.83499
 183    N  6  py     Ryd( 4p)     0.00026       3.31720
 184    N  6  pz     Val( 2p)     1.16487      -0.22459
 185    N  6  pz     Ryd( 3p)     0.00062       0.70966
 186    N  6  pz     Ryd( 4p)     0.00001       2.32542
 187    N  6  dxy    Ryd( 3d)     0.00454       2.11487
 188    N  6  dxy    Ryd( 4d)     0.00021       5.34433
 189    N  6  dxz    Ryd( 3d)     0.00109       1.54766
 190    N  6  dxz    Ryd( 4d)     0.00009       4.87666
 191    N  6  dyz    Ryd( 3d)     0.00306       1.47203
 192    N  6  dyz    Ryd( 4d)     0.00004       4.83252
 193    N  6  dx2y2  Ryd( 3d)     0.00714       2.06071
 194    N  6  dx2y2  Ryd( 4d)     0.00012       5.40011
 195    N  6  dz2    Ryd( 3d)     0.00596       1.77828
 196    N  6  dz2    Ryd( 4d)     0.00001       5.09097
 197    N  6  f(0)   Ryd( 4f)     0.00019       4.46754
 198    N  6  f(c1)  Ryd( 4f)     0.00017       4.54346
 199    N  6  f(s1)  Ryd( 4f)     0.00013       4.42393
 200    N  6  f(c2)  Ryd( 4f)     0.00002       4.63944
 201    N  6  f(s2)  Ryd( 4f)     0.00005       4.50838
 202    N  6  f(c3)  Ryd( 4f)     0.00030       5.13889
 203    N  6  f(s3)  Ryd( 4f)     0.00006       5.28325

 204    C  7  s      Cor( 1s)     1.99999     -10.42181
 205    C  7  s      Val( 2s)     0.95570      -0.17246
 206    C  7  s      Ryd( 3s)     0.00258       1.36457
 207    C  7  s      Ryd( 4s)     0.00012       1.80739
 208    C  7  s      Ryd( 5s)     0.00000      21.82597
 209    C  7  px     Val( 2p)     0.94796      -0.04070
 210    C  7  px     Ryd( 3p)     0.00822       1.10794
 211    C  7  px     Ryd( 4p)     0.00017       1.40099
 212    C  7  py     Val( 2p)     1.14114      -0.10904
 213    C  7  py     Ryd( 3p)     0.00534       1.13326
 214    C  7  py     Ryd( 4p)     0.00021       1.80491
 215    C  7  pz     Val( 2p)     0.87479      -0.13890
 216    C  7  pz     Ryd( 3p)     0.00072       0.74770
 217    C  7  pz     Ryd( 4p)     0.00015       1.14182
 218    C  7  dxy    Ryd( 3d)     0.00183       2.60416
 219    C  7  dxy    Ryd( 4d)     0.00040       3.70806
 220    C  7  dxz    Ryd( 3d)     0.00054       2.02883
 221    C  7  dxz    Ryd( 4d)     0.00006       2.69730
 222    C  7  dyz    Ryd( 3d)     0.00055       1.90397
 223    C  7  dyz    Ryd( 4d)     0.00010       2.73412
 224    C  7  dx2y2  Ryd( 3d)     0.00116       2.85658
 225    C  7  dx2y2  Ryd( 4d)     0.00033       3.63878
 226    C  7  dz2    Ryd( 3d)     0.00099       2.34998
 227    C  7  dz2    Ryd( 4d)     0.00007       3.22385
 228    C  7  f(0)   Ryd( 4f)     0.00034       3.25655
 229    C  7  f(c1)  Ryd( 4f)     0.00037       3.44412
 230    C  7  f(s1)  Ryd( 4f)     0.00046       3.38702
 231    C  7  f(c2)  Ryd( 4f)     0.00001       3.39756
 232    C  7  f(s2)  Ryd( 4f)     0.00002       3.26850
 233    C  7  f(c3)  Ryd( 4f)     0.00063       3.92720
 234    C  7  f(s3)  Ryd( 4f)     0.00008       3.90639

 235    H  8  s      Val( 1s)     0.79046       0.01992
 236    H  8  s      Ryd( 2s)     0.00076       0.55923
 237    H  8  s      Ryd( 3s)     0.00017       2.22649
 238    H  8  px     Ryd( 3p)     0.00016       4.11512
 239    H  8  px     Ryd( 2p)     0.00008       1.68437
 240    H  8  py     Ryd( 3p)     0.00026       4.32132
 241    H  8  py     Ryd( 2p)     0.00010       2.28959
 242    H  8  pz     Ryd( 3p)     0.00005       3.83591
 243    H  8  pz     Ryd( 2p)     0.00005       1.25124
 244    H  8  dxy    Ryd( 3d)     0.00005       4.53904
 245    H  8  dxz    Ryd( 3d)     0.00000       3.72569
 246    H  8  dyz    Ryd( 3d)     0.00001       4.11309
 247    H  8  dx2y2  Ryd( 3d)     0.00003       4.52957
 248    H  8  dz2    Ryd( 3d)     0.00001       4.08548

 249    H  9  s      Val( 1s)     0.81445       0.01564
 250    H  9  s      Ryd( 2s)     0.00035       0.60330
 251    H  9  s      Ryd( 3s)     0.00015       2.20919
 252    H  9  px     Ryd( 3p)     0.00038       4.34020
 253    H  9  px     Ryd( 2p)     0.00007       2.64036
 254    H  9  py     Ryd( 3p)     0.00005       4.13565
 255    H  9  py     Ryd( 2p)     0.00004       1.40717
 256    H  9  pz     Ryd( 3p)     0.00006       3.93567
 257    H  9  pz     Ryd( 2p)     0.00004       1.12778
 258    H  9  dxy    Ryd( 3d)     0.00001       4.51032
 259    H  9  dxz    Ryd( 3d)     0.00001       4.23990
 260    H  9  dyz    Ryd( 3d)     0.00000       3.56937
 261    H  9  dx2y2  Ryd( 3d)     0.00007       4.55368
 262    H  9  dz2    Ryd( 3d)     0.00001       4.06897

 263    H 10  s      Val( 1s)     0.79046       0.01992
 264    H 10  s      Ryd( 2s)     0.00076       0.55922
 265    H 10  s      Ryd( 3s)     0.00017       2.22650
 266    H 10  px     Ryd( 3p)     0.00016       4.11512
 267    H 10  px     Ryd( 2p)     0.00008       1.68437
 268    H 10  py     Ryd( 3p)     0.00026       4.32132
 269    H 10  py     Ryd( 2p)     0.00010       2.28959
 270    H 10  pz     Ryd( 3p)     0.00005       3.83590
 271    H 10  pz     Ryd( 2p)     0.00005       1.25125
 272    H 10  dxy    Ryd( 3d)     0.00005       4.53904
 273    H 10  dxz    Ryd( 3d)     0.00000       3.72569
 274    H 10  dyz    Ryd( 3d)     0.00001       4.11309
 275    H 10  dx2y2  Ryd( 3d)     0.00003       4.52957
 276    H 10  dz2    Ryd( 3d)     0.00001       4.08548


 Summary of Natural Population Analysis:

                                     Natural Population
             Natural    ---------------------------------------------
  Atom No    Charge        Core      Valence    Rydberg      Total
 --------------------------------------------------------------------
   Br  1    0.08462     27.99995     6.90285    0.01259    34.91538
    C  2   -0.18826      1.99999     4.16085    0.02741     6.18826
    C  3    0.05496      1.99999     3.91958    0.02546     5.94504
    N  4   -0.42701      1.99999     5.39410    0.03292     7.42701
    C  5    0.24779      1.99999     3.72261    0.02961     5.75221
    N  6   -0.42701      1.99999     5.39410    0.03292     7.42701
    C  7    0.05496      1.99999     3.91958    0.02546     5.94504
    H  8    0.20782      0.00000     0.79046    0.00172     0.79218
    H  9    0.18431      0.00000     0.81445    0.00124     0.81569
    H 10    0.20782      0.00000     0.79046    0.00172     0.79218
 ====================================================================
 * Total *  0.00000     39.99990    35.80904    0.19105    76.00000

                                 Natural Population
 ---------------------------------------------------------
   Core                      39.99990 ( 99.9998% of   40)
   Valence                   35.80904 ( 99.4696% of   36)
   Natural Minimal Basis     75.80895 ( 99.7486% of   76)
   Natural Rydberg Basis      0.19105 (  0.2514% of   76)
 ---------------------------------------------------------

    Atom No         Natural Electron Configuration
 ----------------------------------------------------------------------------
     Br  1      [core]4s( 1.86)4p( 5.04)
      C  2      [core]2s( 1.01)2p( 3.16)3p( 0.01)3d( 0.01)
      C  3      [core]2s( 0.96)2p( 2.96)3p( 0.01)3d( 0.01)
      N  4      [core]2s( 1.39)2p( 4.01)3p( 0.01)3d( 0.02)
      C  5      [core]2s( 0.92)2p( 2.80)3p( 0.02)
      N  6      [core]2s( 1.39)2p( 4.01)3p( 0.01)3d( 0.02)
      C  7      [core]2s( 0.96)2p( 2.96)3p( 0.01)3d( 0.01)
      H  8            1s( 0.79)
      H  9            1s( 0.81)
      H 10            1s( 0.79)


 Wiberg bond index matrix in the NAO basis:

     Atom    1       2       3       4       5       6       7       8       9
     ---- ------  ------  ------  ------  ------  ------  ------  ------  ------
   1. Br  0.0000  1.0498  0.0441  0.0188  0.0151  0.0188  0.0441  0.0026  0.0018
   2.  C  1.0498  0.0000  1.3933  0.0311  0.1094  0.0311  1.3933  0.0018  0.0005
   3.  C  0.0441  1.3933  0.0000  1.4360  0.0101  0.1043  0.0163  0.9135  0.0105
   4.  N  0.0188  0.0311  1.4360  0.0000  1.4226  0.0464  0.1043  0.0207  0.0149
[...]
 Molecular unit  1  (C4H3N2Br)
 ------ Lewis --------------------------------------
    1. CR ( 1)Br  1             2.00000  -465.75127
    2. CR ( 2)Br  1             2.00000   -75.71758
    3. CR ( 3)Br  1             1.99999   -13.81581
    4. CR ( 4)Br  1             2.00000   -40.14178
    5. CR ( 5)Br  1             2.00000   -23.08545
    6. CR ( 6)Br  1             2.00000   -40.13463
    7. CR ( 7)Br  1             2.00000   -23.07880
    8. CR ( 8)Br  1             2.00000   -40.13463
    9. CR ( 9)Br  1             2.00000   -23.07887
   10. CR (10)Br  1             1.99999    -2.78261
   11. CR (11)Br  1             1.99999    -2.78270
   12. CR (12)Br  1             2.00000    -2.77346
   13. CR (13)Br  1             1.99999    -2.78278
   14. CR (14)Br  1             1.99999    -2.77663
   15. CR ( 1) C  2             1.99999   -10.42986
   16. CR ( 1) C  3             1.99999   -10.42181
   17. CR ( 1) N  4             1.99999   -14.53234
   18. CR ( 1) C  5             1.99999   -10.43095
   19. CR ( 1) N  6             1.99999   -14.53234
   20. CR ( 1) C  7             1.99999   -10.42181
   21. LP ( 1)Br  1             1.99327    -0.79978  40(v),42(v),82(v),85(v)
   22. LP ( 2)Br  1             1.96828    -0.40519  40(v),42(v),83(v),43(r)
                                                     49(r)
   23. LP ( 3)Br  1             1.94218    -0.40225  41(v),84(v),50(r)
   24. LP ( 1) N  4             1.91060    -0.43376  47(v),40(v),44(v),48(v)
                                                     108(v),160(v),161(v),39(r)
   25. LP ( 1) N  6             1.91060    -0.43376  45(v),42(v),51(v),48(v)
                                                     212(v),160(v),161(v),39(r)
   26. BD ( 1)Br  1- C  2       1.98631    -0.68911  43(v),49(v),108(v),212(v)
                                                     44(v),51(v)
   27. BD ( 1) C  2- C  3       1.98953    -0.77644  51(v),212(v),134(v),42(g)
                                                     135(v),214(v)
   28. BD ( 2) C  2- C  3       1.63884    -0.37189  50(v),46(v),52(v),136(v)
                                                     216(v)
   29. BD ( 1) C  2- C  7       1.98953    -0.77644  44(v),108(v),186(v),40(g)
                                                     187(v),110(v)
   30. BD ( 1) C  3- N  4       1.98314    -0.85872  39(v),48(v),161(v),160(v)
                                                     40(g),82(v)
   31. BD ( 1) C  3- H  8       1.98333    -0.63065  45(v),42(v),134(v),82(v)
   32. BD ( 1) N  4- C  5       1.99063    -0.85948  109(v),44(v)
   33. BD ( 2) N  4- C  5       1.68866    -0.40172  41(v),50(v),111(v),112(v)
                                                     188(v)
   34. BD ( 1) C  5- N  6       1.99063    -0.85948  213(v),51(v)
   35. BD ( 1) C  5- H  9       1.98122    -0.62300  43(v),49(v),134(v),186(v)
   36. BD ( 1) N  6- C  7       1.98314    -0.85872  39(v),48(v),161(v),160(v)
                                                     42(g),82(v)
   37. BD ( 2) N  6- C  7       1.69936    -0.40513  46(v),41(v),163(v),162(v)
                                                     84(v)
   38. BD ( 1) C  7- H 10       1.98333    -0.63065  47(v),40(v),186(v),82(v)
 ------ non-Lewis ----------------------------------
   39. BD*( 1)Br  1- C  2       0.02819     0.16634
   40. BD*( 1) C  2- C  3       0.04016     0.57937
   41. BD*( 2) C  2- C  3       0.33172     0.04045
   42. BD*( 1) C  2- C  7       0.04016     0.57937
   43. BD*( 1) C  3- N  4       0.01505     0.60565
   44. BD*( 1) C  3- H  8       0.02542     0.44497
   45. BD*( 1) N  4- C  5       0.03222     0.60054
   46. BD*( 2) N  4- C  5       0.34040     0.04257
   47. BD*( 1) C  5- N  6       0.03222     0.60054
   48. BD*( 1) C  5- H  9       0.03162     0.44581
   49. BD*( 1) N  6- C  7       0.01505     0.60565
   50. BD*( 2) N  6- C  7       0.34558     0.03930
   51. BD*( 1) C  7- H 10       0.02542     0.44497
   52. RY ( 1)Br  1             0.00288     0.74089
   53. RY ( 2)Br  1             0.00129     0.92075
   54. RY ( 3)Br  1             0.00022     0.98572
   55. RY ( 4)Br  1             0.00014     1.08336
   56. RY ( 5)Br  1             0.00004     1.12965
   57. RY ( 6)Br  1             0.00004     0.94011
   58. RY ( 7)Br  1             0.00003     0.52128
   59. RY ( 8)Br  1             0.00001     1.69176
   60. RY ( 9)Br  1             0.00001     1.26740
   61. RY (10)Br  1             0.00001     0.83054
   62. RY (11)Br  1             0.00000     2.02106
   63. RY (12)Br  1             0.00000     2.18832
   64. RY (13)Br  1             0.00000     4.07306
   65. RY (14)Br  1             0.00000     3.21467
   66. RY (15)Br  1             0.00000     1.59728
   67. RY (16)Br  1             0.00000     2.01531
   68. RY (17)Br  1             0.00000     3.57215
   69. RY (18)Br  1             0.00000     2.70272
   70. RY (19)Br  1             0.00000     3.46734
   71. RY (20)Br  1             0.00000     2.10089
   72. RY (21)Br  1             0.00000     2.17022
   73. RY (22)Br  1             0.00000     1.48575
   74. RY (23)Br  1             0.00000     4.04595
   75. RY (24)Br  1             0.00000     3.00061
   76. RY (25)Br  1             0.00000     5.01473
   77. RY (26)Br  1             0.00000     3.61586
   78. RY (27)Br  1             0.00000     1.32054
   79. RY (28)Br  1             0.00000     1.77133
   80. RY (29)Br  1             0.00000     1.60562
   81. RY (30)Br  1             0.00000     1.52710
   82. RY ( 1) C  2             0.00489     1.23668
   83. RY ( 2) C  2             0.00478     1.16363
   84. RY ( 3) C  2             0.00263     1.05787
   85. RY ( 4) C  2             0.00136     1.22613
   86. RY ( 5) C  2             0.00042     2.53324
   87. RY ( 6) C  2             0.00033     2.63692
   88. RY ( 7) C  2             0.00030     0.85993
   89. RY ( 8) C  2             0.00022     3.00523
   90. RY ( 9) C  2             0.00018     2.36927
   91. RY (10) C  2             0.00015     3.63541
   92. RY (11) C  2             0.00005     3.99888
   93. RY (12) C  2             0.00004     2.77904
   94. RY (13) C  2             0.00001     2.71852
   95. RY (14) C  2             0.00000     1.89077
   96. RY (15) C  2             0.00000     7.30189
   97. RY (16) C  2             0.00000     2.85344
   98. RY (17) C  2             0.00000     2.62090
   99. RY (18) C  2             0.00000     8.04760
  100. RY (19) C  2             0.00000     3.07658
  101. RY (20) C  2             0.00000     2.32858
  102. RY (21) C  2             0.00000     3.23298
  103. RY (22) C  2             0.00000     3.60044
  104. RY (23) C  2             0.00000     2.82388
  105. RY (24) C  2             0.00000     2.45160
  106. RY (25) C  2             0.00000     9.47689
  107. RY (26) C  2             0.00000     3.04804
  108. RY ( 1) C  3             0.00690     1.29540
  109. RY ( 2) C  3             0.00400     1.17162
  110. RY ( 3) C  3             0.00150     1.60166
  111. RY ( 4) C  3             0.00071     0.61566
  112. RY ( 5) C  3             0.00060     2.73913
  113. RY ( 6) C  3             0.00028     2.55896
  114. RY ( 7) C  3             0.00018     2.69990
  115. RY ( 8) C  3             0.00015     1.46202
  116. RY ( 9) C  3             0.00007     2.74011
  117. RY (10) C  3             0.00005     2.83085
  118. RY (11) C  3             0.00002     2.60588
  119. RY (12) C  3             0.00001     2.15064
  120. RY (13) C  3             0.00001     3.16441
  121. RY (14) C  3             0.00000     3.32735
  122. RY (15) C  3             0.00000     5.20468
  123. RY (16) C  3             0.00000     1.87590
  124. RY (17) C  3             0.00000     3.96372
  125. RY (18) C  3             0.00000     3.33251
  126. RY (19) C  3             0.00000     1.55817
  127. RY (20) C  3             0.00000     9.52243
  128. RY (21) C  3             0.00000     3.42772
  129. RY (22) C  3             0.00000     5.34932
  130. RY (23) C  3             0.00000     9.57901
  131. RY (24) C  3             0.00000     3.15325
  132. RY (25) C  3             0.00000     3.01245
  133. RY (26) C  3             0.00000     3.70822
  134. RY ( 1) N  4             0.00384     1.14710
  135. RY ( 2) N  4             0.00080     1.61592
  136. RY ( 3) N  4             0.00068     0.76586
  137. RY ( 4) N  4             0.00059     2.24787
  138. RY ( 5) N  4             0.00017     4.31587
  139. RY ( 6) N  4             0.00011     4.70249
  140. RY ( 7) N  4             0.00008     2.80105
  141. RY ( 8) N  4             0.00003     2.58295
  142. RY ( 9) N  4             0.00002     3.75276
  143. RY (10) N  4             0.00001     2.58367
  144. RY (11) N  4             0.00001     4.27465
  145. RY (12) N  4             0.00000     3.89612
  146. RY (13) N  4             0.00000     1.63694
  147. RY (14) N  4             0.00000     2.81311
  148. RY (15) N  4             0.00000     4.73708
  149. RY (16) N  4             0.00000    11.18149
  150. RY (17) N  4             0.00000     2.50167
  151. RY (18) N  4             0.00000     4.26804
  152. RY (19) N  4             0.00000     5.90841
  153. RY (20) N  4             0.00000     3.19849
  154. RY (21) N  4             0.00000     7.49178
  155. RY (22) N  4             0.00000    16.41859
  156. RY (23) N  4             0.00000     4.54379
  157. RY (24) N  4             0.00000     3.65039
  158. RY (25) N  4             0.00000     5.98449
  159. RY (26) N  4             0.00000     4.53527
  160. RY ( 1) C  5             0.01077     1.22097
  161. RY ( 2) C  5             0.00452     1.59891
  162. RY ( 3) C  5             0.00127     0.74054
  163. RY ( 4) C  5             0.00093     2.43881
  164. RY ( 5) C  5             0.00088     1.56563
  165. RY ( 6) C  5             0.00031     2.92593
  166. RY ( 7) C  5             0.00023     2.61543
  167. RY ( 8) C  5             0.00007     2.92478
  168. RY ( 9) C  5             0.00003     2.01821
  169. RY (10) C  5             0.00001     2.62037
  170. RY (11) C  5             0.00001     3.52148
  171. RY (12) C  5             0.00000     1.37822
  172. RY (13) C  5             0.00000    10.51682
  173. RY (14) C  5             0.00000     3.30827
  174. RY (15) C  5             0.00000     1.93320
  175. RY (16) C  5             0.00000     2.43796
  176. RY (17) C  5             0.00000     1.32786
  177. RY (18) C  5             0.00000    11.42534
  178. RY (19) C  5             0.00000     4.35425
  179. RY (20) C  5             0.00000     2.57178
  180. RY (21) C  5             0.00000     5.18801
  181. RY (22) C  5             0.00000     3.44861
  182. RY (23) C  5             0.00000     3.48098
  183. RY (24) C  5             0.00000     3.13284
  184. RY (25) C  5             0.00000     3.08096
  185. RY (26) C  5             0.00000     3.34603
  186. RY ( 1) N  6             0.00384     1.14711
  187. RY ( 2) N  6             0.00080     1.61592
  188. RY ( 3) N  6             0.00071     0.81193
  189. RY ( 4) N  6             0.00059     2.24815
  190. RY ( 5) N  6             0.00016     4.26915
  191. RY ( 6) N  6             0.00011     4.70231
  192. RY ( 7) N  6             0.00008     2.80092
  193. RY ( 8) N  6             0.00003     2.58330
  194. RY ( 9) N  6             0.00002     3.75402
  195. RY (10) N  6             0.00001     2.58368
  196. RY (11) N  6             0.00001     4.27134
  197. RY (12) N  6             0.00000     3.89847
  198. RY (13) N  6             0.00000     1.63713
  199. RY (14) N  6             0.00000     2.81418
  200. RY (15) N  6             0.00000     4.72906
  201. RY (16) N  6             0.00000    11.13333
  202. RY (17) N  6             0.00000     2.50154
  203. RY (18) N  6             0.00000     3.21184
  204. RY (19) N  6             0.00000     5.90413
  205. RY (20) N  6             0.00000     4.54907
  206. RY (21) N  6             0.00000     7.45541
  207. RY (22) N  6             0.00000    16.19656
  208. RY (23) N  6             0.00000     4.59228
  209. RY (24) N  6             0.00000     3.63621
  210. RY (25) N  6             0.00000     5.97684
  211. RY (26) N  6             0.00000     4.53158
  212. RY ( 1) C  7             0.00690     1.29540
  213. RY ( 2) C  7             0.00400     1.17162
  214. RY ( 3) C  7             0.00150     1.60164
  215. RY ( 4) C  7             0.00076     1.18623
  216. RY ( 5) C  7             0.00057     2.18847
  217. RY ( 6) C  7             0.00028     2.55866
  218. RY ( 7) C  7             0.00018     2.69979
  219. RY ( 8) C  7             0.00015     1.44157
  220. RY ( 9) C  7             0.00007     2.74207
  221. RY (10) C  7             0.00005     2.82958
  222. RY (11) C  7             0.00002     2.60548
  223. RY (12) C  7             0.00001     2.14449
  224. RY (13) C  7             0.00001     3.17174
  225. RY (14) C  7             0.00000     3.32685
  226. RY (15) C  7             0.00000     5.19306
  227. RY (16) C  7             0.00000     1.87605
  228. RY (17) C  7             0.00000     3.95722
  229. RY (18) C  7             0.00000     3.33254
  230. RY (19) C  7             0.00000     1.55799
  231. RY (20) C  7             0.00000     9.52964
  232. RY (21) C  7             0.00000     3.42768
  233. RY (22) C  7             0.00000     5.35101
  234. RY (23) C  7             0.00000     9.58726
  235. RY (24) C  7             0.00000     3.15327
  236. RY (25) C  7             0.00000     3.01245
  237. RY (26) C  7             0.00000     3.70862
  238. RY ( 1) H  8             0.00084     0.58499
  239. RY ( 2) H  8             0.00021     2.99338
  240. RY ( 3) H  8             0.00013     2.65387
  241. RY ( 4) H  8             0.00009     3.24998
  242. RY ( 5) H  8             0.00006     2.95900
  243. RY ( 6) H  8             0.00002     2.05955
  244. RY ( 7) H  8             0.00001     3.42899
  245. RY ( 8) H  8             0.00000     4.44798
  246. RY ( 9) H  8             0.00000     3.94672
  247. RY (10) H  8             0.00000     3.63541
  248. RY (11) H  8             0.00000     3.38736
  249. RY (12) H  8             0.00000     4.22905
  250. RY (13) H  8             0.00000     3.69659
  251. RY ( 1) H  9             0.00044     0.79366
  252. RY ( 2) H  9             0.00017     2.81300
  253. RY ( 3) H  9             0.00008     3.16529
  254. RY ( 4) H  9             0.00006     3.78624
  255. RY ( 5) H  9             0.00004     2.09455
  256. RY ( 6) H  9             0.00003     1.87918
  257. RY ( 7) H  9             0.00001     3.27271
  258. RY ( 8) H  9             0.00000     4.17235
  259. RY ( 9) H  9             0.00000     3.56937
  260. RY (10) H  9             0.00000     3.43809
  261. RY (11) H  9             0.00000     4.46150
  262. RY (12) H  9             0.00000     4.25889
  263. RY (13) H  9             0.00000     3.63356
  264. RY ( 1) H 10             0.00084     0.58499
  265. RY ( 2) H 10             0.00021     2.99344
  266. RY ( 3) H 10             0.00013     2.65359
  267. RY ( 4) H 10             0.00009     3.24976
  268. RY ( 5) H 10             0.00006     2.95941
  269. RY ( 6) H 10             0.00002     2.05976
  270. RY ( 7) H 10             0.00001     3.42741
  271. RY ( 8) H 10             0.00000     4.44895
  272. RY ( 9) H 10             0.00000     3.93502
  273. RY (10) H 10             0.00000     3.64040
  274. RY (11) H 10             0.00000     3.38756
  275. RY (12) H 10             0.00000     4.22894
  276. RY (13) H 10             0.00000     3.70366
          -------------------------------
                 Total Lewis   74.61246  ( 98.1743%)
           Valence non-Lewis    1.30321  (  1.7148%)
           Rydberg non-Lewis    0.08433  (  0.1110%)
          -------------------------------
               Total unit  1   76.00000  (100.0000%)
              Charge unit  1    0.00000

 $CHOOSE
   LONE 1 3 4 1 6 1 END
   BOND S 1 2 D 2 3 S 2 7 S 3 4 S 3 8 D 4 5 S 5 6 S 5 9 D 6 7 S 7 10 END
 $END

 NBO analysis completed in 2.80 CPU seconds (3 wall seconds)
 Maximum scratch memory used by NBO was 1246984 words (9.51 MB)
Stopping NBO...-------
TIMINGS
-------

Total SCF time: 0 days 0 hours 0 min 25 sec 

Total time                  ....      25.621 sec
Sum of individual times     ....      24.933 sec  ( 97.3%)

Fock matrix formation       ....      20.582 sec  ( 80.3%)
  Split-RI-J                ....       1.353 sec  (  6.6% of F)
  Chain of spheres X        ....      16.072 sec  ( 78.1% of F)
  XC integration            ....       3.189 sec  ( 15.5% of F)
    Basis function eval.    ....       0.390 sec  ( 12.2% of XC)
    Density eval.           ....       0.846 sec  ( 26.5% of XC)
    XC-Functional eval.     ....       0.179 sec  (  5.6% of XC)
    XC-Potential eval.      ....       1.277 sec  ( 40.0% of XC)
Diagonalization             ....       0.151 sec  (  0.6%)
Density matrix formation    ....       0.012 sec  (  0.0%)
Population analysis         ....       2.873 sec  ( 11.2%)
Initial guess               ....       0.131 sec  (  0.5%)
Orbital Transformation      ....       0.000 sec  (  0.0%)
Orbital Orthonormalization  ....       0.000 sec  (  0.0%)
DIIS solution               ....       0.082 sec  (  0.3%)
SOSCF solution              ....       0.107 sec  (  0.4%)
Grid generation             ....       0.995 sec  (  3.9%)

Maximum memory used throughout the entire SCF-calculation: 72.9 MB

-------------------------   --------------------
FINAL SINGLE POINT ENERGY     -2837.746141331785
-------------------------   --------------------


                            ***************************************
                            *     ORCA property calculations      *
                            ***************************************

                                    ---------------------
                                    Active property flags
                                    ---------------------
   (+) Dipole Moment


------------------------------------------------------------------------------
                       ORCA ELECTRIC PROPERTIES CALCULATION
------------------------------------------------------------------------------

Dipole Moment Calculation                       ... on
Quadrupole Moment Calculation                   ... off
Polarizability Calculation                      ... off
GBWName                                         ... arbr_20_r2scan3c_wB97MV_nbo.gbw
Electron density                                ... arbr_20_r2scan3c_wB97MV_nbo.scfp
The origin for moment calculation is the CENTER OF MASS  = ( 0.260089, -0.000000  0.000003)

-------------
DIPOLE MOMENT
-------------
                                X             Y             Z
Electronic contribution:     20.10816       0.00000      -0.00009
Nuclear contribution   :    -19.76694       0.00000       0.00008
                        -----------------------------------------
Total Dipole Moment    :      0.34123       0.00000      -0.00000
                        -----------------------------------------
Magnitude (a.u.)       :      0.34123
Magnitude (Debye)      :      0.86733



--------------------
Rotational spectrum 
--------------------
 
Rotational constants in cm-1:     0.204504     0.033699     0.028932 
Rotational constants in MHz :  6130.875920  1010.277679   867.351053 

 Dipole components along the rotational axes: 
x,y,z [a.u.] :     0.341225    -0.000001    -0.000003 
x,y,z [Debye]:     0.867326    -0.000002    -0.000008 

 

Timings for individual modules:

Sum of individual times         ...       26.790 sec (=   0.447 min)
GTO integral calculation        ...        0.793 sec (=   0.013 min)   3.0 %
SCF iterations                  ...       25.997 sec (=   0.433 min)  97.0 %
                             ****ORCA TERMINATED NORMALLY****
TOTAL RUN TIME: 0 days 0 hours 0 minutes 27 seconds 372 msec
