
                                 *****************
                                 * O   R   C   A *
                                 *****************

                                            #,                                       
                                            ###                                      
                                            ####                                     
                                            #####                                    
                                            ######                                   
                                           ########,                                 
                                     ,,################,,,,,                         
                               ,,#################################,,                 
                          ,,##########################################,,             
                       ,#########################################, ''#####,          
                    ,#############################################,,   '####,        
                  ,##################################################,,,,####,       
                ,###########''''           ''''###############################       
              ,#####''   ,,,,##########,,,,          '''####'''          '####       
            ,##' ,,,,###########################,,,                        '##       
           ' ,,###''''                  '''############,,,                           
         ,,##''                                '''############,,,,        ,,,,,,###''
      ,#''                                            '''#######################'''  
     '                                                          ''''####''''         
             ,#######,   #######,   ,#######,      ##                                
            ,#'     '#,  ##    ##  ,#'     '#,    #''#        ######   ,####,        
            ##       ##  ##   ,#'  ##            #'  '#       #        #'  '#        
            ##       ##  #######   ##           ,######,      #####,   #    #        
            '#,     ,#'  ##    ##  '#,     ,#' ,#      #,         ##   #,  ,#        
             '#######'   ##     ##  '#######'  #'      '#     #####' # '####'        



                  #######################################################
                  #                        -***-                        #
                  #          Department of theory and spectroscopy      #
                  #    Directorship and core code : Frank Neese         #
                  #        Max Planck Institute fuer Kohlenforschung    #
                  #                Kaiser Wilhelm Platz 1               #
                  #                 D-45470 Muelheim/Ruhr               #
                  #                      Germany                        #
                  #                                                     #
                  #                  All rights reserved                #
                  #                        -***-                        #
                  #######################################################


                         Program Version 5.0.4 -  RELEASE  -


 With contributions from (in alphabetic order):
   Daniel Aravena         : Magnetic Suceptibility
   Michael Atanasov       : Ab Initio Ligand Field Theory (pilot matlab implementation)
   Alexander A. Auer      : GIAO ZORA, VPT2 properties, NMR spectrum
   Ute Becker             : Parallelization
   Giovanni Bistoni       : ED, misc. LED, open-shell LED, HFLD
   Martin Brehm           : Molecular dynamics
   Dmytro Bykov           : SCF Hessian
   Vijay G. Chilkuri      : MRCI spin determinant printing, contributions to CSF-ICE
   Dipayan Datta          : RHF DLPNO-CCSD density
   Achintya Kumar Dutta   : EOM-CC, STEOM-CC
   Dmitry Ganyushin       : Spin-Orbit,Spin-Spin,Magnetic field MRCI
   Miquel Garcia          : C-PCM and meta-GGA Hessian, CC/C-PCM, Gaussian charge scheme
   Yang Guo               : DLPNO-NEVPT2, F12-NEVPT2, CIM, IAO-localization
   Andreas Hansen         : Spin unrestricted coupled pair/coupled cluster methods
   Benjamin Helmich-Paris : MC-RPA, TRAH-SCF, COSX integrals
   Lee Huntington         : MR-EOM, pCC
   Robert Izsak           : Overlap fitted RIJCOSX, COSX-SCS-MP3, EOM
   Marcus Kettner         : VPT2
   Christian Kollmar      : KDIIS, OOCD, Brueckner-CCSD(T), CCSD density, CASPT2, CASPT2-K
   Simone Kossmann        : Meta GGA functionals, TD-DFT gradient, OOMP2, MP2 Hessian
   Martin Krupicka        : Initial AUTO-CI
   Lucas Lang             : DCDCAS
   Marvin Lechner         : AUTO-CI (C++ implementation), FIC-MRCC
   Dagmar Lenk            : GEPOL surface, SMD
   Dimitrios Liakos       : Extrapolation schemes; Compound Job, initial MDCI parallelization
   Dimitrios Manganas     : Further ROCIS development; embedding schemes
   Dimitrios Pantazis     : SARC Basis sets
   Anastasios Papadopoulos: AUTO-CI, single reference methods and gradients
   Taras Petrenko         : DFT Hessian,TD-DFT gradient, ASA, ECA, R-Raman, ABS, FL, XAS/XES, NRVS
   Peter Pinski           : DLPNO-MP2, DLPNO-MP2 Gradient
   Christoph Reimann      : Effective Core Potentials
   Marius Retegan         : Local ZFS, SOC
   Christoph Riplinger    : Optimizer, TS searches, QM/MM, DLPNO-CCSD(T), (RO)-DLPNO pert. Triples
   Tobias Risthaus        : Range-separated hybrids, TD-DFT gradient, RPA, STAB
   Michael Roemelt        : Original ROCIS implementation
   Masaaki Saitow         : Open-shell DLPNO-CCSD energy and density
   Barbara Sandhoefer     : DKH picture change effects
   Avijit Sen             : IP-ROCIS
   Kantharuban Sivalingam : CASSCF convergence, NEVPT2, FIC-MRCI
   Bernardo de Souza      : ESD, SOC TD-DFT
   Georgi Stoychev        : AutoAux, RI-MP2 NMR, DLPNO-MP2 response
   Willem Van den Heuvel  : Paramagnetic NMR
   Boris Wezisla          : Elementary symmetry handling
   Frank Wennmohs         : Technical directorship


 We gratefully acknowledge several colleagues who have allowed us to
 interface, adapt or use parts of their codes:
   Stefan Grimme, W. Hujo, H. Kruse, P. Pracht,  : VdW corrections, initial TS optimization,
                  C. Bannwarth, S. Ehlert          DFT functionals, gCP, sTDA/sTD-DF
   Ed Valeev, F. Pavosevic, A. Kumar             : LibInt (2-el integral package), F12 methods
   Garnet Chan, S. Sharma, J. Yang, R. Olivares  : DMRG
   Ulf Ekstrom                                   : XCFun DFT Library
   Mihaly Kallay                                 : mrcc  (arbitrary order and MRCC methods)
   Jiri Pittner, Ondrej Demel                    : Mk-CCSD
   Frank Weinhold                                : gennbo (NPA and NBO analysis)
   Christopher J. Cramer and Donald G. Truhlar   : smd solvation model
   Lars Goerigk                                  : TD-DFT with DH, B97 family of functionals
   V. Asgeirsson, H. Jonsson                     : NEB implementation
   FAccTs GmbH                                   : IRC, NEB, NEB-TS, DLPNO-Multilevel, CI-OPT
                                                   MM, QMMM, 2- and 3-layer-ONIOM, Crystal-QMMM,
                                                   LR-CPCM, SF, NACMEs, symmetry and pop. for TD-DFT,
                                                   nearIR, NL-DFT gradient (VV10), updates on ESD,
                                                   ML-optimized integration grids
   S Lehtola, MJT Oliveira, MAL Marques          : LibXC Library
   Liviu Ungur et al                             : ANISO software


 Your calculation uses the libint2 library for the computation of 2-el integrals
 For citations please refer to: http://libint.valeyev.net

 Your ORCA version has been built with support for libXC version: 5.1.0
 For citations please refer to: https://tddft.org/programs/libxc/

 This ORCA versions uses:
   CBLAS   interface :  Fast vector & matrix operations
   LAPACKE interface :  Fast linear algebra routines
   SCALAPACK package :  Parallel linear algebra routines
   Shared memory     :  Shared parallel matrices
   BLAS/LAPACK       :  OpenBLAS 0.3.15  USE64BITINT DYNAMIC_ARCH NO_AFFINITY SkylakeX SINGLE_THREADED
        Core in use  :  SkylakeX
   Copyright (c) 2011-2014, The OpenBLAS Project


Your calculation utilizes the DFT-NL dispersion correction.
Cite in your paper:
Vydrov, O. A.; Van Voorhis, T. J. Chem. Phys. 2010, 133, 244103
Hujo, W.; Grimme, S. J. Chem. Theory Comput. 2011, 7, 3866 
   

================================================================================

----- Orbital basis set information -----
Your calculation utilizes the basis: def2-TZVPP
   F. Weigend and R. Ahlrichs, Phys. Chem. Chem. Phys. 7, 3297 (2005).

----- AuxJ basis set information -----
Your calculation utilizes the auxiliary basis: def2/J
   F. Weigend, Phys. Chem. Chem. Phys. 8, 1057 (2006).

================================================================================
                                        WARNINGS
                       Please study these warnings very carefully!
================================================================================

Using LibXC functional ID 531 : wB97M-V exchange-correlation functional
[ 1]  N. Mardirossian and M. Head-Gordon, J. Chem. Phys. 144, 214110 (2016)
Using LibXC functional ID 531 : wB97M-V exchange-correlation functional
[ 1]  N. Mardirossian and M. Head-Gordon, J. Chem. Phys. 144, 214110 (2016)

WARNING: B97M-V or wB97M-V functional requested.
  ===> : libXC variant has now been activated.
         Any manually given DFX/HFX/RangeSep scaling parameters are IGNORED!

Your calculation utilizes LibXC
 by S Lehtola, C Steigemann, MJT Oliveira & MAL Marques
Please cite in your paper:
 S Lehtola, C Steigemann, MJT Oliveira & MAL Marques, SoftwareX, 7, (2018), 1.
   


INFO   : the flag for use of the SHARK integral package has been found!

================================================================================
                                       INPUT FILE
================================================================================
NAME = arbr_24_r2scan3c_wB97MV_nbo.inp
|  1> %PAL NPROCS 16 END
|  2> %maxcore 4000
|  3> # arbr_24_r2scan3c.out
|  4> ! wB97m-v def2-TZVPP def2/J RIJCOSX 
|  5> %nbo
|  6> NBOKEYLIST = "$NBO NBO NPA bndidx $END"
|  7> end
|  8> * xyz 0 1
|  9>   Br        2.60262        -0.18003        -0.00000
| 10>    C        0.73555         0.09861         0.00001
| 11>    C        0.26521         1.45026         0.00001
| 12>    C       -1.06148         1.69326         0.00001
| 13>    N       -1.93300         0.63449         0.00000
| 14>    C       -3.29667         0.54280        -0.00006
| 15>    N       -3.65659        -0.70940         0.00006
| 16>    N       -2.54669        -1.48854        -0.00002
| 17>    C       -1.50819        -0.68381        -0.00000
| 18>    C       -0.11395        -0.95490        -0.00000
| 19>    H        0.96691         2.26982         0.00001
| 20>    H       -1.49523         2.68235         0.00000
| 21>    H       -3.95162         1.39727        -0.00007
| 22>    H        0.21949        -1.98162        -0.00001
| 23> *
| 24> 
| 25>                          ****END OF INPUT****
================================================================================

                       ****************************
                       * Single Point Calculation *
                       ****************************

---------------------------------
CARTESIAN COORDINATES (ANGSTROEM)
---------------------------------
  Br     2.602620   -0.180030   -0.000000
  C      0.735550    0.098610    0.000010
  C      0.265210    1.450260    0.000010
  C     -1.061480    1.693260    0.000010
  N     -1.933000    0.634490    0.000000
  C     -3.296670    0.542800   -0.000060
  N     -3.656590   -0.709400    0.000060
  N     -2.546690   -1.488540   -0.000020
  C     -1.508190   -0.683810   -0.000000
  C     -0.113950   -0.954900   -0.000000
  H      0.966910    2.269820    0.000010
  H     -1.495230    2.682350    0.000000
  H     -3.951620    1.397270   -0.000070
  H      0.219490   -1.981620   -0.000010

----------------------------
CARTESIAN COORDINATES (A.U.)
----------------------------
  NO LB      ZA    FRAG     MASS         X           Y           Z
   0 Br   35.0000    0    79.900    4.918239   -0.340207   -0.000000
   1 C     6.0000    0    12.011    1.389988    0.186346    0.000019
   2 C     6.0000    0    12.011    0.501174    2.740594    0.000019
   3 C     6.0000    0    12.011   -2.005906    3.199798    0.000019
   4 N     7.0000    0    14.007   -3.652841    1.199012    0.000000
   5 C     6.0000    0    12.011   -6.229803    1.025743   -0.000113
   6 N     7.0000    0    14.007   -6.909954   -1.340572    0.000113
   7 N     7.0000    0    14.007   -4.812547   -2.812933   -0.000038
   8 C     6.0000    0    12.011   -2.850066   -1.292214   -0.000000
   9 C     6.0000    0    12.011   -0.215334   -1.804499   -0.000000
  10 H     1.0000    0     1.008    1.827195    4.289338    0.000019
  11 H     1.0000    0     1.008   -2.825575    5.068907    0.000000
  12 H     1.0000    0     1.008   -7.467480    2.640458   -0.000132
  13 H     1.0000    0     1.008    0.414776   -3.744719   -0.000019

--------------------------------
INTERNAL COORDINATES (ANGSTROEM)
--------------------------------
 Br     0   0   0     0.000000000000     0.00000000     0.00000000
 C      1   0   0     1.887747502872     0.00000000     0.00000000
 C      2   1   0     1.431145498578   117.67473192     0.00000000
 C      3   2   1     1.348760674138   119.56599723   179.99965728
 N      4   3   2     1.371328196822   119.07989960     0.00000000
 C      5   4   3     1.366749036436   133.30593853   180.00329501
 N      6   5   4     1.302899558984   109.88289008   180.00472463
 N      7   6   5     1.356074170538   109.03227046     0.00000000
 C      8   7   6     1.313800830910   107.15950504     0.00000000
 C      2   1   3     1.353341631001   120.39291300   179.99917199
 H      3   2   1     1.078916810324   120.24355168     0.00000000
 H      4   3   2     1.080017634439   124.05849830   180.00064035
 H      6   5   4     1.076605073135   123.62346662     0.00000000
 H     10   2   1     1.079507383995   123.12711333     0.00000000

---------------------------
INTERNAL COORDINATES (A.U.)
---------------------------
 Br     0   0   0     0.000000000000     0.00000000     0.00000000
 C      1   0   0     3.567325790422     0.00000000     0.00000000
 C      2   1   0     2.704473050107   117.67473192     0.00000000
 C      3   2   1     2.548788294323   119.56599723   179.99965728
 N      4   3   2     2.591434731718   119.07989960     0.00000000
 C      5   4   3     2.582781372666   133.30593853   180.00329501
 N      6   5   4     2.462123346486   109.88289008   180.00472463
 N      7   6   5     2.562608799601   109.03227046     0.00000000
 C      8   7   6     2.482723764938   107.15950504     0.00000000
 C      2   1   3     2.557445048226   120.39291300   179.99917199
 H      3   2   1     2.038857292796   120.24355168     0.00000000
 H      4   3   2     2.040937548896   124.05849830   180.00064035
 H      6   5   4     2.034488742615   123.62346662     0.00000000
 H     10   2   1     2.039973315297   123.12711333     0.00000000

---------------------
BASIS SET INFORMATION
---------------------
There are 4 groups of distinct atoms

 Group   1 Type Br  : 17s13p8d1f contracted to 6s5p4d1f pattern {842111/64111/5111/1}
 Group   2 Type C   : 11s6p2d1f contracted to 5s3p2d1f pattern {62111/411/11/1}
 Group   3 Type N   : 11s6p2d1f contracted to 5s3p2d1f pattern {62111/411/11/1}
 Group   4 Type H   : 5s2p1d contracted to 3s2p1d pattern {311/11/1}

Atom   0Br   basis set group =>   1
Atom   1C    basis set group =>   2
Atom   2C    basis set group =>   2
Atom   3C    basis set group =>   2
Atom   4N    basis set group =>   3
Atom   5C    basis set group =>   2
Atom   6N    basis set group =>   3
Atom   7N    basis set group =>   3
Atom   8C    basis set group =>   2
Atom   9C    basis set group =>   2
Atom  10H    basis set group =>   4
Atom  11H    basis set group =>   4
Atom  12H    basis set group =>   4
Atom  13H    basis set group =>   4
---------------------------------
AUXILIARY/J BASIS SET INFORMATION
---------------------------------
There are 4 groups of distinct atoms

 Group   1 Type Br  : 19s5p5d3f1g contracted to 8s4p3d2f1g pattern {121111111/2111/311/21/1}
 Group   2 Type C   : 12s5p4d2f1g contracted to 6s4p3d1f1g pattern {711111/2111/211/2/1}
 Group   3 Type N   : 12s5p4d2f1g contracted to 6s4p3d1f1g pattern {711111/2111/211/2/1}
 Group   4 Type H   : 5s2p1d contracted to 3s1p1d pattern {311/2/1}

Atom   0Br   basis set group =>   1
Atom   1C    basis set group =>   2
Atom   2C    basis set group =>   2
Atom   3C    basis set group =>   2
Atom   4N    basis set group =>   3
Atom   5C    basis set group =>   2
Atom   6N    basis set group =>   3
Atom   7N    basis set group =>   3
Atom   8C    basis set group =>   2
Atom   9C    basis set group =>   2
Atom  10H    basis set group =>   4
Atom  11H    basis set group =>   4
Atom  12H    basis set group =>   4
Atom  13H    basis set group =>   4


           ************************************************************
           *        Program running with 16 parallel MPI-processes    *
           *              working on a common directory               *
           ************************************************************
------------------------------------------------------------------------------
                           ORCA GTO INTEGRAL CALCULATION
                           -- RI-GTO INTEGRALS CHOSEN --
------------------------------------------------------------------------------
------------------------------------------------------------------------------
                   ___                                                        
                  /   \      - P O W E R E D   B Y -                         
                 /     \                                                     
                 |  |  |   _    _      __       _____    __    __             
                 |  |  |  | |  | |    /  \     |  _  \  |  |  /  |          
                  \  \/   | |  | |   /    \    | | | |  |  | /  /          
                 / \  \   | |__| |  /  /\  \   | |_| |  |  |/  /          
                |  |  |   |  __  | /  /__\  \  |    /   |      \           
                |  |  |   | |  | | |   __   |  |    \   |  |\   \          
                \     /   | |  | | |  |  |  |  | |\  \  |  | \   \       
                 \___/    |_|  |_| |__|  |__|  |_| \__\ |__|  \__/        
                                                                              
                      - O R C A' S   B I G   F R I E N D -                    
                                      &                                       
                       - I N T E G R A L  F E E D E R -                       
                                                                              
 v1 FN, 2020, v2 2021                                                         
------------------------------------------------------------------------------


Reading SHARK input file arbr_24_r2scan3c_wB97MV_nbo.SHARKINP.tmp ... ok
----------------------
SHARK INTEGRAL PACKAGE
----------------------

Number of atoms                             ...     14
Number of basis functions                   ...    383
Number of shells                            ...    139
Maximum angular momentum                    ...      3
Integral batch strategy                     ... SHARK/LIBINT Hybrid
RI-J (if used) integral strategy            ... SPLIT-RIJ (Revised 2003 algorithm where possible)
Printlevel                                  ...      1
Contraction scheme used                     ... SEGMENTED contraction
Coulomb Range Separation                    ... NOT USED
Exchange Range Separation                   ... Long Range
   Mu parameter                             ...  0.300000
   Scaling (regular/separated)              ...  0.150000  0.850000
Finite Nucleus Model                        ... NOT USED
Auxiliary Coulomb fitting basis             ... AVAILABLE
   # of basis functions in Aux-J            ...    543
   # of shells in Aux-J                     ...    173
   Maximum angular momentum in Aux-J        ...      4
Auxiliary J/K fitting basis                 ... NOT available
Auxiliary Correlation fitting basis         ... NOT available
Auxiliary 'external' fitting basis          ... NOT available
Integral threshold                          ...     1.000000e-10
Primitive cut-off                           ...     1.000000e-11
Primitive pair pre-selection threshold      ...     1.000000e-11

Calculating pre-screening integrals         ... done (  0.1 sec) Dimension = 139
Organizing shell pair data                  ... done (  0.2 sec)
Shell pair information
Total number of shell pairs                 ...      9730
Shell pairs after pre-screening             ...      8445
Total number of primitive shell pairs       ...     31902
Primitive shell pairs kept                  ...     19749
          la=0 lb=0:   1655 shell pairs
          la=1 lb=0:   2225 shell pairs
          la=1 lb=1:    759 shell pairs
          la=2 lb=0:   1378 shell pairs
          la=2 lb=1:    932 shell pairs
          la=2 lb=2:    304 shell pairs
          la=3 lb=0:    544 shell pairs
          la=3 lb=1:    363 shell pairs
          la=3 lb=2:    233 shell pairs
          la=3 lb=3:     52 shell pairs

Calculating one electron integrals          ... done (  0.0 sec)
Calculating RI/J V-Matrix + Cholesky decomp.... done (  0.0 sec)
Calculating Nuclear repulsion               ... done (  0.0 sec) ENN=    702.605231014658 Eh

SHARK setup successfully completed in   0.6 seconds

Maximum memory used throughout the entire GTOINT-calculation: 25.6 MB


           ************************************************************
           *        Program running with 16 parallel MPI-processes    *
           *              working on a common directory               *
           ************************************************************
-------------------------------------------------------------------------------
                                 ORCA SCF
-------------------------------------------------------------------------------

------------
SCF SETTINGS
------------
Hamiltonian:
 Density Functional     Method          .... DFT(GTOs)
  Functional kind                       .... Exchange-Correlation
  Functional name                       .... wB97M-V exchange-correlation functional
  Functional family                     .... Hybrid MGGA
  Functional refs                              
    [ 0] N. Mardirossian and M. Head-Gordon, J. Chem. Phys. 144, 214110 (2016)
  Fraction of HF Exchange (short range) .... 0.1500
  Fraction of HF Exchange (long range)  .... 1.0000
  Range separation parameter mu         .... 0.3000
  Functional external parameters         .... 0
   Density functional embedding theory  .... OFF
 Long-range corrected/Screened/Range-Separated Hybrid DFT is turned on
   Amount of maximum screened exact exchange              ....  0.850000
   Range separation parameter mu (erf(mu*r12)/r12)        ....  0.300000
   NL short-range parameter             ....  6.000000
   NL long-range parameter              ....  0.010000
 RI-approximation to the Coulomb term is turned on
   Number of AuxJ basis functions       .... 543
   RIJ-COSX (HFX calculated with COS-X)).... on


General Settings:
 Integral files         IntName         .... arbr_24_r2scan3c_wB97MV_nbo
 Hartree-Fock type      HFTyp           .... RHF
 Total Charge           Charge          ....    0
 Multiplicity           Mult            ....    1
 Number of Electrons    NEL             ....   96
 Basis Dimension        Dim             ....  383
 Nuclear Repulsion      ENuc            ....    702.6052310147 Eh

Convergence Acceleration:
 DIIS                   CNVDIIS         .... on
   Start iteration      DIISMaxIt       ....    12
   Startup error        DIISStart       ....  0.200000
   # of expansion vecs  DIISMaxEq       ....     5
   Bias factor          DIISBfac        ....   1.050
   Max. coefficient     DIISMaxC        ....  10.000
 Trust-Rad. Augm. Hess. CNVTRAH         .... auto
   Auto Start mean grad. ratio tolernc. ....  1.125000
   Auto Start start iteration           ....    20
   Auto Start num. interpolation iter.  ....    10
   Max. Number of Micro iterations      ....    16
   Max. Number of Macro iterations      .... Maxiter - #DIIS iter
   Number of Davidson start vectors     ....     2
   Converg. threshold I  (grad. norm)   ....   5.000e-05
   Converg. threshold II (energy diff.) ....   1.000e-06
   Grad. Scal. Fac. for Micro threshold ....   0.100
   Minimum threshold for Micro iter.    ....   0.010
   NR start threshold (gradient norm)   ....   0.001
   Initial trust radius                 ....   0.400
   Minimum AH scaling param. (alpha)    ....   1.000
   Maximum AH scaling param. (alpha)    .... 1000.000
   Orbital update algorithm             .... Taylor
   White noise on init. David. guess    .... on
   Maximum white noise                  ....   0.010
   Quad. conv. algorithm                .... NR
 SOSCF                  CNVSOSCF        .... on
   Start iteration      SOSCFMaxIt      ....   150
   Startup grad/error   SOSCFStart      ....  0.003300
 Level Shifting         CNVShift        .... on
   Level shift para.    LevelShift      ....    0.2500
   Turn off err/grad.   ShiftErr        ....    0.0010
 Zerner damping         CNVZerner       .... off
 Static damping         CNVDamp         .... on
   Fraction old density DampFac         ....    0.7000
   Max. Damping (<1)    DampMax         ....    0.9800
   Min. Damping (>=0)   DampMin         ....    0.0000
   Turn off err/grad.   DampErr         ....    0.1000
 Fernandez-Rico         CNVRico         .... off

SCF Procedure:
 Maximum # iterations   MaxIter         ....   125
 SCF integral mode      SCFMode         .... Direct
   Integral package                     .... SHARK and LIBINT hybrid scheme
 Reset frequency        DirectResetFreq ....    20
 Integral Threshold     Thresh          ....  1.000e-10 Eh
 Primitive CutOff       TCut            ....  1.000e-11 Eh

Convergence Tolerance:
 Convergence Check Mode ConvCheckMode   .... Total+1el-Energy
 Convergence forced     ConvForced      .... 0
 Energy Change          TolE            ....  1.000e-06 Eh
 1-El. energy change                    ....  1.000e-03 Eh
 Orbital Gradient       TolG            ....  5.000e-05
 Orbital Rotation angle TolX            ....  5.000e-05
 DIIS Error             TolErr          ....  1.000e-06


Diagonalization of the overlap matrix:
Smallest eigenvalue                        ... 3.012e-05
Time for diagonalization                   ...    0.036 sec
Threshold for overlap eigenvalues          ... 1.000e-08
Number of eigenvalues below threshold      ... 0
Time for construction of square roots      ...    0.019 sec
Total time needed                          ...    0.056 sec

Time for model grid setup =    0.128 sec

------------------------------
INITIAL GUESS: MODEL POTENTIAL
------------------------------
Loading Hartree-Fock densities                     ... done
Calculating cut-offs                               ... done
Initializing the effective Hamiltonian             ... done
Setting up the integral package (SHARK)            ... done
Starting the Coulomb interaction                   ... done (   0.1 sec)
Reading the grid                                   ... done
Mapping shells                                     ... done
Starting the XC term evaluation                    ... done (   0.1 sec)
  promolecular density results
     # of electrons  =     95.995133832
     EX              =   -140.814629477
     EC              =     -3.791496194
     EX+EC           =   -144.606125671
Transforming the Hamiltonian                       ... done (   0.0 sec)
Diagonalizing the Hamiltonian                      ... done (   0.0 sec)
Back transforming the eigenvectors                 ... done (   0.0 sec)
Now organizing SCF variables                       ... done
                      ------------------
                      INITIAL GUESS DONE (   0.4 sec)
                      ------------------
-------------------
DFT GRID GENERATION
-------------------

General Integration Accuracy     IntAcc      ... 4.388
Radial Grid Type                 RadialGrid  ... OptM3 with GC (2021)
Angular Grid (max. ang.)         AngularGrid ... 4 (Lebedev-302)
Angular grid pruning method      GridPruning ... 4 (adaptive)
Weight generation scheme         WeightScheme... Becke
Basis function cutoff            BFCut       ... 1.0000e-10
Integration weight cutoff        WCut        ... 1.0000e-14
Angular grids for H and He will be reduced by one unit
Partially contracted basis set               ... off
Rotationally invariant grid construction     ... off

Total number of grid points                  ...    78308
Total number of batches                      ...     1229
Average number of points per batch           ...       63
Average number of grid points per atom       ...     5593
Time for grid setup =    0.663 sec

--------------------
COSX GRID GENERATION
--------------------

GRIDX 1
-------
General Integration Accuracy     IntAcc      ... 3.816
Radial Grid Type                 RadialGrid  ... OptM3 with GC (2021)
Angular Grid (max. ang.)         AngularGrid ... 1 (Lebedev-50)
Angular grid pruning method      GridPruning ... 4 (adaptive)
Weight generation scheme         WeightScheme... Becke
Basis function cutoff            BFCut       ... 1.0000e-10
Integration weight cutoff        WCut        ... 1.0000e-14
Angular grids for H and He will be reduced by one unit
Partially contracted basis set               ... on
Rotationally invariant grid construction     ... off

Total number of grid points                  ...     9766
Total number of batches                      ...      160
Average number of points per batch           ...       61
Average number of grid points per atom       ...      698
UseSFitting                                  ... on

GRIDX 2
-------
General Integration Accuracy     IntAcc      ... 4.020
Radial Grid Type                 RadialGrid  ... OptM3 with GC (2021)
Angular Grid (max. ang.)         AngularGrid ... 2 (Lebedev-110)
Angular grid pruning method      GridPruning ... 4 (adaptive)
Weight generation scheme         WeightScheme... Becke
Basis function cutoff            BFCut       ... 1.0000e-10
Integration weight cutoff        WCut        ... 1.0000e-14
Angular grids for H and He will be reduced by one unit
Partially contracted basis set               ... on
Rotationally invariant grid construction     ... off

Total number of grid points                  ...    21933
Total number of batches                      ...      349
Average number of points per batch           ...       62
Average number of grid points per atom       ...     1567
UseSFitting                                  ... on

GRIDX 3
-------
General Integration Accuracy     IntAcc      ... 4.338
Radial Grid Type                 RadialGrid  ... OptM3 with GC (2021)
Angular Grid (max. ang.)         AngularGrid ... 3 (Lebedev-194)
Angular grid pruning method      GridPruning ... 4 (adaptive)
Weight generation scheme         WeightScheme... Becke
Basis function cutoff            BFCut       ... 1.0000e-10
Integration weight cutoff        WCut        ... 1.0000e-14
Angular grids for H and He will be reduced by one unit
Partially contracted basis set               ... on
Rotationally invariant grid construction     ... off

Total number of grid points                  ...    48577
Total number of batches                      ...      765
Average number of points per batch           ...       63
Average number of grid points per atom       ...     3470
UseSFitting                                  ... on

Time for X-Grid setup             =    0.557 sec

--------------
SCF ITERATIONS
--------------
ITER       Energy         Delta-E        Max-DP      RMS-DP      [F,P]     Damp
               ***  Starting incremental Fock matrix formation  ***
  0  -2969.4765218103   0.000000000000 0.03335718  0.00076911  0.1807900 0.7000
  1  -2969.5574727858  -0.080950975440 0.02923327  0.00065974  0.0973337 0.7000
                               ***Turning on DIIS***
  2  -2969.5987047635  -0.041231977712 0.05408265  0.00132606  0.0454128 0.0000
  3  -2969.6682973044  -0.069592540882 0.03100569  0.00052526  0.0416567 0.0000
  4  -2969.6785007023  -0.010203397907 0.00907108  0.00017250  0.0088363 0.0000
  5  -2969.6789800635  -0.000479361161 0.00433310  0.00009068  0.0035993 0.0000
                      *** Initiating the SOSCF procedure ***
                           *** Shutting down DIIS ***
                      *** Re-Reading the Fockian *** 
                      *** Removing any level shift *** 
ITER      Energy       Delta-E        Grad      Rot      Max-DP    RMS-DP
  6  -2969.67911485  -0.0001347857  0.001458  0.001458  0.002177  0.000051
               *** Restarting incremental Fock matrix formation ***
  7  -2969.67914521  -0.0000303603  0.000896  0.002710  0.001342  0.000034
  8  -2969.67916536  -0.0000201531  0.000381  0.003100  0.001568  0.000035
  9  -2969.67917083  -0.0000054645  0.000287  0.000417  0.000438  0.000012
 10  -2969.67917293  -0.0000021051  0.000062  0.000171  0.000177  0.000004
                 **** Energy Check signals convergence ****
              ***Rediagonalizing the Fockian in SOSCF/NRSCF***

               *****************************************************
               *                     SUCCESS                       *
               *           SCF CONVERGED AFTER  11 CYCLES          *
               *****************************************************

Old exchange energy                            =    -34.299121216 Eh
New exchange energy                            =    -34.299132558 Eh
Exchange energy change after final integration =     -0.000011342 Eh
Total energy after final integration           =  -2969.679184417 Eh
Final COS-X integration done in                =     4.888 sec

------------------
NL GRID GENERATION
------------------

General Integration Accuracy     IntAcc      ... 4.004
Radial Grid Type                 RadialGrid  ... OptM3 with GC (2021)
Angular Grid (max. ang.)         AngularGrid ... 2 (Lebedev-110)
Angular grid pruning method      GridPruning ... 4 (adaptive)
Weight generation scheme         WeightScheme... Becke
Basis function cutoff            BFCut       ... 1.0000e-10
Integration weight cutoff        WCut        ... 1.0000e-14
Angular grids for H and He will be reduced by one unit
Partially contracted basis set               ... off
Rotationally invariant grid construction     ... off

Total number of grid points                  ...    27735
Total number of batches                      ...      439
Average number of points per batch           ...       63
Average number of grid points per atom       ...     1981
Final grid set up in    0.1 sec

-------------------------------------------------------------------------------
                    post-SCF DFT-NL dispersion correction                      
-------------------------------------------------------------------------------

SCF Energy:   -2969.679184417 
NL    Energy:  0.374804126 
SC+NL Energy: -2969.304380291 
NL done in:    0.2 sec
-------------------------------------------------------------------------------

----------------
TOTAL SCF ENERGY
----------------

Total Energy       :        -2969.30438029 Eh          -80798.87992 eV

Components:
Nuclear Repulsion  :          702.60523101 Eh           19118.86032 eV
Electronic Energy  :        -3671.90961131 Eh          -99917.74024 eV
One Electron Energy:        -5511.80988825 Eh         -149983.97210 eV
Two Electron Energy:         1839.90027694 Eh           50066.23185 eV
Max COSX asymmetry :            0.00000258 Eh               0.00007 eV

Virial components:
Potential Energy   :        -5934.56738568 Eh         -161487.78844 eV
Kinetic Energy     :         2965.26300539 Eh           80688.90852 eV
Virial Ratio       :            2.00136291


DFT components:
N(Alpha)           :       47.999982459493 electrons
N(Beta)            :       47.999982459493 electrons
N(Total)           :       95.999964918985 electrons
NL Energy, E(C,NL) :        0.374804125832 Eh       
E(XC)              :     -111.668606277994 Eh       
DFET-embed. en.    :        0.000000000000 Eh       

---------------
SCF CONVERGENCE
---------------

  Last Energy change         ...   -1.4259e-07  Tolerance :   1.0000e-06
  Last MAX-Density change    ...    6.6613e-15  Tolerance :   1.0000e-05
  Last RMS-Density change    ...    4.1319e-17  Tolerance :   1.0000e-06
  Last Orbital Gradient      ...    4.1815e-05  Tolerance :   5.0000e-05
  Last Orbital Rotation      ...    7.2995e-05  Tolerance :   5.0000e-05

             **** THE GBW FILE WAS UPDATED (arbr_24_r2scan3c_wB97MV_nbo.gbw) ****
             **** DENSITY arbr_24_r2scan3c_wB97MV_nbo.scfp WAS UPDATED ****
             **** ENERGY FILE WAS UPDATED (arbr_24_r2scan3c_wB97MV_nbo.en.tmp) ****
             **** THE GBW FILE WAS UPDATED (arbr_24_r2scan3c_wB97MV_nbo.gbw) ****
             **** DENSITY arbr_24_r2scan3c_wB97MV_nbo.scfp WAS UPDATED ****
----------------
ORBITAL ENERGIES
----------------

  NO   OCC          E(Eh)            E(eV) 
   0   2.0000    -483.528494    -13157.4792 
   1   2.0000     -62.833550     -1709.7878 
   2   2.0000     -56.520153     -1537.9916 
   3   2.0000     -56.517968     -1537.9321 
   4   2.0000     -56.517875     -1537.9296 
   5   2.0000     -14.612232      -397.6190 
   6   2.0000     -14.534712      -395.5096 
   7   2.0000     -14.523046      -395.1922 
   8   2.0000     -10.440356      -284.0965 
   9   2.0000     -10.435756      -283.9714 
  10   2.0000     -10.432201      -283.8746 
  11   2.0000     -10.418809      -283.5102 
  12   2.0000     -10.393628      -282.8250 
  13   2.0000     -10.391634      -282.7707 
  14   2.0000      -8.916817      -242.6389 
  15   2.0000      -6.703005      -182.3980 
  16   2.0000      -6.691831      -182.0940 
  17   2.0000      -6.691508      -182.0852 
  18   2.0000      -2.783933       -75.7547 
  19   2.0000      -2.780723       -75.6673 
  20   2.0000      -2.780526       -75.6620 
  21   2.0000      -2.771493       -75.4162 
  22   2.0000      -2.771488       -75.4160 
  23   2.0000      -1.221548       -33.2400 
  24   2.0000      -1.100552       -29.9476 
  25   2.0000      -1.011797       -27.5324 
  26   2.0000      -0.958841       -26.0914 
  27   2.0000      -0.929590       -25.2954 
  28   2.0000      -0.889204       -24.1965 
  29   2.0000      -0.806441       -21.9444 
  30   2.0000      -0.769261       -20.9327 
  31   2.0000      -0.754029       -20.5182 
  32   2.0000      -0.682281       -18.5658 
  33   2.0000      -0.638893       -17.3852 
  34   2.0000      -0.618514       -16.8306 
  35   2.0000      -0.617916       -16.8143 
  36   2.0000      -0.600856       -16.3501 
  37   2.0000      -0.578004       -15.7283 
  38   2.0000      -0.526403       -14.3241 
  39   2.0000      -0.509336       -13.8597 
  40   2.0000      -0.494312       -13.4509 
  41   2.0000      -0.470228       -12.7956 
  42   2.0000      -0.435932       -11.8623 
  43   2.0000      -0.412150       -11.2152 
  44   2.0000      -0.409860       -11.1529 
  45   2.0000      -0.377908       -10.2834 
  46   2.0000      -0.372743       -10.1429 
  47   2.0000      -0.326010        -8.8712 
  48   0.0000       0.005194         0.1413 
  49   0.0000       0.050456         1.3730 
  50   0.0000       0.060859         1.6561 
  51   0.0000       0.096249         2.6191 
  52   0.0000       0.108977         2.9654 
  53   0.0000       0.121724         3.3123 
  54   0.0000       0.127257         3.4628 
  55   0.0000       0.144201         3.9239 
  56   0.0000       0.148719         4.0468 
  57   0.0000       0.182565         4.9679 
  58   0.0000       0.183886         5.0038 
  59   0.0000       0.198086         5.3902 
  60   0.0000       0.214624         5.8402 
  61   0.0000       0.232625         6.3300 
  62   0.0000       0.236018         6.4224 
  63   0.0000       0.258415         7.0318 
  64   0.0000       0.266427         7.2499 
  65   0.0000       0.273794         7.4503 
  66   0.0000       0.280813         7.6413 
  67   0.0000       0.290013         7.8917 
  68   0.0000       0.291017         7.9190 
  69   0.0000       0.302045         8.2191 
  70   0.0000       0.322018         8.7625 
  71   0.0000       0.326868         8.8945 
  72   0.0000       0.327129         8.9016 
  73   0.0000       0.338799         9.2192 
  74   0.0000       0.340535         9.2664 
  75   0.0000       0.352005         9.5785 
  76   0.0000       0.373218        10.1558 
  77   0.0000       0.381747        10.3879 
  78   0.0000       0.403004        10.9663 
  79   0.0000       0.412880        11.2350 
  80   0.0000       0.421434        11.4678 
  81   0.0000       0.423613        11.5271 
  82   0.0000       0.429197        11.6791 
  83   0.0000       0.442905        12.0521 
  84   0.0000       0.446283        12.1440 
  85   0.0000       0.457909        12.4603 
  86   0.0000       0.465522        12.6675 
  87   0.0000       0.466330        12.6895 
  88   0.0000       0.485195        13.2028 
  89   0.0000       0.502603        13.6765 
  90   0.0000       0.508555        13.8385 
  91   0.0000       0.516830        14.0637 
  92   0.0000       0.516948        14.0669 
  93   0.0000       0.553037        15.0489 
  94   0.0000       0.569170        15.4879 
  95   0.0000       0.580469        15.7954 
  96   0.0000       0.583388        15.8748 
  97   0.0000       0.592832        16.1318 
  98   0.0000       0.604347        16.4451 
  99   0.0000       0.611201        16.6316 
 100   0.0000       0.625539        17.0218 
 101   0.0000       0.628091        17.0912 
 102   0.0000       0.631782        17.1917 
 103   0.0000       0.638216        17.3668 
 104   0.0000       0.677012        18.4224 
 105   0.0000       0.686815        18.6892 
 106   0.0000       0.687770        18.7152 
 107   0.0000       0.712986        19.4013 
 108   0.0000       0.728120        19.8131 
 109   0.0000       0.735480        20.0134 
 110   0.0000       0.740318        20.1451 
 111   0.0000       0.747161        20.3313 
 112   0.0000       0.778324        21.1793 
 113   0.0000       0.786368        21.3981 
 114   0.0000       0.793511        21.5925 
 115   0.0000       0.801661        21.8143 
 116   0.0000       0.832263        22.6470 
 117   0.0000       0.836706        22.7679 
 118   0.0000       0.865018        23.5383 
 119   0.0000       0.867015        23.5927 
 120   0.0000       0.876576        23.8528 
 121   0.0000       0.918945        25.0058 
 122   0.0000       0.936308        25.4782 
 123   0.0000       0.955609        26.0034 
 124   0.0000       0.961810        26.1722 
 125   0.0000       0.986905        26.8550 
 126   0.0000       1.022921        27.8351 
 127   0.0000       1.034284        28.1443 
 128   0.0000       1.038712        28.2648 
 129   0.0000       1.048811        28.5396 
 130   0.0000       1.054457        28.6932 
 131   0.0000       1.098840        29.9010 
 132   0.0000       1.110914        30.2295 
 133   0.0000       1.110972        30.2311 
 134   0.0000       1.148224        31.2448 
 135   0.0000       1.169176        31.8149 
 136   0.0000       1.195527        32.5319 
 137   0.0000       1.202328        32.7170 
 138   0.0000       1.213453        33.0197 
 139   0.0000       1.247295        33.9406 
 140   0.0000       1.262203        34.3463 
 141   0.0000       1.264649        34.4129 
 142   0.0000       1.290507        35.1165 
 143   0.0000       1.295310        35.2472 
 144   0.0000       1.321084        35.9485 
 145   0.0000       1.332283        36.2533 
 146   0.0000       1.341633        36.5077 
 147   0.0000       1.346488        36.6398 
 148   0.0000       1.374658        37.4063 
 149   0.0000       1.383621        37.6503 
 150   0.0000       1.393085        37.9078 
 151   0.0000       1.393723        37.9251 
 152   0.0000       1.420474        38.6531 
 153   0.0000       1.450653        39.4743 
 154   0.0000       1.467154        39.9233 
 155   0.0000       1.478676        40.2368 
 156   0.0000       1.488027        40.4913 
 157   0.0000       1.494353        40.6634 
 158   0.0000       1.502160        40.8759 
 159   0.0000       1.523401        41.4539 
 160   0.0000       1.530575        41.6491 
 161   0.0000       1.533124        41.7184 
 162   0.0000       1.537034        41.8248 
 163   0.0000       1.556368        42.3509 
 164   0.0000       1.568298        42.6756 
 165   0.0000       1.607003        43.7288 
 166   0.0000       1.612686        43.8834 
 167   0.0000       1.628805        44.3220 
 168   0.0000       1.643561        44.7236 
 169   0.0000       1.652834        44.9759 
 170   0.0000       1.659135        45.1473 
 171   0.0000       1.662570        45.2408 
 172   0.0000       1.692357        46.0514 
 173   0.0000       1.692754        46.0622 
 174   0.0000       1.703088        46.3434 
 175   0.0000       1.703560        46.3562 
 176   0.0000       1.724332        46.9215 
 177   0.0000       1.757941        47.8360 
 178   0.0000       1.758813        47.8597 
 179   0.0000       1.775390        48.3108 
 180   0.0000       1.789067        48.6830 
 181   0.0000       1.794139        48.8210 
 182   0.0000       1.796255        48.8786 
 183   0.0000       1.806332        49.1528 
 184   0.0000       1.833416        49.8898 
 185   0.0000       1.851278        50.3758 
 186   0.0000       1.851861        50.3917 
 187   0.0000       1.875450        51.0336 
 188   0.0000       1.925428        52.3936 
 189   0.0000       1.929137        52.4945 
 190   0.0000       1.942348        52.8540 
 191   0.0000       1.980346        53.8880 
 192   0.0000       1.998196        54.3737 
 193   0.0000       2.008724        54.6602 
 194   0.0000       2.020472        54.9798 
 195   0.0000       2.020659        54.9849 
 196   0.0000       2.076101        56.4936 
 197   0.0000       2.088464        56.8300 
 198   0.0000       2.168275        59.0018 
 199   0.0000       2.192303        59.6556 
 200   0.0000       2.216107        60.3033 
 201   0.0000       2.242715        61.0274 
 202   0.0000       2.286095        62.2078 
 203   0.0000       2.299681        62.5775 
 204   0.0000       2.316125        63.0250 
 205   0.0000       2.322618        63.2017 
 206   0.0000       2.393139        65.1206 
 207   0.0000       2.397002        65.2257 
 208   0.0000       2.399482        65.2932 
 209   0.0000       2.418969        65.8235 
 210   0.0000       2.471013        67.2397 
 211   0.0000       2.519257        68.5525 
 212   0.0000       2.530456        68.8572 
 213   0.0000       2.567232        69.8579 
 214   0.0000       2.599585        70.7383 
 215   0.0000       2.610079        71.0238 
 216   0.0000       2.616308        71.1934 
 217   0.0000       2.678573        72.8877 
 218   0.0000       2.697563        73.4044 
 219   0.0000       2.700343        73.4801 
 220   0.0000       2.761386        75.1411 
 221   0.0000       2.762784        75.1792 
 222   0.0000       2.778421        75.6047 
 223   0.0000       2.794770        76.0496 
 224   0.0000       2.846845        77.4666 
 225   0.0000       2.853885        77.6582 
 226   0.0000       2.873601        78.1947 
 227   0.0000       2.879016        78.3420 
 228   0.0000       2.890176        78.6457 
 229   0.0000       2.913044        79.2680 
 230   0.0000       2.924143        79.5700 
 231   0.0000       2.941009        80.0289 
 232   0.0000       2.964300        80.6627 
 233   0.0000       2.987107        81.2833 
 234   0.0000       2.993596        81.4599 
 235   0.0000       3.002201        81.6940 
 236   0.0000       3.010712        81.9256 
 237   0.0000       3.021507        82.2194 
 238   0.0000       3.059205        83.2452 
 239   0.0000       3.073221        83.6266 
 240   0.0000       3.083566        83.9081 
 241   0.0000       3.095513        84.2332 
 242   0.0000       3.102568        84.4252 
 243   0.0000       3.110510        84.6413 
 244   0.0000       3.163861        86.0930 
 245   0.0000       3.169862        86.2563 
 246   0.0000       3.173073        86.3437 
 247   0.0000       3.203094        87.1606 
 248   0.0000       3.205613        87.2292 
 249   0.0000       3.239756        88.1582 
 250   0.0000       3.271105        89.0113 
 251   0.0000       3.276904        89.1691 
 252   0.0000       3.297670        89.7342 
 253   0.0000       3.306982        89.9876 
 254   0.0000       3.307574        90.0037 
 255   0.0000       3.348192        91.1089 
 256   0.0000       3.351188        91.1905 
 257   0.0000       3.356154        91.3256 
 258   0.0000       3.375312        91.8469 
 259   0.0000       3.382909        92.0536 
 260   0.0000       3.394373        92.3656 
 261   0.0000       3.449054        93.8535 
 262   0.0000       3.449229        93.8583 
 263   0.0000       3.480597        94.7119 
 264   0.0000       3.488868        94.9369 
 265   0.0000       3.500214        95.2457 
 266   0.0000       3.511815        95.5613 
 267   0.0000       3.529555        96.0441 
 268   0.0000       3.569449        97.1296 
 269   0.0000       3.570791        97.1662 
 270   0.0000       3.594520        97.8118 
 271   0.0000       3.619162        98.4824 
 272   0.0000       3.619323        98.4868 
 273   0.0000       3.651909        99.3735 
 274   0.0000       3.660381        99.6040 
 275   0.0000       3.677185       100.0613 
 276   0.0000       3.730940       101.5241 
 277   0.0000       3.746706       101.9531 
 278   0.0000       3.765215       102.4567 
 279   0.0000       3.796407       103.3055 
 280   0.0000       3.800003       103.4033 
 281   0.0000       3.827196       104.1433 
 282   0.0000       3.829226       104.1985 
 283   0.0000       3.856376       104.9373 
 284   0.0000       3.890276       105.8598 
 285   0.0000       3.891292       105.8875 
 286   0.0000       3.905743       106.2807 
 287   0.0000       3.914471       106.5182 
 288   0.0000       3.927692       106.8779 
 289   0.0000       3.946301       107.3843 
 290   0.0000       3.958583       107.7185 
 291   0.0000       4.015435       109.2655 
 292   0.0000       4.022670       109.4624 
 293   0.0000       4.031078       109.6912 
 294   0.0000       4.034492       109.7841 
 295   0.0000       4.051162       110.2377 
 296   0.0000       4.075661       110.9044 
 297   0.0000       4.100001       111.5667 
 298   0.0000       4.103580       111.6641 
 299   0.0000       4.127391       112.3120 
 300   0.0000       4.146404       112.8294 
 301   0.0000       4.161391       113.2372 
 302   0.0000       4.188148       113.9653 
 303   0.0000       4.241758       115.4241 
 304   0.0000       4.258394       115.8768 
 305   0.0000       4.260153       115.9247 
 306   0.0000       4.278867       116.4339 
 307   0.0000       4.291824       116.7865 
 308   0.0000       4.335203       117.9669 
 309   0.0000       4.337796       118.0374 
 310   0.0000       4.364601       118.7668 
 311   0.0000       4.397376       119.6587 
 312   0.0000       4.399239       119.7094 
 313   0.0000       4.427462       120.4774 
 314   0.0000       4.446382       120.9922 
 315   0.0000       4.524011       123.1046 
 316   0.0000       4.528867       123.2367 
 317   0.0000       4.568753       124.3221 
 318   0.0000       4.594572       125.0247 
 319   0.0000       4.609740       125.4374 
 320   0.0000       4.663735       126.9067 
 321   0.0000       4.699850       127.8894 
 322   0.0000       4.703870       127.9988 
 323   0.0000       4.763730       129.6277 
 324   0.0000       4.773463       129.8925 
 325   0.0000       4.781755       130.1182 
 326   0.0000       4.814125       130.9990 
 327   0.0000       4.830975       131.4575 
 328   0.0000       4.846664       131.8844 
 329   0.0000       4.869392       132.5029 
 330   0.0000       4.871865       132.5702 
 331   0.0000       4.933060       134.2354 
 332   0.0000       4.960065       134.9702 
 333   0.0000       4.975582       135.3925 
 334   0.0000       4.992089       135.8417 
 335   0.0000       5.047755       137.3564 
 336   0.0000       5.049995       137.4174 
 337   0.0000       5.084693       138.3615 
 338   0.0000       5.100200       138.7835 
 339   0.0000       5.130760       139.6151 
 340   0.0000       5.155070       140.2766 
 341   0.0000       5.160871       140.4344 
 342   0.0000       5.215339       141.9166 
 343   0.0000       5.218127       141.9924 
 344   0.0000       5.229256       142.2953 
 345   0.0000       5.271739       143.4513 
 346   0.0000       5.275584       143.5559 
 347   0.0000       5.277498       143.6080 
 348   0.0000       5.317218       144.6888 
 349   0.0000       5.341622       145.3529 
 350   0.0000       5.383360       146.4887 
 351   0.0000       5.415814       147.3718 
 352   0.0000       5.432305       147.8205 
 353   0.0000       5.456391       148.4759 
 354   0.0000       5.478522       149.0782 
 355   0.0000       5.492876       149.4688 
 356   0.0000       5.529624       150.4687 
 357   0.0000       5.537125       150.6728 
 358   0.0000       5.585300       151.9838 
 359   0.0000       5.673085       154.3725 
 360   0.0000       5.719672       155.6402 
 361   0.0000       5.762230       156.7982 
 362   0.0000       5.779188       157.2597 
 363   0.0000       5.857975       159.4036 
 364   0.0000       5.901941       160.6000 
 365   0.0000       5.945478       161.7847 
 366   0.0000       6.098452       165.9473 
 367   0.0000       6.177356       168.0944 
 368   0.0000       6.246691       169.9811 
 369   0.0000       6.311006       171.7312 
 370   0.0000       6.450546       175.5283 
 371   0.0000       6.888949       187.4578 
 372   0.0000       7.088957       192.9003 
 373   0.0000       7.890013       214.6982 
 374   0.0000      23.009446       626.1189 
 375   0.0000      23.281864       633.5317 
 376   0.0000      23.465935       638.5405 
 377   0.0000      23.540942       640.5816 
 378   0.0000      23.929554       651.1563 
 379   0.0000      24.053803       654.5373 
 380   0.0000      32.507152       884.5646 
 381   0.0000      32.723939       890.4637 
 382   0.0000      33.477542       910.9702 

                    ********************************
                    * MULLIKEN POPULATION ANALYSIS *
                    ********************************

-----------------------
MULLIKEN ATOMIC CHARGES
-----------------------
   0 Br:   -0.015860
   1 C :    0.003190
   2 C :   -0.126547
   3 C :   -0.018184
   4 N :   -0.063922
   5 C :   -0.009960
   6 N :   -0.151210
   7 N :   -0.125372
   8 C :    0.108872
   9 C :   -0.155151
  10 H :    0.133545
  11 H :    0.137940
  12 H :    0.143221
  13 H :    0.139439
Sum of atomic charges:   -0.0000000

--------------------------------
MULLIKEN REDUCED ORBITAL CHARGES
--------------------------------
  0 Brs       :     7.880363  s :     7.880363
      pz      :     5.937335  p :    17.078314
      px      :     5.191401
      py      :     5.949578
      dz2     :     2.006655  d :    10.049659
      dxz     :     2.014919
      dyz     :     2.000504
      dx2y2   :     2.019358
      dxy     :     2.008223
      f0      :     0.000798  f :     0.007525
      f+1     :     0.001495
      f-1     :     0.000130
      f+2     :     0.001105
      f-2     :     0.000105
      f+3     :     0.002384
      f-3     :     0.001508
  1 C s       :     3.247442  s :     3.247442
      pz      :     0.980255  p :     2.579292
      px      :     0.763019
      py      :     0.836018
      dz2     :     0.007326  d :     0.160568
      dxz     :     0.025769
      dyz     :     0.026819
      dx2y2   :     0.055160
      dxy     :     0.045495
      f0      :     0.001954  f :     0.009507
      f+1     :     0.000894
      f-1     :     0.000668
      f+2     :     0.000711
      f-2     :     0.000978
      f+3     :     0.001719
      f-3     :     0.002583
  2 C s       :     3.177404  s :     3.177404
      pz      :     1.001440  p :     2.858791
      px      :     0.951944
      py      :     0.905407
      dz2     :     0.005798  d :     0.082811
      dxz     :     0.015360
      dyz     :     0.014756
      dx2y2   :     0.012757
      dxy     :     0.034138
      f0      :     0.001589  f :     0.007542
      f+1     :     0.000614
      f-1     :     0.000684
      f+2     :     0.001110
      f-2     :     0.000263
      f+3     :     0.001317
      f-3     :     0.001965
  3 C s       :     3.150912  s :     3.150912
      pz      :     0.973915  p :     2.744461
      px      :     0.862681
      py      :     0.907864
      dz2     :     0.002824  d :     0.112236
      dxz     :     0.031900
      dyz     :     0.014019
      dx2y2   :     0.023244
      dxy     :     0.040250
      f0      :     0.001917  f :     0.010575
      f+1     :     0.000776
      f-1     :     0.000911
      f+2     :     0.000664
      f-2     :     0.001541
      f+3     :     0.001981
      f-3     :     0.002784
  4 N s       :     3.461105  s :     3.461105
      pz      :     1.393334  p :     3.502296
      px      :     1.049553
      py      :     1.059408
      dz2     :     0.006371  d :     0.094592
      dxz     :     0.020643
      dyz     :     0.013880
      dx2y2   :     0.027514
      dxy     :     0.026183
      f0      :     0.001011  f :     0.005929
      f+1     :     0.000665
      f-1     :     0.000673
      f+2     :     0.000688
      f-2     :     0.000439
      f+3     :     0.000944
      f-3     :     0.001509
  5 C s       :     3.133687  s :     3.133687
      pz      :     1.037436  p :     2.728242
      px      :     0.747085
      py      :     0.943722
      dz2     :     0.001980  d :     0.132858
      dxz     :     0.024923
      dyz     :     0.023403
      dx2y2   :     0.035378
      dxy     :     0.047174
      f0      :     0.002341  f :     0.015173
      f+1     :     0.001251
      f-1     :     0.001176
      f+2     :     0.002611
      f-2     :     0.000210
      f+3     :     0.003502
      f-3     :     0.004082
  6 N s       :     3.627945  s :     3.627945
      pz      :     1.095133  p :     3.435126
      px      :     1.317396
      py      :     1.022598
      dz2     :     0.006882  d :     0.082507
      dxz     :     0.014391
      dyz     :     0.018861
      dx2y2   :     0.022962
      dxy     :     0.019410
      f0      :     0.000779  f :     0.005631
      f+1     :     0.000530
      f-1     :     0.000463
      f+2     :     0.000559
      f-2     :     0.000698
      f+3     :     0.001431
      f-3     :     0.001172
  7 N s       :     3.553509  s :     3.553509
      pz      :     1.180740  p :     3.488102
      px      :     0.887617
      py      :     1.419745
      dz2     :     0.006939  d :     0.078354
      dxz     :     0.015050
      dyz     :     0.013424
      dx2y2   :     0.016627
      dxy     :     0.026315
      f0      :     0.000770  f :     0.005407
      f+1     :     0.000612
      f-1     :     0.000433
      f+2     :     0.000103
      f-2     :     0.000919
      f+3     :     0.001352
      f-3     :     0.001220
  8 C s       :     3.092081  s :     3.092081
      pz      :     0.967771  p :     2.618305
      px      :     0.901829
      py      :     0.748706
      dz2     :     0.003874  d :     0.162633
      dxz     :     0.039305
      dyz     :     0.034211
      dx2y2   :     0.052817
      dxy     :     0.032426
      f0      :     0.002824  f :     0.018108
      f+1     :     0.001336
      f-1     :     0.001333
      f+2     :     0.001645
      f-2     :     0.001913
      f+3     :     0.005160
      f-3     :     0.003897
  9 C s       :     3.211182  s :     3.211182
      pz      :     0.959428  p :     2.856534
      px      :     0.917173
      py      :     0.979932
      dz2     :     0.004686  d :     0.080217
      dxz     :     0.019053
      dyz     :     0.011910
      dx2y2   :     0.025293
      dxy     :     0.019276
      f0      :     0.001538  f :     0.007217
      f+1     :     0.000674
      f-1     :     0.000613
      f+2     :     0.000557
      f-2     :     0.000664
      f+3     :     0.001291
      f-3     :     0.001879
 10 H s       :     0.829751  s :     0.829751
      pz      :     0.011403  p :     0.034225
      px      :     0.009862
      py      :     0.012960
      dz2     :     0.000152  d :     0.002480
      dxz     :     0.000397
      dyz     :     0.000407
      dx2y2   :     0.000996
      dxy     :     0.000529
 11 H s       :     0.827797  s :     0.827797
      pz      :     0.010977  p :     0.031903
      px      :     0.006149
      py      :     0.014778
      dz2     :     0.000186  d :     0.002360
      dxz     :     0.000184
      dyz     :     0.000574
      dx2y2   :     0.000768
      dxy     :     0.000648
 12 H s       :     0.824908  s :     0.824908
      pz      :     0.011203  p :     0.029626
      px      :     0.008775
      py      :     0.009648
      dz2     :     0.000198  d :     0.002246
      dxz     :     0.000253
      dyz     :     0.000504
      dx2y2   :     0.000801
      dxy     :     0.000490
 13 H s       :     0.823897  s :     0.823897
      pz      :     0.010439  p :     0.034187
      px      :     0.009096
      py      :     0.014652
      dz2     :     0.000145  d :     0.002477
      dxz     :     0.000056
      dyz     :     0.000713
      dx2y2   :     0.000697
      dxy     :     0.000867


                     *******************************
                     * LOEWDIN POPULATION ANALYSIS *
                     *******************************

----------------------
LOEWDIN ATOMIC CHARGES
----------------------
   0 Br:    0.378496
   1 C :   -0.351279
   2 C :   -0.048406
   3 C :   -0.026284
   4 N :    0.329476
   5 C :   -0.198012
   6 N :    0.060364
   7 N :    0.040522
   8 C :   -0.259164
   9 C :   -0.013371
  10 H :    0.025218
  11 H :    0.024200
  12 H :    0.004093
  13 H :    0.034146

-------------------------------
LOEWDIN REDUCED ORBITAL CHARGES
-------------------------------
  0 Brs       :     7.568536  s :     7.568536
      pz      :     5.870001  p :    16.919612
      px      :     5.191585
      py      :     5.858026
      dz2     :     2.015294  d :    10.117966
      dxz     :     2.033459
      dyz     :     2.000840
      dx2y2   :     2.042892
      dxy     :     2.025482
      f0      :     0.001527  f :     0.015390
      f+1     :     0.002803
      f-1     :     0.000272
      f+2     :     0.002249
      f-2     :     0.000176
      f+3     :     0.004726
      f-3     :     0.003637
  1 C s       :     2.779472  s :     2.779472
      pz      :     0.901807  p :     2.961479
      px      :     0.983311
      py      :     1.076361
      dz2     :     0.036541  d :     0.555669
      dxz     :     0.076343
      dyz     :     0.083375
      dx2y2   :     0.206105
      dxy     :     0.153305
      f0      :     0.003937  f :     0.054659
      f+1     :     0.004238
      f-1     :     0.004328
      f+2     :     0.004709
      f-2     :     0.007463
      f+3     :     0.011843
      f-3     :     0.018142
  2 C s       :     2.723491  s :     2.723491
      pz      :     0.879949  p :     2.896044
      px      :     1.033665
      py      :     0.982430
      dz2     :     0.026407  d :     0.384771
      dxz     :     0.052622
      dyz     :     0.045281
      dx2y2   :     0.107626
      dxy     :     0.152836
      f0      :     0.002825  f :     0.044100
      f+1     :     0.004158
      f-1     :     0.003579
      f+2     :     0.008304
      f-2     :     0.002089
      f+3     :     0.010240
      f-3     :     0.012904
  3 C s       :     2.719923  s :     2.719923
      pz      :     0.867576  p :     2.781275
      px      :     0.994018
      py      :     0.919682
      dz2     :     0.029310  d :     0.463391
      dxz     :     0.096403
      dyz     :     0.037337
      dx2y2   :     0.130358
      dxy     :     0.169983
      f0      :     0.004118  f :     0.061694
      f+1     :     0.005112
      f-1     :     0.004727
      f+2     :     0.005193
      f-2     :     0.010134
      f+3     :     0.014504
      f-3     :     0.017905
  4 N s       :     2.839449  s :     2.839449
      pz      :     1.199997  p :     3.471328
      px      :     1.138783
      py      :     1.132549
      dz2     :     0.019746  d :     0.334814
      dxz     :     0.062627
      dyz     :     0.043718
      dx2y2   :     0.111406
      dxy     :     0.097317
      f0      :     0.001485  f :     0.024933
      f+1     :     0.001841
      f-1     :     0.001831
      f+2     :     0.004408
      f-2     :     0.002513
      f+3     :     0.003656
      f-3     :     0.009200
  5 C s       :     2.744938  s :     2.744938
      pz      :     0.933648  p :     2.810810
      px      :     0.865033
      py      :     1.012129
      dz2     :     0.042045  d :     0.552362
      dxz     :     0.081264
      dyz     :     0.061195
      dx2y2   :     0.160748
      dxy     :     0.207110
      f0      :     0.005067  f :     0.089902
      f+1     :     0.006486
      f-1     :     0.006252
      f+2     :     0.018827
      f-2     :     0.002387
      f+3     :     0.023993
      f-3     :     0.026890
  6 N s       :     3.117457  s :     3.117457
      pz      :     1.026612  p :     3.525625
      px      :     1.325618
      py      :     1.173395
      dz2     :     0.023258  d :     0.268062
      dxz     :     0.022560
      dyz     :     0.056005
      dx2y2   :     0.082318
      dxy     :     0.083921
      f0      :     0.001449  f :     0.028493
      f+1     :     0.001510
      f-1     :     0.002373
      f+2     :     0.002529
      f-2     :     0.003904
      f+3     :     0.009813
      f-3     :     0.006915
  7 N s       :     3.112345  s :     3.112345
      pz      :     1.102764  p :     3.564493
      px      :     1.050829
      py      :     1.410901
      dz2     :     0.023711  d :     0.254665
      dxz     :     0.049729
      dyz     :     0.016479
      dx2y2   :     0.076846
      dxy     :     0.087900
      f0      :     0.001516  f :     0.027975
      f+1     :     0.002785
      f-1     :     0.001203
      f+2     :     0.000154
      f-2     :     0.005304
      f+3     :     0.009748
      f-3     :     0.007265
  8 C s       :     2.708946  s :     2.708946
      pz      :     0.881710  p :     2.755986
      px      :     1.001658
      py      :     0.872618
      dz2     :     0.051765  d :     0.692235
      dxz     :     0.105736
      dyz     :     0.104314
      dx2y2   :     0.222661
      dxy     :     0.207758
      f0      :     0.006147  f :     0.101996
      f+1     :     0.006604
      f-1     :     0.007081
      f+2     :     0.010740
      f-2     :     0.014745
      f+3     :     0.032017
      f-3     :     0.024662
  9 C s       :     2.723063  s :     2.723063
      pz      :     0.850550  p :     2.866028
      px      :     1.004947
      py      :     1.010531
      dz2     :     0.026273  d :     0.380521
      dxz     :     0.071651
      dyz     :     0.028074
      dx2y2   :     0.144372
      dxy     :     0.110150
      f0      :     0.003026  f :     0.043758
      f+1     :     0.004244
      f-1     :     0.003588
      f+2     :     0.004287
      f-2     :     0.005713
      f+3     :     0.009927
      f-3     :     0.012973
 10 H s       :     0.795992  s :     0.795992
      pz      :     0.043435  p :     0.148688
      px      :     0.049174
      py      :     0.056080
      dz2     :     0.002783  d :     0.030102
      dxz     :     0.004185
      dyz     :     0.004971
      dx2y2   :     0.009421
      dxy     :     0.008741
 11 H s       :     0.801183  s :     0.801183
      pz      :     0.041741  p :     0.145005
      px      :     0.035979
      py      :     0.067285
      dz2     :     0.002911  d :     0.029613
      dxz     :     0.001721
      dyz     :     0.007486
      dx2y2   :     0.008883
      dxy     :     0.008611
 12 H s       :     0.818169  s :     0.818169
      pz      :     0.047054  p :     0.147846
      px      :     0.044678
      py      :     0.056114
      dz2     :     0.003018  d :     0.029892
      dxz     :     0.003665
      dyz     :     0.006501
      dx2y2   :     0.007491
      dxy     :     0.009217
 13 H s       :     0.790329  s :     0.790329
      pz      :     0.039822  p :     0.145649
      px      :     0.035327
      py      :     0.070500
      dz2     :     0.002815  d :     0.029876
      dxz     :     0.000760
      dyz     :     0.008108
      dx2y2   :     0.009056
      dxy     :     0.009136


                      *****************************
                      * MAYER POPULATION ANALYSIS *
                      *****************************

  NA   - Mulliken gross atomic population
  ZA   - Total nuclear charge
  QA   - Mulliken gross atomic charge
  VA   - Mayer's total valence
  BVA  - Mayer's bonded valence
  FA   - Mayer's free valence

  ATOM       NA         ZA         QA         VA         BVA        FA
  0 Br    35.0159    35.0000    -0.0159     1.2252     1.2252    -0.0000
  1 C      5.9968     6.0000     0.0032     3.9739     3.9739    -0.0000
  2 C      6.1265     6.0000    -0.1265     3.8908     3.8908     0.0000
  3 C      6.0182     6.0000    -0.0182     3.9471     3.9471    -0.0000
  4 N      7.0639     7.0000    -0.0639     3.4476     3.4476     0.0000
  5 C      6.0100     6.0000    -0.0100     4.0344     4.0344    -0.0000
  6 N      7.1512     7.0000    -0.1512     3.0294     3.0294    -0.0000
  7 N      7.1254     7.0000    -0.1254     3.0867     3.0867    -0.0000
  8 C      5.8911     6.0000     0.1089     4.1709     4.1709    -0.0000
  9 C      6.1552     6.0000    -0.1552     3.9378     3.9378    -0.0000
 10 H      0.8665     1.0000     0.1335     1.0035     1.0035     0.0000
 11 H      0.8621     1.0000     0.1379     0.9964     0.9964    -0.0000
 12 H      0.8568     1.0000     0.1432     1.0006     1.0006    -0.0000
 13 H      0.8606     1.0000     0.1394     1.0094     1.0094    -0.0000

  Mayer bond orders larger than 0.100000
B(  0-Br,  1-C ) :   1.1229 B(  1-C ,  2-C ) :   1.1283 B(  1-C ,  9-C ) :   1.6233 
B(  2-C ,  3-C ) :   1.6984 B(  2-C , 10-H ) :   0.9605 B(  3-C ,  4-N ) :   1.1299 
B(  3-C , 11-H ) :   0.9524 B(  4-N ,  5-C ) :   1.1722 B(  4-N ,  8-C ) :   1.0842 
B(  5-C ,  6-N ) :   1.7534 B(  5-C , 12-H ) :   0.9618 B(  6-N ,  7-N ) :   1.1550 
B(  7-N ,  8-C ) :   1.7638 B(  8-C ,  9-C ) :   1.1765 B(  9-C , 13-H ) :   0.9526 


Now starting NBO....

 *********************************** NBO 7.0 ***********************************
             N A T U R A L   A T O M I C   O R B I T A L   A N D
          N A T U R A L   B O N D   O R B I T A L   A N A L Y S I S
 **************************** Robert Paton (I101709) ***************************
  (c) Copyright 1996-2019 Board of Regents of the University of Wisconsin System
      on behalf of the Theoretical Chemistry Institute.  All rights reserved.

          Cite this program [NBO 7.0.5 (4-Jun-2019)] as:

          NBO 7.0.  E. D. Glendening, J. K. Badenhoop, A. E. Reed,
          J. E. Carpenter, J. A. Bohmann, C. M. Morales, P. Karafiloglou,
          C. R. Landis, and F. Weinhold, Theoretical Chemistry Institute,
          University of Wisconsin, Madison, WI (2018)

       /NPA    / : Natural Population Analysis
       /NBO    / : Natural Bond Orbital Analysis
       /BNDIDX / : Print bond indices based on the NAO density matrix

 Job title:  ORCA Job: arbr_24_r2scan3c_wB97MV_nbo


 NATURAL POPULATIONS:  Natural atomic orbital occupancies

  NAO Atom No lang   Type(AO)    Occupancy      Energy
 -------------------------------------------------------
   1   Br  1  s      Cor( 1s)     2.00000    -464.99511
   2   Br  1  s      Cor( 2s)     2.00000     -76.42748
   3   Br  1  s      Cor( 3s)     1.99999     -13.85605
   4   Br  1  s      Val( 4s)     1.85651      -0.80742
   5   Br  1  s      Ryd( 5s)     0.00134       1.21108
   6   Br  1  s      Ryd( 6s)     0.00000       7.55122
   7   Br  1  px     Cor( 2p)     2.00000     -38.03870
   8   Br  1  px     Cor( 3p)     2.00000     -25.18414
   9   Br  1  px     Val( 4p)     1.15936      -0.27285
  10   Br  1  px     Ryd( 5p)     0.00237       0.58453
  11   Br  1  px     Ryd( 6p)     0.00003       1.67889
  12   Br  1  py     Cor( 2p)     2.00000     -38.03151
  13   Br  1  py     Cor( 3p)     2.00000     -25.17821
  14   Br  1  py     Val( 4p)     1.95237      -0.40065
  15   Br  1  py     Ryd( 5p)     0.00080       0.56200
  16   Br  1  py     Ryd( 6p)     0.00001       1.56005
  17   Br  1  pz     Cor( 2p)     2.00000     -38.03145
  18   Br  1  pz     Cor( 3p)     2.00000     -25.17822
  19   Br  1  pz     Val( 4p)     1.93627      -0.39980
  20   Br  1  pz     Ryd( 5p)     0.00149       0.52801
  21   Br  1  pz     Ryd( 6p)     0.00003       1.52177
  22   Br  1  dxy    Cor( 3d)     1.99999      -2.78054
  23   Br  1  dxy    Ryd( 4d)     0.00089       1.20041
  24   Br  1  dxy    Ryd( 5d)     0.00003       1.51477
  25   Br  1  dxy    Ryd( 6d)     0.00000       4.43115
  26   Br  1  dxz    Cor( 3d)     1.99999      -2.78053
  27   Br  1  dxz    Ryd( 4d)     0.00203       0.89211
  28   Br  1  dxz    Ryd( 5d)     0.00001       1.33304
  29   Br  1  dxz    Ryd( 6d)     0.00000       4.19664
  30   Br  1  dyz    Cor( 3d)     2.00000      -2.77169
  31   Br  1  dyz    Ryd( 4d)     0.00011       0.68504
  32   Br  1  dyz    Ryd( 5d)     0.00003       1.19696
  33   Br  1  dyz    Ryd( 6d)     0.00000       4.07543
  34   Br  1  dx2y2  Cor( 3d)     1.99999      -2.78065
  35   Br  1  dx2y2  Ryd( 5d)     0.00198       1.69875
  36   Br  1  dx2y2  Ryd( 4d)     0.00003       1.42477
  37   Br  1  dx2y2  Ryd( 6d)     0.00001       4.58373
  38   Br  1  dz2    Cor( 3d)     1.99999      -2.77471
  39   Br  1  dz2    Ryd( 4d)     0.00065       1.07781
  40   Br  1  dz2    Ryd( 5d)     0.00002       1.32132
  41   Br  1  dz2    Ryd( 6d)     0.00000       4.33450
  42   Br  1  f(0)   Ryd( 4f)     0.00008       1.78340
  43   Br  1  f(c1)  Ryd( 4f)     0.00008       2.08316
  44   Br  1  f(s1)  Ryd( 4f)     0.00001       1.67965
  45   Br  1  f(c2)  Ryd( 4f)     0.00011       1.89592
  46   Br  1  f(s2)  Ryd( 4f)     0.00001       1.74883
  47   Br  1  f(c3)  Ryd( 4f)     0.00013       2.19785
  48   Br  1  f(s3)  Ryd( 4f)     0.00012       2.24911

  49    C  2  s      Cor( 1s)     1.99999     -10.44026
  50    C  2  s      Val( 2s)     0.97685      -0.22938
  51    C  2  s      Ryd( 3s)     0.00105       1.95140
  52    C  2  s      Ryd( 4s)     0.00036       2.50472
  53    C  2  s      Ryd( 5s)     0.00000      17.22460
  54    C  2  px     Val( 2p)     0.96457      -0.13755
  55    C  2  px     Ryd( 3p)     0.00512       1.26879
  56    C  2  px     Ryd( 4p)     0.00089       2.52234
  57    C  2  py     Val( 2p)     1.05035      -0.08164
  58    C  2  py     Ryd( 3p)     0.00533       1.05624
  59    C  2  py     Ryd( 4p)     0.00013       2.52592
  60    C  2  pz     Val( 2p)     1.06148      -0.18358
  61    C  2  pz     Ryd( 3p)     0.00133       0.81456
  62    C  2  pz     Ryd( 4p)     0.00053       1.28879
  63    C  2  dxy    Ryd( 3d)     0.00175       2.38691
  64    C  2  dxy    Ryd( 4d)     0.00031       4.03302
  65    C  2  dxz    Ryd( 3d)     0.00176       1.31534
  66    C  2  dxz    Ryd( 4d)     0.00012       3.20559
  67    C  2  dyz    Ryd( 3d)     0.00030       1.55157
  68    C  2  dyz    Ryd( 4d)     0.00016       3.30891
  69    C  2  dx2y2  Ryd( 3d)     0.00201       2.42182
  70    C  2  dx2y2  Ryd( 4d)     0.00042       4.10903
  71    C  2  dz2    Ryd( 3d)     0.00228       2.20451
  72    C  2  dz2    Ryd( 4d)     0.00010       3.59923
  73    C  2  f(0)   Ryd( 4f)     0.00068       3.17992
  74    C  2  f(c1)  Ryd( 4f)     0.00067       3.18456
  75    C  2  f(s1)  Ryd( 4f)     0.00053       3.41552
  76    C  2  f(c2)  Ryd( 4f)     0.00004       3.22733
  77    C  2  f(s2)  Ryd( 4f)     0.00001       3.29328
  78    C  2  f(c3)  Ryd( 4f)     0.00068       3.82935
  79    C  2  f(s3)  Ryd( 4f)     0.00031       3.82284

  80    C  3  s      Cor( 1s)     1.99999     -10.39355
  81    C  3  s      Val( 2s)     0.97810      -0.18165
  82    C  3  s      Ryd( 3s)     0.00099       1.45294
  83    C  3  s      Ryd( 4s)     0.00007       1.70768
  84    C  3  s      Ryd( 5s)     0.00000      21.21942
  85    C  3  px     Val( 2p)     1.10819      -0.09300
  86    C  3  px     Ryd( 3p)     0.00517       1.06981
  87    C  3  px     Ryd( 4p)     0.00032       2.25646
  88    C  3  py     Val( 2p)     1.12848      -0.10665
  89    C  3  py     Ryd( 3p)     0.00215       1.02989
  90    C  3  py     Ryd( 4p)     0.00018       1.97362
  91    C  3  pz     Val( 2p)     1.04464      -0.16239
  92    C  3  pz     Ryd( 3p)     0.00263       0.65042
  93    C  3  pz     Ryd( 4p)     0.00028       1.33156
  94    C  3  dxy    Ryd( 3d)     0.00084       2.48456
  95    C  3  dxy    Ryd( 4d)     0.00035       4.31262
  96    C  3  dxz    Ryd( 3d)     0.00053       1.67499
  97    C  3  dxz    Ryd( 4d)     0.00011       3.08125
  98    C  3  dyz    Ryd( 3d)     0.00033       1.62424
  99    C  3  dyz    Ryd( 4d)     0.00006       3.05621
 100    C  3  dx2y2  Ryd( 3d)     0.00241       2.82964
 101    C  3  dx2y2  Ryd( 4d)     0.00009       3.94730
 102    C  3  dz2    Ryd( 3d)     0.00146       2.10100
 103    C  3  dz2    Ryd( 4d)     0.00002       3.60572
 104    C  3  f(0)   Ryd( 4f)     0.00057       3.19907
 105    C  3  f(c1)  Ryd( 4f)     0.00051       3.47153
 106    C  3  f(s1)  Ryd( 4f)     0.00058       3.32825
 107    C  3  f(c2)  Ryd( 4f)     0.00001       3.29689
 108    C  3  f(s2)  Ryd( 4f)     0.00004       3.22920
 109    C  3  f(c3)  Ryd( 4f)     0.00050       3.95226
 110    C  3  f(s3)  Ryd( 4f)     0.00027       3.84017

 111    C  4  s      Cor( 1s)     1.99999     -10.43568
 112    C  4  s      Val( 2s)     0.93330      -0.17453
 113    C  4  s      Ryd( 4s)     0.00143       1.58804
 114    C  4  s      Ryd( 3s)     0.00007       1.04777
 115    C  4  s      Ryd( 5s)     0.00000      20.65862
 116    C  4  px     Val( 2p)     1.00172      -0.06976
 117    C  4  px     Ryd( 3p)     0.00405       1.23543
 118    C  4  px     Ryd( 4p)     0.00014       1.77818
 119    C  4  py     Val( 2p)     1.02430      -0.08514
 120    C  4  py     Ryd( 3p)     0.00381       1.30506
 121    C  4  py     Ryd( 4p)     0.00016       1.42152
 122    C  4  pz     Val( 2p)     0.98525      -0.17019
 123    C  4  pz     Ryd( 3p)     0.00169       0.80074
 124    C  4  pz     Ryd( 4p)     0.00024       1.09134
 125    C  4  dxy    Ryd( 4d)     0.00082       3.89965
 126    C  4  dxy    Ryd( 3d)     0.00045       3.60773
 127    C  4  dxz    Ryd( 3d)     0.00069       2.41213
 128    C  4  dxz    Ryd( 4d)     0.00003       2.44084
 129    C  4  dyz    Ryd( 3d)     0.00045       2.30812
 130    C  4  dyz    Ryd( 4d)     0.00008       2.45993
 131    C  4  dx2y2  Ryd( 3d)     0.00080       3.45637
[...]
   84. RY (17)Br  1             0.00000     4.27253
   85. RY (18)Br  1             0.00000     3.26939
   86. RY (19)Br  1             0.00000     1.48640
   87. RY (20)Br  1             0.00000     2.45389
   88. RY (21)Br  1             0.00000     1.59061
   89. RY (22)Br  1             0.00000     4.05568
   90. RY (23)Br  1             0.00000     3.36452
   91. RY (24)Br  1             0.00000     4.10942
   92. RY (25)Br  1             0.00000     3.08185
   93. RY (26)Br  1             0.00000     1.63528
   94. RY (27)Br  1             0.00000     2.15772
   95. RY (28)Br  1             0.00000     1.48442
   96. RY (29)Br  1             0.00000     2.09171
   97. RY (30)Br  1             0.00000     2.49422
   98. RY ( 1) C  2             0.00581     1.12538
   99. RY ( 2) C  2             0.00478     1.24853
  100. RY ( 3) C  2             0.00285     1.00925
  101. RY ( 4) C  2             0.00075     1.56959
  102. RY ( 5) C  2             0.00068     1.33527
  103. RY ( 6) C  2             0.00059     1.50284
  104. RY ( 7) C  2             0.00031     3.44194
  105. RY ( 8) C  2             0.00023     3.24115
  106. RY ( 9) C  2             0.00013     2.16622
  107. RY (10) C  2             0.00010     2.44129
  108. RY (11) C  2             0.00002     2.56687
  109. RY (12) C  2             0.00001     2.91210
  110. RY (13) C  2             0.00001     3.20982
  111. RY (14) C  2             0.00001     3.97260
  112. RY (15) C  2             0.00000     3.14787
  113. RY (16) C  2             0.00000     3.88695
  114. RY (17) C  2             0.00000     1.90919
  115. RY (18) C  2             0.00000     2.91435
  116. RY (19) C  2             0.00000     7.76333
  117. RY (20) C  2             0.00000     6.66205
  118. RY (21) C  2             0.00000     3.01382
  119. RY (22) C  2             0.00000     3.03996
  120. RY (23) C  2             0.00000     9.95707
  121. RY (24) C  2             0.00000     3.03587
  122. RY (25) C  2             0.00000     2.62977
  123. RY (26) C  2             0.00000     3.53461
  124. RY ( 1) C  3             0.00442     1.36755
  125. RY ( 2) C  3             0.00252     0.63299
  126. RY ( 3) C  3             0.00121     1.39177
  127. RY ( 4) C  3             0.00087     1.68651
  128. RY ( 5) C  3             0.00031     2.16534
  129. RY ( 6) C  3             0.00021     1.79374
  130. RY ( 7) C  3             0.00016     3.13087
  131. RY ( 8) C  3             0.00012     2.83415
  132. RY ( 9) C  3             0.00011     2.38886
  133. RY (10) C  3             0.00004     3.24253
  134. RY (11) C  3             0.00001     3.34043
  135. RY (12) C  3             0.00001     3.22245
  136. RY (13) C  3             0.00001     2.03023
  137. RY (14) C  3             0.00001     2.96075
  138. RY (15) C  3             0.00000     3.50094
  139. RY (16) C  3             0.00000     1.97623
  140. RY (17) C  3             0.00000     4.32260
  141. RY (18) C  3             0.00000    12.31233
  142. RY (19) C  3             0.00000     3.33486
  143. RY (20) C  3             0.00000     1.45395
  144. RY (21) C  3             0.00000     2.95936
  145. RY (22) C  3             0.00000     3.51076
  146. RY (23) C  3             0.00000    10.30685
  147. RY (24) C  3             0.00000     2.86603
  148. RY (25) C  3             0.00000     3.24140
  149. RY (26) C  3             0.00000     3.74368
  150. RY ( 1) C  4             0.00383     1.68591
  151. RY ( 2) C  4             0.00222     1.35873
  152. RY ( 3) C  4             0.00181     1.09723
  153. RY ( 4) C  4             0.00075     1.40534
  154. RY ( 5) C  4             0.00042     1.93767
  155. RY ( 6) C  4             0.00028     3.83642
  156. RY ( 7) C  4             0.00011     2.52932
  157. RY ( 8) C  4             0.00011     1.56552
  158. RY ( 9) C  4             0.00006     3.26512
  159. RY (10) C  4             0.00004     2.46826
  160. RY (11) C  4             0.00002     2.82722
  161. RY (12) C  4             0.00002     2.29941
  162. RY (13) C  4             0.00001     2.73387
  163. RY (14) C  4             0.00001     3.39686
  164. RY (15) C  4             0.00000     3.05844
  165. RY (16) C  4             0.00000     2.25174
  166. RY (17) C  4             0.00000     3.17406
  167. RY (18) C  4             0.00000     3.09983
  168. RY (19) C  4             0.00000    16.53463
  169. RY (20) C  4             0.00000     5.55168
  170. RY (21) C  4             0.00000     3.88133
  171. RY (22) C  4             0.00000     3.31051
  172. RY (23) C  4             0.00000     2.98673
  173. RY (24) C  4             0.00000     4.33033
  174. RY (25) C  4             0.00000     3.48023
  175. RY (26) C  4             0.00000     2.50385
  176. RY ( 1) N  5             0.00529     1.47164
  177. RY ( 2) N  5             0.00381     1.52159
  178. RY ( 3) N  5             0.00234     0.73660
  179. RY ( 4) N  5             0.00174     2.09556
  180. RY ( 5) N  5             0.00077     1.97414
  181. RY ( 6) N  5             0.00037     2.63232
  182. RY ( 7) N  5             0.00027     2.50306
  183. RY ( 8) N  5             0.00012     3.83376
  184. RY ( 9) N  5             0.00006     3.67047
  185. RY (10) N  5             0.00006     4.40315
  186. RY (11) N  5             0.00004     3.54868
  187. RY (12) N  5             0.00003     3.27937
  188. RY (13) N  5             0.00002     3.40903
  189. RY (14) N  5             0.00001     3.84484
  190. RY (15) N  5             0.00000     4.77721
  191. RY (16) N  5             0.00000     2.86403
  192. RY (17) N  5             0.00000     4.77952
  193. RY (18) N  5             0.00000     4.78755
  194. RY (19) N  5             0.00000     3.50042
  195. RY (20) N  5             0.00000    22.54845
  196. RY (21) N  5             0.00000     8.76025
  197. RY (22) N  5             0.00000     4.53917
  198. RY (23) N  5             0.00000     4.80947
  199. RY (24) N  5             0.00000     4.58044
  200. RY (25) N  5             0.00000     4.41134
  201. RY (26) N  5             0.00000     4.55650
  202. RY ( 1) C  6             0.00623     1.34569
  203. RY ( 2) C  6             0.00246     0.58728
  204. RY ( 3) C  6             0.00171     1.78036
  205. RY ( 4) C  6             0.00135     1.72437
  206. RY ( 5) C  6             0.00121     2.13883
  207. RY ( 6) C  6             0.00044     1.85167
  208. RY ( 7) C  6             0.00013     2.47995
  209. RY ( 8) C  6             0.00007     3.00630
  210. RY ( 9) C  6             0.00005     1.66897
  211. RY (10) C  6             0.00003     3.72174
  212. RY (11) C  6             0.00001     1.92096
  213. RY (12) C  6             0.00001     2.68782
  214. RY (13) C  6             0.00001     2.46925
  215. RY (14) C  6             0.00000     3.93928
  216. RY (15) C  6             0.00000     4.42760
  217. RY (16) C  6             0.00000     7.55657
  218. RY (17) C  6             0.00000     2.23947
  219. RY (18) C  6             0.00000     2.37790
  220. RY (19) C  6             0.00000     5.01101
  221. RY (20) C  6             0.00000     3.42499
  222. RY (21) C  6             0.00000     5.75674
  223. RY (22) C  6             0.00000     5.94890
  224. RY (23) C  6             0.00000     7.85952
  225. RY (24) C  6             0.00000     3.38188
  226. RY (25) C  6             0.00000     3.13023
  227. RY (26) C  6             0.00000     4.56329
  228. RY ( 1) N  7             0.00330     1.25555
  229. RY ( 2) N  7             0.00201     1.63815
  230. RY ( 3) N  7             0.00126     1.03252
  231. RY ( 4) N  7             0.00044     2.59011
  232. RY ( 5) N  7             0.00032     3.23503
  233. RY ( 6) N  7             0.00023     2.08174
  234. RY ( 7) N  7             0.00005     3.28031
  235. RY ( 8) N  7             0.00003     3.78716
  236. RY ( 9) N  7             0.00001     3.80073
  237. RY (10) N  7             0.00000     3.30324
  238. RY (11) N  7             0.00000     3.37065
  239. RY (12) N  7             0.00000     3.70103
  240. RY (13) N  7             0.00000     3.39079
  241. RY (14) N  7             0.00000     2.19646
  242. RY (15) N  7             0.00000    19.94325
  243. RY (16) N  7             0.00000     8.46350
  244. RY (17) N  7             0.00000     3.37502
  245. RY (18) N  7             0.00000     4.65856
  246. RY (19) N  7             0.00000     4.12129
  247. RY (20) N  7             0.00000     5.02028
  248. RY (21) N  7             0.00000     4.56435
  249. RY (22) N  7             0.00000     5.31414
  250. RY (23) N  7             0.00000     8.49790
  251. RY (24) N  7             0.00000     2.91587
  252. RY (25) N  7             0.00000     4.71641
  253. RY (26) N  7             0.00000     3.73363
  254. RY ( 1) N  8             0.00346     1.37052
  255. RY ( 2) N  8             0.00172     1.56249
  256. RY ( 3) N  8             0.00160     0.71008
  257. RY ( 4) N  8             0.00042     2.77386
  258. RY ( 5) N  8             0.00034     2.47628
  259. RY ( 6) N  8             0.00028     3.33059
  260. RY ( 7) N  8             0.00007     2.55528
  261. RY ( 8) N  8             0.00005     2.45823
  262. RY ( 9) N  8             0.00003     3.99104
  263. RY (10) N  8             0.00002     3.15370
  264. RY (11) N  8             0.00001     2.05261
  265. RY (12) N  8             0.00000     4.37370
  266. RY (13) N  8             0.00000     4.66524
  267. RY (14) N  8             0.00000     3.02370
  268. RY (15) N  8             0.00000     4.28902
  269. RY (16) N  8             0.00000    20.31028
  270. RY (17) N  8             0.00000     4.51463
  271. RY (18) N  8             0.00000     4.05301
  272. RY (19) N  8             0.00000     3.21094
  273. RY (20) N  8             0.00000    11.16184
  274. RY (21) N  8             0.00000     4.35664
  275. RY (22) N  8             0.00000     4.28583
  276. RY (23) N  8             0.00000     5.32722
  277. RY (24) N  8             0.00000     4.45757
  278. RY (25) N  8             0.00000     4.50140
  279. RY (26) N  8             0.00000     5.50361
  280. RY ( 1) C  9             0.00789     1.27008
  281. RY ( 2) C  9             0.00351     1.48541
  282. RY ( 3) C  9             0.00245     1.56798
  283. RY ( 4) C  9             0.00203     2.10217
  284. RY ( 5) C  9             0.00124     1.29022
  285. RY ( 6) C  9             0.00052     2.43567
  286. RY ( 7) C  9             0.00041     1.95148
  287. RY ( 8) C  9             0.00033     3.07902
  288. RY ( 9) C  9             0.00028     3.45169
  289. RY (10) C  9             0.00011     1.46417
  290. RY (11) C  9             0.00009     3.30984
  291. RY (12) C  9             0.00006     2.78613
  292. RY (13) C  9             0.00005     3.62313
  293. RY (14) C  9             0.00002     2.82671
  294. RY (15) C  9             0.00001     3.21132
  295. RY (16) C  9             0.00001     4.13859
  296. RY (17) C  9             0.00000     2.05632
  297. RY (18) C  9             0.00000     3.86567
  298. RY (19) C  9             0.00000     1.82257
  299. RY (20) C  9             0.00000     8.80693
  300. RY (21) C  9             0.00000    15.53313
  301. RY (22) C  9             0.00000     3.36457
  302. RY (23) C  9             0.00000     4.13207
  303. RY (24) C  9             0.00000     3.84904
  304. RY (25) C  9             0.00000     2.93697
  305. RY (26) C  9             0.00000     3.29476
  306. RY ( 1) C 10             0.00442     1.24434
  307. RY ( 2) C 10             0.00176     1.17650
  308. RY ( 3) C 10             0.00137     0.62534
  309. RY ( 4) C 10             0.00086     1.64196
  310. RY ( 5) C 10             0.00037     2.05068
  311. RY ( 6) C 10             0.00032     2.25924
  312. RY ( 7) C 10             0.00023     1.86407
  313. RY ( 8) C 10             0.00020     2.82315
  314. RY ( 9) C 10             0.00014     2.28102
  315. RY (10) C 10             0.00008     2.90998
  316. RY (11) C 10             0.00004     2.30432
  317. RY (12) C 10             0.00003     2.14487
  318. RY (13) C 10             0.00001     3.21691
  319. RY (14) C 10             0.00001     2.69878
  320. RY (15) C 10             0.00001     3.66434
  321. RY (16) C 10             0.00001     3.18231
  322. RY (17) C 10             0.00000     3.66419
  323. RY (18) C 10             0.00000     4.61225
  324. RY (19) C 10             0.00000     3.26633
  325. RY (20) C 10             0.00000     1.63900
  326. RY (21) C 10             0.00000     3.60234
  327. RY (22) C 10             0.00000     3.33700
  328. RY (23) C 10             0.00000     8.69857
  329. RY (24) C 10             0.00000     2.91855
  330. RY (25) C 10             0.00000     9.76345
  331. RY (26) C 10             0.00000     8.10668
  332. RY ( 1) H 11             0.00050     0.81325
  333. RY ( 2) H 11             0.00019     2.71571
  334. RY ( 3) H 11             0.00014     2.59082
  335. RY ( 4) H 11             0.00013     3.34316
  336. RY ( 5) H 11             0.00005     2.48759
  337. RY ( 6) H 11             0.00001     2.51810
  338. RY ( 7) H 11             0.00001     3.05608
  339. RY ( 8) H 11             0.00000     4.37969
  340. RY ( 9) H 11             0.00000     3.60219
  341. RY (10) H 11             0.00000     3.58765
  342. RY (11) H 11             0.00000     4.29879
  343. RY (12) H 11             0.00000     4.31610
  344. RY (13) H 11             0.00000     3.92048
  345. RY ( 1) H 12             0.00048     0.62747
  346. RY ( 2) H 12             0.00016     2.91969
  347. RY ( 3) H 12             0.00016     2.07876
  348. RY ( 4) H 12             0.00006     3.84763
  349. RY ( 5) H 12             0.00005     1.99059
  350. RY ( 6) H 12             0.00001     3.25577
  351. RY ( 7) H 12             0.00001     2.79055
  352. RY ( 8) H 12             0.00000     4.20988
  353. RY ( 9) H 12             0.00000     3.32664
  354. RY (10) H 12             0.00000     3.94281
  355. RY (11) H 12             0.00000     4.22556
  356. RY (12) H 12             0.00000     4.38891
  357. RY (13) H 12             0.00000     3.95383
  358. RY ( 1) H 13             0.00029     1.53444
  359. RY ( 2) H 13             0.00022     1.71504
  360. RY ( 3) H 13             0.00017     1.80310
  361. RY ( 4) H 13             0.00005     2.58340
  362. RY ( 5) H 13             0.00002     3.51511
  363. RY ( 6) H 13             0.00002     4.07198
  364. RY ( 7) H 13             0.00001     3.73772
  365. RY ( 8) H 13             0.00000     3.54351
  366. RY ( 9) H 13             0.00000     3.33541
  367. RY (10) H 13             0.00000     4.09923
  368. RY (11) H 13             0.00000     4.10680
  369. RY (12) H 13             0.00000     3.79020
  370. RY (13) H 13             0.00000     3.79825
  371. RY ( 1) H 14             0.00078     0.70747
  372. RY ( 2) H 14             0.00022     2.97676
  373. RY ( 3) H 14             0.00017     3.11642
  374. RY ( 4) H 14             0.00012     3.05722
  375. RY ( 5) H 14             0.00005     2.71142
  376. RY ( 6) H 14             0.00002     2.43618
  377. RY ( 7) H 14             0.00001     2.32637
  378. RY ( 8) H 14             0.00000     4.18936
  379. RY ( 9) H 14             0.00000     4.38115
  380. RY (10) H 14             0.00000     3.99846
  381. RY (11) H 14             0.00000     3.46684
  382. RY (12) H 14             0.00000     4.23324
  383. RY (13) H 14             0.00000     4.31729
          -------------------------------
                 Total Lewis   94.38665  ( 98.3194%)
           Valence non-Lewis    1.49554  (  1.5579%)
           Rydberg non-Lewis    0.11781  (  0.1227%)
          -------------------------------
               Total unit  1   96.00000  (100.0000%)
              Charge unit  1    0.00000

 $CHOOSE
   LONE 1 3 5 1 7 1 8 1 END
   BOND S 1 2 S 2 3 D 2 10 D 3 4 S 3 11 S 4 5 S 4 12 S 5 6 S 5 9 D 6 7 S 6 13
        S 7 8 D 8 9 S 9 10 S 10 14 END
 $END

 NBO analysis completed in 5.13 CPU seconds (5 wall seconds)
 Maximum scratch memory used by NBO was 1840157 words (14.04 MB)
Stopping NBO...-------
TIMINGS
-------

Total SCF time: 0 days 0 hours 0 min 38 sec 

Total time                  ....      38.910 sec
Sum of individual times     ....      37.997 sec  ( 97.7%)

Fock matrix formation       ....      30.520 sec  ( 78.4%)
  Split-RI-J                ....       1.758 sec  (  5.8% of F)
  Chain of spheres X        ....      24.358 sec  ( 79.8% of F)
  XC integration            ....       4.405 sec  ( 14.4% of F)
    Basis function eval.    ....       0.475 sec  ( 10.8% of XC)
    Density eval.           ....       1.269 sec  ( 28.8% of XC)
    XC-Functional eval.     ....       0.184 sec  (  4.2% of XC)
    XC-Potential eval.      ....       1.954 sec  ( 44.3% of XC)
Diagonalization             ....       0.256 sec  (  0.7%)
Density matrix formation    ....       0.020 sec  (  0.1%)
Population analysis         ....       5.217 sec  ( 13.4%)
Initial guess               ....       0.243 sec  (  0.6%)
Orbital Transformation      ....       0.000 sec  (  0.0%)
Orbital Orthonormalization  ....       0.000 sec  (  0.0%)
DIIS solution               ....       0.142 sec  (  0.4%)
SOSCF solution              ....       0.178 sec  (  0.5%)
Grid generation             ....       1.422 sec  (  3.7%)

Maximum memory used throughout the entire SCF-calculation: 84.6 MB

-------------------------   --------------------
FINAL SINGLE POINT ENERGY     -2969.304380290700
-------------------------   --------------------


                            ***************************************
                            *     ORCA property calculations      *
                            ***************************************

                                    ---------------------
                                    Active property flags
                                    ---------------------
   (+) Dipole Moment


------------------------------------------------------------------------------
                       ORCA ELECTRIC PROPERTIES CALCULATION
------------------------------------------------------------------------------

Dipole Moment Calculation                       ... on
Quadrupole Moment Calculation                   ... off
Polarizability Calculation                      ... off
GBWName                                         ... arbr_24_r2scan3c_wB97MV_nbo.gbw
Electron density                                ... arbr_24_r2scan3c_wB97MV_nbo.scfp
The origin for moment calculation is the CENTER OF MASS  = ( 0.285157, -0.058238  0.000001)

-------------
DIPOLE MOMENT
-------------
                                X             Y             Z
Electronic contribution:     28.16228      -3.73589       0.00001
Nuclear contribution   :    -27.37487       5.59077      -0.00006
                        -----------------------------------------
Total Dipole Moment    :      0.78741       1.85488      -0.00005
                        -----------------------------------------
Magnitude (a.u.)       :      2.01509
Magnitude (Debye)      :      5.12196



--------------------
Rotational spectrum 
--------------------
 
Rotational constants in cm-1:     0.116740     0.015828     0.013938 
Rotational constants in MHz :  3499.776644   474.508313   417.854565 

 Dipole components along the rotational axes: 
x,y,z [a.u.] :    -0.795474     1.851437    -0.000044 
x,y,z [Debye]:    -2.021934     4.705979    -0.000113 

 

Timings for individual modules:

Sum of individual times         ...       40.281 sec (=   0.671 min)
GTO integral calculation        ...        0.985 sec (=   0.016 min)   2.4 %
SCF iterations                  ...       39.297 sec (=   0.655 min)  97.6 %
                             ****ORCA TERMINATED NORMALLY****
TOTAL RUN TIME: 0 days 0 hours 0 minutes 40 seconds 826 msec
