Job Start Time: Mon Jan 29 12:49:31 MST 2024
SLURM Job ID: 229673
SLURM Job Name: Ac2_rdkit_conf_3_SP_NMR
 Entering Gaussian System, Link 0=/opt/apps/Gaussian/G16C/g16/g16
 Initial command:
 /opt/apps/Gaussian/G16C/g16/l1.exe "/tmp/Gau-3063328.inp" -scrdir="/tmp/"
 Entering Link 1 = /opt/apps/Gaussian/G16C/g16/l1.exe PID=   3063337.
  
 Copyright (c) 1988-2019, Gaussian, Inc.  All Rights Reserved.
  
 This is part of the Gaussian(R) 16 program.  It is based on
 the Gaussian(R) 09 system (copyright 2009, Gaussian, Inc.),
 the Gaussian(R) 03 system (copyright 2003, Gaussian, Inc.),
 the Gaussian(R) 98 system (copyright 1998, Gaussian, Inc.),
 the Gaussian(R) 94 system (copyright 1995, Gaussian, Inc.),
 the Gaussian 92(TM) system (copyright 1992, Gaussian, Inc.),
 the Gaussian 90(TM) system (copyright 1990, Gaussian, Inc.),
 the Gaussian 88(TM) system (copyright 1988, Gaussian, Inc.),
 the Gaussian 86(TM) system (copyright 1986, Carnegie Mellon
 University), and the Gaussian 82(TM) system (copyright 1983,
 Carnegie Mellon University). Gaussian is a federally registered
 trademark of Gaussian, Inc.
  
 This software contains proprietary and confidential information,
 including trade secrets, belonging to Gaussian, Inc.
  
 This software is provided under written license and may be
 used, copied, transmitted, or stored only in accord with that
 written license.
  
 The following legend is applicable only to US Government
 contracts under FAR:
  
                    RESTRICTED RIGHTS LEGEND
  
 Use, reproduction and disclosure by the US Government is
 subject to restrictions as set forth in subparagraphs (a)
 and (c) of the Commercial Computer Software - Restricted
 Rights clause in FAR 52.227-19.
  
 Gaussian, Inc.
 340 Quinnipiac St., Bldg. 40, Wallingford CT 06492
  
  
 ---------------------------------------------------------------
 Warning -- This program may not be used in any manner that
 competes with the business of Gaussian, Inc. or will provide
 assistance to any competitor of Gaussian, Inc.  The licensee
 of this program is prohibited from giving any competitor of
 Gaussian, Inc. access to this program.  By using this program,
 the user acknowledges that Gaussian, Inc. is engaged in the
 business of creating and licensing software in the field of
 computational chemistry and represents and warrants to the
 licensee that it is not a competitor of Gaussian, Inc. and that
 it will not use this program in any manner prohibited above.
 ---------------------------------------------------------------
  

 Cite this work as:
 Gaussian 16, Revision C.01,
 M. J. Frisch, G. W. Trucks, H. B. Schlegel, G. E. Scuseria, 
 M. A. Robb, J. R. Cheeseman, G. Scalmani, V. Barone, 
 G. A. Petersson, H. Nakatsuji, X. Li, M. Caricato, A. V. Marenich, 
 J. Bloino, B. G. Janesko, R. Gomperts, B. Mennucci, H. P. Hratchian, 
 J. V. Ortiz, A. F. Izmaylov, J. L. Sonnenberg, D. Williams-Young, 
 F. Ding, F. Lipparini, F. Egidi, J. Goings, B. Peng, A. Petrone, 
 T. Henderson, D. Ranasinghe, V. G. Zakrzewski, J. Gao, N. Rega, 
 G. Zheng, W. Liang, M. Hada, M. Ehara, K. Toyota, R. Fukuda, 
 J. Hasegawa, M. Ishida, T. Nakajima, Y. Honda, O. Kitao, H. Nakai, 
 T. Vreven, K. Throssell, J. A. Montgomery, Jr., J. E. Peralta, 
 F. Ogliaro, M. J. Bearpark, J. J. Heyd, E. N. Brothers, K. N. Kudin, 
 V. N. Staroverov, T. A. Keith, R. Kobayashi, J. Normand, 
 K. Raghavachari, A. P. Rendell, J. C. Burant, S. S. Iyengar, 
 J. Tomasi, M. Cossi, J. M. Millam, M. Klene, C. Adamo, R. Cammi, 
 J. W. Ochterski, R. L. Martin, K. Morokuma, O. Farkas, 
 J. B. Foresman, and D. J. Fox, Gaussian, Inc., Wallingford CT, 2019.
 
 ******************************************
 Gaussian 16:  AS64L-G16RevC.01  3-Jul-2019
                29-Jan-2024 
 ******************************************
 %nprocshared=8
 Will use up to    8 processors via shared memory.
 %mem=16GB
 -------------------------
 # nmr=giao m062x/def2tzvp
 -------------------------
 1/38=1,172=1/1;
 2/12=2,17=6,18=5,40=1/2;
 3/5=44,7=101,11=2,25=1,30=1,74=-55/1,2,3,8;
 4//1;
 5/5=2,38=5/2;
 8/6=1,10=90,11=11/1;
 10/13=100,45=16/2;
 6/7=2,8=2,9=2,10=2,28=1/1;
 99/9=1/99;
 -----------------------
 Ac2_rdkit_conf_3_SP_NMR
 -----------------------
 Symbolic Z-matrix:
 Charge =  0 Multiplicity = 1
 C                    -3.32579   0.42664  -1.15487 
 C                    -2.36348   0.18188  -0.00299 
 C                    -2.90279  -0.89905   0.92336 
 C                    -2.07201   1.48141   0.7349 
 O                    -1.16277  -0.28981  -0.68021 
 C                    -0.06294  -0.58546   0.01857 
 O                     0.05766  -0.5506    1.21871 
 N                     0.93821  -0.98466  -0.83046 
 C                     2.27083  -1.02854  -0.30572 
 C                     2.86216   0.35332  -0.10027 
 O                     2.34992   1.38077  -0.43495 
 O                     4.0628    0.28047   0.49495 
 H                    -3.49378  -0.49572  -1.71132 
 H                    -2.9205    1.17627  -1.83479 
 H                    -4.28114   0.78275  -0.76938 
 H                    -3.03922  -1.83064   0.37211 
 H                    -2.22978  -1.07298   1.75915 
 H                    -3.87328  -0.58477   1.31022 
 H                    -1.6043    2.19801   0.0582 
 H                    -3.01141   1.90638   1.09149 
 H                    -1.41466   1.31508   1.58449 
 H                     0.81845  -0.70633  -1.79139 
 H                     2.92539  -1.5863   -0.97624 
 H                     2.26794  -1.54182   0.6549 
 H                     4.39204   1.18483   0.59991 
 
                          Input orientation:                          
 ---------------------------------------------------------------------
 Center     Atomic      Atomic             Coordinates (Angstroms)
 Number     Number       Type             X           Y           Z
 ---------------------------------------------------------------------
      1          6           0       -3.325794    0.426639   -1.154869
      2          6           0       -2.363483    0.181884   -0.002987
      3          6           0       -2.902789   -0.899045    0.923361
      4          6           0       -2.072009    1.481407    0.734896
      5          8           0       -1.162769   -0.289814   -0.680205
      6          6           0       -0.062942   -0.585461    0.018567
      7          8           0        0.057659   -0.550600    1.218707
      8          7           0        0.938212   -0.984658   -0.830464
      9          6           0        2.270833   -1.028544   -0.305715
     10          6           0        2.862164    0.353320   -0.100272
     11          8           0        2.349923    1.380774   -0.434947
     12          8           0        4.062798    0.280470    0.494949
     13          1           0       -3.493776   -0.495720   -1.711324
     14          1           0       -2.920499    1.176266   -1.834787
     15          1           0       -4.281143    0.782752   -0.769384
     16          1           0       -3.039221   -1.830635    0.372107
     17          1           0       -2.229781   -1.072977    1.759152
     18          1           0       -3.873282   -0.584770    1.310216
     19          1           0       -1.604300    2.198013    0.058197
     20          1           0       -3.011408    1.906383    1.091490
     21          1           0       -1.414661    1.315077    1.584493
     22          1           0        0.818448   -0.706333   -1.791391
     23          1           0        2.925385   -1.586302   -0.976243
     24          1           0        2.267938   -1.541817    0.654899
     25          1           0        4.392044    1.184829    0.599911
 ---------------------------------------------------------------------
                    Distance matrix (angstroms):
                    1          2          3          4          5
     1  C    0.000000
     2  C    1.520783   0.000000
     3  C    2.501082   1.522294   0.000000
     4  C    2.501145   1.522560   2.528293   0.000000
     5  O    2.327507   1.456996   2.443411   2.442632   0.000000
     6  C    3.612133   2.425236   2.996951   2.970088   1.336155
     7  O    4.246953   2.809092   2.995479   2.983054   2.272294
     8  N    4.503193   3.598156   4.223330   4.194432   2.217996
     9  C    5.844729   4.799340   5.319188   5.122792   3.532080
    10  C    6.277609   5.229363   5.987564   5.129927   4.117041
    11  O    5.800209   4.882635   5.885028   4.575166   3.897438
    12  O    7.571959   6.446297   7.077725   6.255852   5.386350
    13  H    1.090232   2.157574   2.730110   3.451731   2.557185
    14  H    1.090180   2.157441   3.451755   2.723292   2.563604
    15  H    1.090003   2.150773   2.755664   2.762472   3.298880
    16  H    2.740267   2.155818   1.091034   3.469400   2.646235
    17  H    3.455664   2.167415   1.087078   2.756605   2.775306
    18  H    2.720172   2.142838   1.091001   2.800833   3.375745
    19  H    2.751879   2.155198   3.467903   1.090962   2.632389
    20  H    2.708248   2.142798   2.812560   1.090979   3.373374
    21  H    3.456278   2.168982   2.748446   1.087008   2.787110
    22  H    4.343216   3.756595   4.610273   4.418492   2.309425
    23  H    6.569709   5.660904   6.168341   6.108419   4.299014
    24  H    6.199993   4.985381   5.217437   5.289747   3.888414
    25  H    7.951046   6.856131   7.593533   6.472261   5.888057
                    6          7          8          9         10
     6  C    0.000000
     7  O    1.206688   0.000000
     8  N    1.372050   2.272198   0.000000
     9  C    2.397496   2.729548   1.432887   0.000000
    10  C    3.074358   3.228316   2.454579   1.517046   0.000000
    11  O    3.145421   3.423339   2.782918   2.414077   1.195851
    12  O    4.242465   4.153991   3.622196   2.359178   1.342057
    13  H    3.843332   4.604431   4.545051   5.957378   6.611681
    14  H    3.834610   4.601665   4.535186   5.843730   6.093027
    15  H    4.504009   4.955354   5.510820   6.813529   7.187417
    16  H    3.245564   3.456282   4.240498   5.412898   6.310241
    17  H    2.821790   2.407767   4.092687   4.951886   5.605326
    18  H    4.023313   3.932154   5.281373   6.368541   6.945194
    19  H    3.181993   3.415225   4.169350   5.055666   4.835008
    20  H    4.006732   3.933462   5.258472   6.202262   6.191216
    21  H    2.809148   2.404636   4.081276   4.759024   4.696237
    22  H    2.016781   3.108656   1.007566   2.102493   2.856488
    23  H    3.304758   3.756905   2.081366   1.090477   2.129191
    24  H    2.598564   2.487112   2.070000   1.089145   2.124837
    25  H    4.828953   4.709726   4.322222   3.196672   1.876752
                   11         12         13         14         15
    11  O    0.000000
    12  O    2.238150   0.000000
    13  H    6.268906   7.910242   0.000000
    14  H    5.456989   7.415966   1.771843   0.000000
    15  H    6.666372   8.454122   1.772481   1.772368   0.000000
    16  H    6.325137   7.410164   2.515811   3.731746   3.110492
    17  H    5.639916   6.559465   3.738330   4.295647   3.747707
    18  H    6.755534   8.024629   3.046581   3.728282   2.522143
    19  H    4.067794   5.998643   3.735977   2.521852   3.139003
    20  H    5.599120   7.283121   3.722707   3.017355   2.517464
    21  H    4.272534   5.679795   4.296989   3.738755   3.747109
    22  H    2.922563   4.089858   4.318107   4.186381   5.409963
    23  H    3.070456   2.634948   6.552506   6.522518   7.588758
    24  H    3.120260   2.562779   6.315907   6.364463   7.093847
    25  H    2.297734   0.968135   8.387622   7.707212   8.789813
                   16         17         18         19         20
    16  H    0.000000
    17  H    1.775706   0.000000
    18  H    1.768583   1.772282   0.000000
    19  H    4.288070   3.739499   3.802593   0.000000
    20  H    3.805731   3.151714   2.645092   1.769942   0.000000
    21  H    3.742269   2.529373   3.119209   1.773448   1.772652
    22  H    4.563594   4.693877   5.625573   4.210215   5.459403
    23  H    6.119989   5.858466   7.242433   5.992425   7.191653
    24  H    5.322530   4.654961   6.249797   5.416328   6.320774
    25  H    8.023006   7.091551   8.482431   6.105419   7.454756
                   21         22         23         24         25
    21  H    0.000000
    22  H    4.524320   0.000000
    23  H    5.814754   2.424458   0.000000
    24  H    4.752633   2.963678   1.759216   0.000000
    25  H    5.891026   4.697383   3.509205   3.456797   0.000000
 Stoichiometry    C7H13NO4
 Framework group  C1[X(C7H13NO4)]
 Deg. of freedom    69
 Full point group                 C1      NOp   1
 Largest Abelian subgroup         C1      NOp   1
 Largest concise Abelian subgroup C1      NOp   1
                         Standard orientation:                         
 ---------------------------------------------------------------------
 Center     Atomic      Atomic             Coordinates (Angstroms)
 Number     Number       Type             X           Y           Z
 ---------------------------------------------------------------------
      1          6           0       -3.325794    0.426639   -1.154869
      2          6           0       -2.363483    0.181884   -0.002987
      3          6           0       -2.902789   -0.899045    0.923361
      4          6           0       -2.072009    1.481407    0.734896
      5          8           0       -1.162769   -0.289814   -0.680205
      6          6           0       -0.062942   -0.585461    0.018567
      7          8           0        0.057659   -0.550600    1.218707
      8          7           0        0.938212   -0.984658   -0.830464
      9          6           0        2.270833   -1.028544   -0.305715
     10          6           0        2.862164    0.353320   -0.100272
     11          8           0        2.349923    1.380774   -0.434947
     12          8           0        4.062798    0.280470    0.494949
     13          1           0       -3.493776   -0.495720   -1.711324
     14          1           0       -2.920499    1.176266   -1.834787
     15          1           0       -4.281143    0.782752   -0.769384
     16          1           0       -3.039221   -1.830635    0.372107
     17          1           0       -2.229781   -1.072977    1.759152
     18          1           0       -3.873282   -0.584770    1.310216
     19          1           0       -1.604300    2.198013    0.058197
     20          1           0       -3.011408    1.906383    1.091490
     21          1           0       -1.414661    1.315077    1.584493
     22          1           0        0.818448   -0.706333   -1.791391
     23          1           0        2.925385   -1.586302   -0.976243
     24          1           0        2.267938   -1.541817    0.654899
     25          1           0        4.392044    1.184829    0.599911
 ---------------------------------------------------------------------
 Rotational constants (GHZ):           2.1507477           0.4526393           0.4406444
 Standard basis: def2TZVP (5D, 7F)
 There are   510 symmetry adapted cartesian basis functions of A   symmetry.
 There are   450 symmetry adapted basis functions of A   symmetry.
   450 basis functions,   716 primitive gaussians,   510 cartesian basis functions
    47 alpha electrons       47 beta electrons
       nuclear repulsion energy       765.6820285258 Hartrees.
 NAtoms=   25 NActive=   25 NUniq=   25 SFac= 1.00D+00 NAtFMM=   60 NAOKFM=F Big=F
 Integral buffers will be    131072 words long.
 Raffenetti 2 integral format.
 Two-electron integral symmetry is turned on.
 One-electron integrals computed using PRISM.
   1 Symmetry operations used in ECPInt.
 ECPInt:  NShTT=   17020 NPrTT=   51024 LenC2=   15732 LenP2D=   35473.
 LDataN:  DoStor=T MaxTD1= 6 Len=  172
 NBasis=   450 RedAO= T EigKep=  1.97D-04  NBF=   450
 NBsUse=   450 1.00D-06 EigRej= -1.00D+00 NBFU=   450
 ExpMin= 9.52D-02 ExpMax= 2.70D+04 ExpMxC= 9.22D+02 IAcc=3 IRadAn=         5 AccDes= 0.00D+00
 Harris functional with IExCor= 1009 and IRadAn=       5 diagonalized for initial guess.
 HarFok:  IExCor= 1009 AccDes= 0.00D+00 IRadAn=         5 IDoV= 1 UseB2=F ITyADJ=14
 ICtDFT=  3500011 ScaDFX=  1.000000  1.000000  1.000000  1.000000
 FoFCou: FMM=F IPFlag=           0 FMFlag=      100000 FMFlg1=           0
         NFxFlg=           0 DoJE=T BraDBF=F KetDBF=T FulRan=T
         wScrn=  0.000000 ICntrl=       500 IOpCl=  0 I1Cent=   200000004 NGrid=           0
         NMat0=    1 NMatS0=      1 NMatT0=    0 NMatD0=    1 NMtDS0=    0 NMtDT0=    0
 Petite list used in FoFCou.
 Requested convergence on RMS density matrix=1.00D-08 within 128 cycles.
 Requested convergence on MAX density matrix=1.00D-06.
 Requested convergence on             energy=1.00D-06.
 No special actions if energy rises.
 Integral accuracy reduced to 1.0D-05 until final iterations.
 Initial convergence to 1.0D-05 achieved.  Increase integral accuracy.
 SCF Done:  E(RM062X) =  -630.270791467     A.U. after   13 cycles
            NFock= 13  Conv=0.97D-08     -V/T= 2.0045
 DoSCS=F DFT=T ScalE2(SS,OS)=  1.000000  1.000000
 Range of M.O.s used for correlation:     1   450
 NBasis=   450 NAE=    47 NBE=    47 NFC=     0 NFV=     0
 NROrb=    450 NOA=    47 NOB=    47 NVA=   403 NVB=   403

 **** Warning!!: The largest alpha MO coefficient is  0.23564090D+02

          Differentiating once with respect to magnetic field using GIAOs.
          Electric field/nuclear overlap derivatives assumed to be zero.
 FoFCou: FMM=F IPFlag=           0 FMFlag=      100000 FMFlg1=           0
         NFxFlg=           0 DoJE=F BraDBF=F KetDBF=T FulRan=T
         wScrn=  0.000000 ICntrl=      6100 IOpCl=  0 I1Cent=           7 NGrid=          25
         NMat0=    1 NMatS0=      1 NMatT0=    0 NMatD0=    1 NMtDS0=    0 NMtDT0=    0
 Symmetry not used in FoFCou.
   1 Symmetry operations used in ECPInt.
 ECPInt:  NShTT=   17020 NPrTT=   51024 LenC2=   17021 LenP2D=   51024.
 LDataN:  DoStor=T MaxTD1= 7 Len=  274
 FoFJK:  IHMeth= 1 ICntrl=    6127 DoSepK=F KAlg= 0 I1Cent=           0 FoldK=F
 IRaf=         1 NMat=       1 IRICut=       1 DoRegI=T DoRafI=F ISym2E= 0 IDoP0=0 IntGTp=1.
          There are     3 degrees of freedom in the 1st order CPHF.  IDoFFX=0 NUNeed=     3.
      3 vectors produced by pass  0 Test12= 6.31D-13 3.33D-08 XBig12= 1.49D+01 8.62D-01.
 AX will form     3 AO Fock derivatives at one time.
      3 vectors produced by pass  1 Test12= 6.31D-13 3.33D-08 XBig12= 8.91D-02 1.02D-01.
      3 vectors produced by pass  2 Test12= 6.31D-13 3.33D-08 XBig12= 1.67D-03 1.83D-02.
      3 vectors produced by pass  3 Test12= 6.31D-13 3.33D-08 XBig12= 3.09D-05 1.78D-03.
      3 vectors produced by pass  4 Test12= 6.31D-13 3.33D-08 XBig12= 4.23D-07 2.15D-04.
      3 vectors produced by pass  5 Test12= 6.31D-13 3.33D-08 XBig12= 5.06D-09 1.38D-05.
      3 vectors produced by pass  6 Test12= 6.31D-13 3.33D-08 XBig12= 3.45D-11 9.22D-07.
      3 vectors produced by pass  7 Test12= 6.31D-13 3.33D-08 XBig12= 3.53D-13 9.58D-08.
 InvSVY:  IOpt=1 It=  1 EMax= 1.33D-15
 Solved reduced A of dimension    24 with     3 vectors.
 Calculating GIAO nuclear magnetic shielding tensors.
 SCF GIAO Magnetic shielding tensor (ppm):
      1  C    Isotropic =   152.8667   Anisotropy =    50.1514
   XX=   156.4832   YX=    -6.4415   ZX=    23.1562
   XY=    -6.3528   YY=   134.8977   ZY=    -5.3104
   XZ=    22.0330   YZ=    -4.8024   ZZ=   167.2193
   Eigenvalues:   133.0513   139.2479   186.3010
      2  C    Isotropic =   103.9154   Anisotropy =    77.2600
   XX=   135.8977   YX=   -21.1105   ZX=   -26.0724
   XY=   -21.2524   YY=    89.3010   ZY=     9.5720
   XZ=   -26.5312   YZ=     9.3285   ZZ=    86.5477
   Eigenvalues:    75.1486    81.1756   155.4221
      3  C    Isotropic =   159.4183   Anisotropy =    42.7866
   XX=   147.1347   YX=    11.3606   ZX=   -11.1529
   XY=     8.0304   YY=   172.8564   ZY=   -15.3893
   XZ=   -10.6778   YZ=   -16.4136   ZZ=   158.2636
   Eigenvalues:   140.4473   149.8648   187.9427
      4  C    Isotropic =   159.4569   Anisotropy =    42.3067
   XX=   148.5146   YX=     9.8501   ZX=    -0.5721
   XY=    13.8225   YY=   177.2716   ZY=    15.1157
   XZ=    -0.1948   YZ=    16.0279   ZZ=   152.5846
   Eigenvalues:   140.0378   150.6716   187.6614
      5  O    Isotropic =   118.3872   Anisotropy =    99.8143
   XX=   160.1015   YX=     3.5088   ZX=    -2.9505
   XY=    18.7964   YY=   163.3512   ZY=   -11.2502
   XZ=   125.7328   YZ=   -53.6209   ZZ=    31.7090
   Eigenvalues:    -0.1006   170.3322   184.9301
      6  C    Isotropic =    15.5136   Anisotropy =    79.0892
   XX=   -65.8058   YX=    40.7270   ZX=     4.3073
   XY=    43.0701   YY=    55.1032   ZY=    -2.1481
   XZ=   -11.1789   YZ=     2.9703   ZZ=    57.2432
   Eigenvalues:   -78.9906    57.2915    68.2397
      7  O    Isotropic =   -15.8153   Anisotropy =   507.6930
   XX=  -128.5701   YX=   128.4747   ZX=   -40.8418
   XY=   134.9337   YY=   278.9207   ZY=   -60.1556
   XZ=   -46.1372   YZ=   -18.9076   ZZ=  -197.7964
   Eigenvalues:  -220.1565  -149.9360   322.6467
      8  N    Isotropic =   164.9369   Anisotropy =   116.6856
   XX=   190.0465   YX=    -1.6881   ZX=   -54.9201
   XY=    -7.8587   YY=   163.7782   ZY=    15.8113
   XZ=   -86.4716   YZ=    17.8272   ZZ=   140.9860
   Eigenvalues:    89.0578   163.0255   242.7273
      9  C    Isotropic =   141.7076   Anisotropy =    47.1107
   XX=   159.6986   YX=     8.3434   ZX=    15.5914
   XY=    21.9716   YY=   144.2180   ZY=     8.5567
   XZ=    11.0174   YZ=     4.0767   ZZ=   121.2060
   Eigenvalues:   116.9487   135.0593   173.1147
     10  C    Isotropic =    -2.1872   Anisotropy =   116.2215
   XX=   -66.0185   YX=   -58.9223   ZX=   -67.4997
   XY=   -37.5039   YY=    17.0514   ZY=   -15.8963
   XZ=   -68.6051   YZ=   -26.1355   ZZ=    42.4054
   Eigenvalues:  -119.1029    37.2475    75.2938
     11  O    Isotropic =  -140.8976   Anisotropy =   650.2503
   XX=  -275.8033   YX=    63.0444   ZX=  -288.4037
   XY=    14.2219   YY=  -295.9963   ZY=    49.6150
   XZ=  -278.8998   YZ=    56.4640   ZZ=   149.1068
   Eigenvalues:  -441.3198  -273.9756   292.6026
     12  O    Isotropic =   123.4272   Anisotropy =   218.6088
   XX=   247.0732   YX=    82.2279   ZX=    39.7542
   XY=   -40.6730   YY=   -51.8396   ZY=    -5.0925
   XZ=    44.8425   YZ=    51.3944   ZZ=   175.0480
   Eigenvalues:   -55.0957   156.2109   269.1664
     13  H    Isotropic =    30.6848   Anisotropy =     7.9198
   XX=    29.4002   YX=     1.9533   ZX=     3.0915
   XY=     1.0754   YY=    30.2420   ZY=     1.9679
   XZ=     2.7879   YZ=     3.6082   ZZ=    32.4123
   Eigenvalues:    27.5803    28.5095    35.9647
     14  H    Isotropic =    30.6315   Anisotropy =     7.7416
   XX=    28.4790   YX=    -0.3264   ZX=     1.5932
   XY=     0.5099   YY=    30.1396   ZY=    -3.1569
   XZ=     0.1880   YZ=    -4.2440   ZZ=    33.2760
   Eigenvalues:    27.3790    28.7230    35.7926
     15  H    Isotropic =    31.1084   Anisotropy =     8.5158
   XX=    35.8405   YX=    -2.6411   ZX=     0.5187
   XY=    -2.5618   YY=    28.7423   ZY=    -0.1124
   XZ=     1.1611   YZ=    -0.3376   ZZ=    28.7423
   Eigenvalues:    27.8880    28.6515    36.7856
     16  H    Isotropic =    30.9685   Anisotropy =     8.0285
   XX=    29.0784   YX=     2.5573   ZX=     0.4675
   XY=     2.5206   YY=    35.3655   ZY=     1.5356
   XZ=    -0.0321   YZ=    -0.2563   ZZ=    28.4617
   Eigenvalues:    28.1808    28.4039    36.3208
     17  H    Isotropic =    29.3268   Anisotropy =     6.3641
   XX=    30.3370   YX=     0.6608   ZX=     0.9016
   XY=     0.3207   YY=    26.5204   ZY=    -4.5843
   XZ=     2.2085   YZ=    -2.7715   ZZ=    31.1229
   Eigenvalues:    24.2479    30.1629    33.5695
     18  H    Isotropic =    31.1257   Anisotropy =     8.9318
   XX=    34.3928   YX=     0.2686   ZX=    -3.8464
   XY=     0.7487   YY=    28.4121   ZY=    -1.0451
   XZ=    -4.2919   YZ=    -0.8629   ZZ=    30.5723
   Eigenvalues:    27.5950    28.7019    37.0803
     19  H    Isotropic =    30.8701   Anisotropy =     7.6691
   XX=    29.5827   YX=     2.2806   ZX=    -1.0881
   XY=     2.4113   YY=    34.5966   ZY=    -2.5724
   XZ=    -0.5690   YZ=    -0.7790   ZZ=    28.4310
   Eigenvalues:    27.9397    28.6877    35.9828
     20  H    Isotropic =    31.1571   Anisotropy =     8.8448
   XX=    31.6551   YX=    -2.9626   ZX=    -1.9537
   XY=    -3.4358   YY=    32.0136   ZY=     3.0701
   XZ=    -2.4384   YZ=     3.2691   ZZ=    29.8027
   Eigenvalues:    27.5493    28.8685    37.0537
     21  H    Isotropic =    29.3627   Anisotropy =     6.0253
   XX=    29.2272   YX=    -1.4938   ZX=     3.5565
   XY=    -1.1587   YY=    28.5365   ZY=     3.3686
   XZ=     3.2241   YZ=     1.0498   ZZ=    30.3245
   Eigenvalues:    24.7380    29.9706    33.3796
     22  H    Isotropic =    27.7735   Anisotropy =     6.7098
   XX=    29.2951   YX=    -1.6229   ZX=    -1.5547
   XY=    -0.9075   YY=    21.8719   ZY=    -1.1758
   XZ=     1.3000   YZ=    -0.7914   ZZ=    32.1534
   Eigenvalues:    21.5694    29.5043    32.2467
     23  H    Isotropic =    28.8533   Anisotropy =     8.0777
   XX=    32.3959   YX=    -2.4960   ZX=    -0.7038
   XY=    -2.6151   YY=    27.7343   ZY=     2.9076
   XZ=    -1.2549   YZ=     3.6646   ZZ=    26.4298
   Eigenvalues:    23.6356    28.6860    34.2385
     24  H    Isotropic =    27.6998   Anisotropy =     5.6957
   XX=    29.3313   YX=     0.1895   ZX=     2.2504
   XY=    -1.3333   YY=    26.3638   ZY=    -3.2089
   XZ=     1.3231   YZ=    -3.0712   ZZ=    27.4043
   Eigenvalues:    23.6029    27.9995    31.4969
     25  H    Isotropic =    25.9034   Anisotropy =    12.3155
   XX=    27.5979   YX=     8.7851   ZX=     1.4629
   XY=     3.4647   YY=    26.8514   ZY=     1.2607
   XZ=     1.6320   YZ=     3.7748   ZZ=    23.2610
   Eigenvalues:    20.7652    22.8313    34.1137
 End of Minotr F.D. properties file   721 does not exist.
 End of Minotr F.D. properties file   722 does not exist.
 End of Minotr F.D. properties file   788 does not exist.

 **********************************************************************

            Population analysis using the SCF Density.

 **********************************************************************

 Orbital symmetries:
       Occupied  (A) (A) (A) (A) (A) (A) (A) (A) (A) (A) (A) (A)
                 (A) (A) (A) (A) (A) (A) (A) (A) (A) (A) (A) (A)
                 (A) (A) (A) (A) (A) (A) (A) (A) (A) (A) (A) (A)
                 (A) (A) (A) (A) (A) (A) (A) (A) (A) (A) (A)
       Virtual   (A) (A) (A) (A) (A) (A) (A) (A) (A) (A) (A) (A)
                 (A) (A) (A) (A) (A) (A) (A) (A) (A) (A) (A) (A)
                 (A) (A) (A) (A) (A) (A) (A) (A) (A) (A) (A) (A)
                 (A) (A) (A) (A) (A) (A) (A) (A) (A) (A) (A) (A)
                 (A) (A) (A) (A) (A) (A) (A) (A) (A) (A) (A) (A)
                 (A) (A) (A) (A) (A) (A) (A) (A) (A) (A) (A) (A)
                 (A) (A) (A) (A) (A) (A) (A) (A) (A) (A) (A) (A)
                 (A) (A) (A) (A) (A) (A) (A) (A) (A) (A) (A) (A)
                 (A) (A) (A) (A) (A) (A) (A) (A) (A) (A) (A) (A)
                 (A) (A) (A) (A) (A) (A) (A) (A) (A) (A) (A) (A)
                 (A) (A) (A) (A) (A) (A) (A) (A) (A) (A) (A) (A)
                 (A) (A) (A) (A) (A) (A) (A) (A) (A) (A) (A) (A)
                 (A) (A) (A) (A) (A) (A) (A) (A) (A) (A) (A) (A)
                 (A) (A) (A) (A) (A) (A) (A) (A) (A) (A) (A) (A)
                 (A) (A) (A) (A) (A) (A) (A) (A) (A) (A) (A) (A)
                 (A) (A) (A) (A) (A) (A) (A) (A) (A) (A) (A) (A)
                 (A) (A) (A) (A) (A) (A) (A) (A) (A) (A) (A) (A)
                 (A) (A) (A) (A) (A) (A) (A) (A) (A) (A) (A) (A)
                 (A) (A) (A) (A) (A) (A) (A) (A) (A) (A) (A) (A)
                 (A) (A) (A) (A) (A) (A) (A) (A) (A) (A) (A) (A)
                 (A) (A) (A) (A) (A) (A) (A) (A) (A) (A) (A) (A)
                 (A) (A) (A) (A) (A) (A) (A) (A) (A) (A) (A) (A)
                 (A) (A) (A) (A) (A) (A) (A) (A) (A) (A) (A) (A)
                 (A) (A) (A) (A) (A) (A) (A) (A) (A) (A) (A) (A)
                 (A) (A) (A) (A) (A) (A) (A) (A) (A) (A) (A) (A)
                 (A) (A) (A) (A) (A) (A) (A) (A) (A) (A) (A) (A)
                 (A) (A) (A) (A) (A) (A) (A) (A) (A) (A) (A) (A)
                 (A) (A) (A) (A) (A) (A) (A) (A) (A) (A) (A) (A)
                 (A) (A) (A) (A) (A) (A) (A) (A) (A) (A) (A) (A)
                 (A) (A) (A) (A) (A) (A) (A) (A) (A) (A) (A) (A)
                 (A) (A) (A) (A) (A) (A) (A) (A) (A) (A) (A) (A)
                 (A) (A) (A) (A) (A) (A) (A) (A) (A) (A) (A) (A)
                 (A) (A) (A) (A) (A) (A) (A) (A) (A) (A) (A) (A)
                 (A) (A) (A) (A) (A) (A) (A)
 The electronic state is 1-A.
 Alpha  occ. eigenvalues --  -19.68265 -19.66084 -19.62819 -19.59864 -14.77384
 Alpha  occ. eigenvalues --  -10.68872 -10.68291 -10.60590 -10.59498 -10.52645
 Alpha  occ. eigenvalues --  -10.52040 -10.51874  -1.25049  -1.23543  -1.15564
 Alpha  occ. eigenvalues --   -1.14023  -1.04686  -0.91594  -0.84769  -0.78745
 Alpha  occ. eigenvalues --   -0.78473  -0.73733  -0.68839  -0.66144  -0.60270
 Alpha  occ. eigenvalues --   -0.59470  -0.59149  -0.56556  -0.55968  -0.55192
 Alpha  occ. eigenvalues --   -0.52532  -0.52037  -0.51080  -0.48942  -0.48308
 Alpha  occ. eigenvalues --   -0.46811  -0.45488  -0.45051  -0.43050  -0.42618
 Alpha  occ. eigenvalues --   -0.41557  -0.40968  -0.40096  -0.37636  -0.36536
 Alpha  occ. eigenvalues --   -0.35403  -0.33361
 Alpha virt. eigenvalues --    0.04467   0.05550   0.06452   0.07657   0.09096
 Alpha virt. eigenvalues --    0.10848   0.10934   0.12316   0.12404   0.13758
 Alpha virt. eigenvalues --    0.13934   0.15207   0.16698   0.17230   0.17558
 Alpha virt. eigenvalues --    0.18440   0.18677   0.19174   0.20126   0.20721
 Alpha virt. eigenvalues --    0.20911   0.21492   0.22665   0.24337   0.24449
 Alpha virt. eigenvalues --    0.25326   0.27420   0.29501   0.30253   0.30967
 Alpha virt. eigenvalues --    0.31553   0.32847   0.33903   0.34947   0.35804
 Alpha virt. eigenvalues --    0.36794   0.37777   0.38483   0.39116   0.39374
 Alpha virt. eigenvalues --    0.39850   0.40523   0.41206   0.41463   0.43609
 Alpha virt. eigenvalues --    0.44566   0.45434   0.45986   0.46317   0.47091
 Alpha virt. eigenvalues --    0.47576   0.48712   0.48825   0.49109   0.49794
 Alpha virt. eigenvalues --    0.51237   0.51561   0.51648   0.51879   0.53071
 Alpha virt. eigenvalues --    0.53565   0.53940   0.55404   0.56304   0.57014
 Alpha virt. eigenvalues --    0.57945   0.58077   0.60511   0.61390   0.62259
 Alpha virt. eigenvalues --    0.64352   0.66040   0.66576   0.66899   0.69601
 Alpha virt. eigenvalues --    0.70908   0.71457   0.71930   0.74027   0.75146
 Alpha virt. eigenvalues --    0.75930   0.79554   0.81133   0.83236   0.83743
 Alpha virt. eigenvalues --    0.86136   0.86422   0.86766   0.88455   0.89485
 Alpha virt. eigenvalues --    0.90770   0.91836   0.93112   0.96482   0.97068
 Alpha virt. eigenvalues --    0.97944   0.98924   1.00449   1.01759   1.03046
 Alpha virt. eigenvalues --    1.03971   1.04717   1.06502   1.08057   1.09313
 Alpha virt. eigenvalues --    1.11042   1.12785   1.14544   1.14603   1.16506
 Alpha virt. eigenvalues --    1.17267   1.18080   1.22681   1.24158   1.27103
 Alpha virt. eigenvalues --    1.28220   1.31333   1.32994   1.33816   1.35920
 Alpha virt. eigenvalues --    1.36572   1.37737   1.40724   1.45627   1.46603
 Alpha virt. eigenvalues --    1.47758   1.49953   1.50363   1.51173   1.52692
 Alpha virt. eigenvalues --    1.53852   1.55384   1.56043   1.58339   1.59014
 Alpha virt. eigenvalues --    1.59158   1.60905   1.61392   1.63565   1.63967
 Alpha virt. eigenvalues --    1.64399   1.65469   1.66361   1.66808   1.67722
 Alpha virt. eigenvalues --    1.68680   1.69218   1.70140   1.70730   1.72495
 Alpha virt. eigenvalues --    1.76150   1.77627   1.79634   1.80253   1.81109
 Alpha virt. eigenvalues --    1.84277   1.86440   1.87213   1.88711   1.89700
 Alpha virt. eigenvalues --    1.90489   1.92121   1.92828   1.94280   1.96538
 Alpha virt. eigenvalues --    1.99123   2.00945   2.02423   2.04627   2.04780
 Alpha virt. eigenvalues --    2.06470   2.08449   2.11383   2.12041   2.14330
 Alpha virt. eigenvalues --    2.15040   2.15425   2.16010   2.18226   2.18441
 Alpha virt. eigenvalues --    2.20889   2.21504   2.22513   2.25176   2.26709
 Alpha virt. eigenvalues --    2.28909   2.30354   2.31239   2.31977   2.32365
 Alpha virt. eigenvalues --    2.34481   2.35323   2.35796   2.38242   2.38675
 Alpha virt. eigenvalues --    2.39596   2.41857   2.42340   2.42728   2.43081
 Alpha virt. eigenvalues --    2.45120   2.46184   2.48522   2.50678   2.51240
 Alpha virt. eigenvalues --    2.53256   2.54935   2.55752   2.56634   2.58339
 Alpha virt. eigenvalues --    2.58411   2.61060   2.62145   2.63235   2.65854
 Alpha virt. eigenvalues --    2.67169   2.68185   2.69256   2.69601   2.72751
 Alpha virt. eigenvalues --    2.73201   2.75901   2.78505   2.80286   2.80745
 Alpha virt. eigenvalues --    2.81931   2.82249   2.83810   2.86227   2.88031
 Alpha virt. eigenvalues --    2.88746   2.90052   2.91552   2.94876   2.96913
 Alpha virt. eigenvalues --    2.97881   2.98565   2.99196   3.01035   3.04534
 Alpha virt. eigenvalues --    3.06448   3.08746   3.09377   3.10515   3.11867
 Alpha virt. eigenvalues --    3.13155   3.14497   3.14880   3.15560   3.18179
 Alpha virt. eigenvalues --    3.18675   3.20130   3.21132   3.21627   3.23709
 Alpha virt. eigenvalues --    3.24565   3.24878   3.28063   3.28557   3.30740
 Alpha virt. eigenvalues --    3.31098   3.32314   3.33157   3.34367   3.34886
 Alpha virt. eigenvalues --    3.35263   3.35982   3.37280   3.38647   3.39328
 Alpha virt. eigenvalues --    3.39630   3.40408   3.41193   3.42214   3.44737
 Alpha virt. eigenvalues --    3.46918   3.48279   3.49048   3.53080   3.53342
 Alpha virt. eigenvalues --    3.56831   3.58148   3.59617   3.60768   3.62953
 Alpha virt. eigenvalues --    3.65109   3.66379   3.67138   3.70668   3.72670
 Alpha virt. eigenvalues --    3.74008   3.78684   3.82261   3.83838   3.84434
 Alpha virt. eigenvalues --    3.85383   3.89117   3.94387   3.97271   4.01582
 Alpha virt. eigenvalues --    4.01963   4.02766   4.04102   4.05664   4.05869
 Alpha virt. eigenvalues --    4.10432   4.13271   4.13356   4.14044   4.18795
 Alpha virt. eigenvalues --    4.23851   4.30055   4.32682   4.33665   4.37277
 Alpha virt. eigenvalues --    4.37896   4.40256   4.41892   4.44842   4.45296
 Alpha virt. eigenvalues --    4.47374   4.48026   4.51973   4.56316   4.65718
 Alpha virt. eigenvalues --    4.68555   4.70813   4.74282   4.75857   4.82060
 Alpha virt. eigenvalues --    4.85668   4.88067   4.89687   4.93051   4.99859
 Alpha virt. eigenvalues --    5.02816   5.09543   5.15455   5.16541   5.18383
 Alpha virt. eigenvalues --    5.21139   5.22679   5.24166   5.27454   5.30700
 Alpha virt. eigenvalues --    5.37341   5.37697   5.39575   5.41554   5.43893
 Alpha virt. eigenvalues --    5.50714   5.54460   5.59064   5.62114   5.69447
 Alpha virt. eigenvalues --    5.74559   5.76463   5.80124   5.88914   5.89902
 Alpha virt. eigenvalues --    5.93004   6.06779   6.17009   6.18704   6.20974
 Alpha virt. eigenvalues --    6.22535   6.27731   6.33194   6.38727   6.42208
 Alpha virt. eigenvalues --    6.44182   6.44620   6.47953   6.56735   6.65021
 Alpha virt. eigenvalues --    6.68457   6.69363   6.71568   6.75960   6.81328
 Alpha virt. eigenvalues --    6.81558   6.88761   6.94569   6.97170   7.07895
 Alpha virt. eigenvalues --    7.09992   7.11439   7.18300   7.30872   7.40660
 Alpha virt. eigenvalues --    7.45040  22.51013  22.54948  22.56417  22.66457
 Alpha virt. eigenvalues --   22.76009  23.36463  23.63082  32.57324  43.93055
 Alpha virt. eigenvalues --   44.01202  44.11347  44.60790
          Condensed to atoms (all electrons):
               1          2          3          4          5          6
     1  C    5.158835   0.308047  -0.099248  -0.098921  -0.055541  -0.002380
     2  C    0.308047   5.060546   0.299603   0.295343   0.174869  -0.052034
     3  C   -0.099248   0.299603   5.242699  -0.099418  -0.042467  -0.010285
     4  C   -0.098921   0.295343  -0.099418   5.242959  -0.045702  -0.004356
     5  O   -0.055541   0.174869  -0.042467  -0.045702   8.050005   0.377810
     6  C   -0.002380  -0.052034  -0.010285  -0.004356   0.377810   4.256989
     7  O    0.001401   0.043482  -0.030136  -0.028337  -0.078000   0.603227
     8  N    0.000346   0.009888  -0.002031  -0.002472  -0.107418   0.402077
     9  C   -0.000062  -0.001651   0.000081   0.000717   0.007879  -0.048506
    10  C    0.000016   0.000293  -0.000025  -0.000033  -0.000778   0.015039
    11  O    0.000002  -0.000246   0.000022  -0.000045  -0.000510   0.010171
    12  O    0.000000  -0.000000  -0.000000  -0.000004  -0.000007  -0.000882
    13  H    0.403992  -0.029165  -0.013232   0.014279  -0.000402  -0.000593
    14  H    0.405175  -0.029357   0.014205  -0.012389  -0.000574  -0.001003
    15  H    0.410315  -0.027414  -0.010649  -0.011118   0.005746   0.000459
    16  H   -0.010086  -0.031334   0.396748   0.013663   0.001592  -0.002330
    17  H    0.012212  -0.025064   0.408436  -0.010366  -0.001976  -0.004751
    18  H   -0.014774  -0.023791   0.398878  -0.006425   0.005091   0.002268
    19  H   -0.010717  -0.030411   0.013314   0.398393   0.001608  -0.001900
    20  H   -0.014104  -0.022528  -0.006514   0.396025   0.005274   0.001657
    21  H    0.012122  -0.024374  -0.010519   0.408998  -0.001875  -0.005185
    22  H   -0.000350  -0.000927   0.000276   0.000373   0.006807  -0.048951
    23  H   -0.000005  -0.000013   0.000001   0.000003  -0.000020   0.007433
    24  H    0.000000  -0.000215   0.000022   0.000034   0.000432  -0.023187
    25  H   -0.000000   0.000001   0.000000  -0.000001   0.000001   0.000014
               7          8          9         10         11         12
     1  C    0.001401   0.000346  -0.000062   0.000016   0.000002   0.000000
     2  C    0.043482   0.009888  -0.001651   0.000293  -0.000246  -0.000000
     3  C   -0.030136  -0.002031   0.000081  -0.000025   0.000022  -0.000000
     4  C   -0.028337  -0.002472   0.000717  -0.000033  -0.000045  -0.000004
     5  O   -0.078000  -0.107418   0.007879  -0.000778  -0.000510  -0.000007
     6  C    0.603227   0.402077  -0.048506   0.015039   0.010171  -0.000882
     7  O    7.965356  -0.100253   0.013238   0.001588  -0.001832  -0.000224
     8  N   -0.100253   6.665179   0.199533  -0.052009   0.010940   0.009111
     9  C    0.013238   0.199533   5.232204   0.273500  -0.109119  -0.131463
    10  C    0.001588  -0.052009   0.273500   4.476056   0.674668   0.378444
    11  O   -0.001832   0.010940  -0.109119   0.674668   7.805514  -0.089133
    12  O   -0.000224   0.009111  -0.131463   0.378444  -0.089133   7.935788
    13  H    0.000010  -0.000017   0.000002   0.000000   0.000000   0.000000
    14  H   -0.000000  -0.000068  -0.000007  -0.000000  -0.000003  -0.000000
    15  H    0.000087   0.000007  -0.000003   0.000000  -0.000000  -0.000000
    16  H   -0.000276   0.000066   0.000019   0.000002  -0.000000  -0.000000
    17  H    0.007173   0.000494  -0.000128   0.000005  -0.000001   0.000000
    18  H    0.000864   0.000053  -0.000008   0.000000   0.000000   0.000000
    19  H   -0.000680   0.000240  -0.000130   0.000007   0.000484   0.000003
    20  H    0.000767  -0.000014  -0.000005   0.000007   0.000011  -0.000000
    21  H    0.006563   0.000280  -0.000050   0.000074   0.000030  -0.000003
    22  H    0.003574   0.382129  -0.029926  -0.006387   0.003258   0.000255
    23  H    0.001393  -0.031256   0.404046  -0.034389   0.001439   0.004176
    24  H    0.008230  -0.010108   0.393873  -0.038526   0.002616   0.010755
    25  H   -0.000026  -0.001180   0.018999  -0.024922   0.005883   0.288999
              13         14         15         16         17         18
     1  C    0.403992   0.405175   0.410315  -0.010086   0.012212  -0.014774
     2  C   -0.029165  -0.029357  -0.027414  -0.031334  -0.025064  -0.023791
     3  C   -0.013232   0.014205  -0.010649   0.396748   0.408436   0.398878
     4  C    0.014279  -0.012389  -0.011118   0.013663  -0.010366  -0.006425
     5  O   -0.000402  -0.000574   0.005746   0.001592  -0.001976   0.005091
     6  C   -0.000593  -0.001003   0.000459  -0.002330  -0.004751   0.002268
     7  O    0.000010  -0.000000   0.000087  -0.000276   0.007173   0.000864
     8  N   -0.000017  -0.000068   0.000007   0.000066   0.000494   0.000053
     9  C    0.000002  -0.000007  -0.000003   0.000019  -0.000128  -0.000008
    10  C    0.000000  -0.000000   0.000000   0.000002   0.000005   0.000000
    11  O    0.000000  -0.000003  -0.000000  -0.000000  -0.000001   0.000000
    12  O    0.000000  -0.000000  -0.000000  -0.000000   0.000000   0.000000
    13  H    0.516475  -0.021249  -0.023508   0.002874  -0.000139   0.000642
    14  H   -0.021249   0.513880  -0.023266  -0.000389  -0.000377  -0.000007
    15  H   -0.023508  -0.023266   0.534507   0.000774  -0.000068   0.001441
    16  H    0.002874  -0.000389   0.000774   0.521218  -0.020282  -0.021524
    17  H   -0.000139  -0.000377  -0.000068  -0.020282   0.468676  -0.019646
    18  H    0.000642  -0.000007   0.001441  -0.021524  -0.019646   0.530701
    19  H   -0.000389   0.002790   0.000842  -0.000520  -0.000116  -0.000118
    20  H    0.000018   0.000471   0.001368  -0.000134   0.000278   0.000010
    21  H   -0.000377  -0.000135  -0.000068  -0.000123   0.002390   0.000380
    22  H    0.000004   0.000053   0.000008  -0.000003  -0.000044  -0.000006
    23  H    0.000000  -0.000000   0.000000  -0.000000  -0.000000   0.000000
    24  H   -0.000001  -0.000000  -0.000000  -0.000009   0.000066   0.000000
    25  H   -0.000000   0.000000   0.000000  -0.000000  -0.000000  -0.000000
              19         20         21         22         23         24
     1  C   -0.010717  -0.014104   0.012122  -0.000350  -0.000005   0.000000
     2  C   -0.030411  -0.022528  -0.024374  -0.000927  -0.000013  -0.000215
     3  C    0.013314  -0.006514  -0.010519   0.000276   0.000001   0.000022
     4  C    0.398393   0.396025   0.408998   0.000373   0.000003   0.000034
     5  O    0.001608   0.005274  -0.001875   0.006807  -0.000020   0.000432
     6  C   -0.001900   0.001657  -0.005185  -0.048951   0.007433  -0.023187
     7  O   -0.000680   0.000767   0.006563   0.003574   0.001393   0.008230
     8  N    0.000240  -0.000014   0.000280   0.382129  -0.031256  -0.010108
     9  C   -0.000130  -0.000005  -0.000050  -0.029926   0.404046   0.393873
    10  C    0.000007   0.000007   0.000074  -0.006387  -0.034389  -0.038526
    11  O    0.000484   0.000011   0.000030   0.003258   0.001439   0.002616
    12  O    0.000003  -0.000000  -0.000003   0.000255   0.004176   0.010755
    13  H   -0.000389   0.000018  -0.000377   0.000004   0.000000  -0.000001
    14  H    0.002790   0.000471  -0.000135   0.000053  -0.000000  -0.000000
    15  H    0.000842   0.001368  -0.000068   0.000008   0.000000  -0.000000
    16  H   -0.000520  -0.000134  -0.000123  -0.000003  -0.000000  -0.000009
    17  H   -0.000116   0.000278   0.002390  -0.000044  -0.000000   0.000066
    18  H   -0.000118   0.000010   0.000380  -0.000006   0.000000   0.000000
    19  H    0.510162  -0.021407  -0.019179   0.000075  -0.000001   0.000004
    20  H   -0.021407   0.534856  -0.020390  -0.000012  -0.000000  -0.000002
    21  H   -0.019179  -0.020390   0.468656  -0.000111  -0.000000  -0.000020
    22  H    0.000075  -0.000012  -0.000111   0.439013  -0.004328   0.005769
    23  H   -0.000001  -0.000000  -0.000000  -0.004328   0.483713  -0.010490
    24  H    0.000004  -0.000002  -0.000020   0.005769  -0.010490   0.468009
    25  H   -0.000000   0.000000   0.000001  -0.000041  -0.000847  -0.001323
              25
     1  C   -0.000000
     2  C    0.000001
     3  C    0.000000
     4  C   -0.000001
     5  O    0.000001
     6  C    0.000014
     7  O   -0.000026
     8  N   -0.001180
     9  C    0.018999
    10  C   -0.024922
    11  O    0.005883
    12  O    0.288999
    13  H   -0.000000
    14  H    0.000000
    15  H    0.000000
    16  H   -0.000000
    17  H   -0.000000
    18  H   -0.000000
    19  H   -0.000000
    20  H    0.000000
    21  H    0.000001
    22  H   -0.000041
    23  H   -0.000847
    24  H   -0.001323
    25  H    0.375138
 Mulliken charges:
               1
     1  C   -0.406274
     2  C    0.106452
     3  C   -0.449761
     4  C   -0.451198
     5  O   -0.301846
     6  C    0.529198
     7  O   -0.417188
     8  N   -0.373516
     9  C   -0.223034
    10  C    0.337369
    11  O   -0.314148
    12  O   -0.405813
    13  H    0.150775
    14  H    0.152251
    15  H    0.140539
    16  H    0.150055
    17  H    0.183226
    18  H    0.145970
    19  H    0.157644
    20  H    0.144366
    21  H    0.182914
    22  H    0.249494
    23  H    0.179147
    24  H    0.194071
    25  H    0.339305
 Sum of Mulliken charges =  -0.00000
 Mulliken charges with hydrogens summed into heavy atoms:
               1
     1  C    0.037291
     2  C    0.106452
     3  C    0.029491
     4  C    0.033726
     5  O   -0.301846
     6  C    0.529198
     7  O   -0.417188
     8  N   -0.124022
     9  C    0.150184
    10  C    0.337369
    11  O   -0.314148
    12  O   -0.066508
 Electronic spatial extent (au):  <R**2>=           2668.1686
 Charge=             -0.0000 electrons
 Dipole moment (field-independent basis, Debye):
    X=              0.4967    Y=             -0.3256    Z=             -1.4969  Tot=              1.6104
 Quadrupole moment (field-independent basis, Debye-Ang):
   XX=            -57.8872   YY=            -72.9213   ZZ=            -72.7225
   XY=             -0.6447   XZ=             -1.2075   YZ=              3.5695
 Traceless Quadrupole moment (field-independent basis, Debye-Ang):
   XX=              9.9565   YY=             -5.0776   ZZ=             -4.8788
   XY=             -0.6447   XZ=             -1.2075   YZ=              3.5695
 Octapole moment (field-independent basis, Debye-Ang**2):
  XXX=             47.0529  YYY=             -1.1252  ZZZ=            -10.1239  XYY=             12.7280
  XXY=             20.1944  XXZ=              5.6188  XZZ=             12.4469  YZZ=              0.8584
  YYZ=              3.2725  XYZ=              9.1719
 Hexadecapole moment (field-independent basis, Debye-Ang**3):
 XXXX=          -2439.3986 YYYY=           -444.8280 ZZZZ=           -340.3831 XXXY=            125.4876
 XXXZ=             13.1049 YYYX=             15.3181 YYYZ=              0.9706 ZZZX=             -2.2792
 ZZZY=              6.6091 XXYY=           -473.4706 XXZZ=           -495.3427 YYZZ=           -129.7736
 XXYZ=             40.1461 YYXZ=             15.8223 ZZXY=              3.4189
 N-N= 7.656820285258D+02 E-N=-3.006679405326D+03  KE= 6.274576279006D+02
 Unable to Open any file for archive entry.
 1\1\GINC-NODE02\SP\RM062X\def2TZVP\C7H13N1O4\SVSS\29-Jan-2024\0\\# nmr
 =giao m062x/def2tzvp\\Ac2_rdkit_conf_3_SP_NMR\\0,1\C,0,-3.325794,0.426
 639,-1.154869\C,0,-2.363483,0.181884,-0.002987\C,0,-2.902789,-0.899045
 ,0.923361\C,0,-2.072009,1.481407,0.734896\O,0,-1.162769,-0.289814,-0.6
 80205\C,0,-0.062942,-0.585461,0.018567\O,0,0.057659,-0.5506,1.218707\N
 ,0,0.938212,-0.984658,-0.830464\C,0,2.270833,-1.028544,-0.305715\C,0,2
 .862164,0.35332,-0.100272\O,0,2.349923,1.380774,-0.434947\O,0,4.062798
 ,0.28047,0.494949\H,0,-3.493776,-0.49572,-1.711324\H,0,-2.920499,1.176
 266,-1.834787\H,0,-4.281143,0.782752,-0.769384\H,0,-3.039221,-1.830635
 ,0.372107\H,0,-2.229781,-1.072977,1.759152\H,0,-3.873282,-0.58477,1.31
 0216\H,0,-1.6043,2.198013,0.058197\H,0,-3.011408,1.906383,1.09149\H,0,
 -1.414661,1.315077,1.584493\H,0,0.818448,-0.706333,-1.791391\H,0,2.925
 385,-1.586302,-0.976243\H,0,2.267938,-1.541817,0.654899\H,0,4.392044,1
 .184829,0.599911\\Version=AS64L-G16RevC.01\State=1-A\HF=-630.2707915\R
 MSD=9.667e-09\Dipole=0.1954241,-0.1280831,-0.5889271\Quadrupole=7.4023
 769,-3.7750981,-3.6272788,-0.4793103,-0.8977833,2.6538395\PG=C01 [X(C7
 H13N1O4)]\\@
 The archive entry for this job was punched.


 THEREFORE SHALL EVIL COME UPON THEE...
 THOU SHALT NOT KNOW FROM WHENCE IT RISETH...
 AND MISCHIEF SHALL FALL UPON THEE...
 THOU SHALT NOT BE ABLE TO PUT IT OFF...
 AND DESOLATION SHALL COME UPON THEE SUDDENLY...
 WHICH THOU SHALT NOT KNOW...

                                         ISAIAH 47.11
 Job cpu time:       0 days  0 hours 32 minutes 37.3 seconds.
 Elapsed time:       0 days  0 hours  4 minutes 15.3 seconds.
 File lengths (MBytes):  RWF=    121 Int=      0 D2E=      0 Chk=     17 Scr=      1
 Normal termination of Gaussian 16 at Mon Jan 29 12:53:46 2024.
