Job Start Time: Mon Jan 29 12:49:31 MST 2024
SLURM Job ID: 229681
SLURM Job Name: Ac5_rdkit_conf_3_SP_NMR
 Entering Gaussian System, Link 0=/opt/apps/Gaussian/G16C/g16/g16
 Initial command:
 /opt/apps/Gaussian/G16C/g16/l1.exe "/tmp/Gau-2594262.inp" -scrdir="/tmp/"
 Entering Link 1 = /opt/apps/Gaussian/G16C/g16/l1.exe PID=   2594266.
  
 Copyright (c) 1988-2019, Gaussian, Inc.  All Rights Reserved.
  
 This is part of the Gaussian(R) 16 program.  It is based on
 the Gaussian(R) 09 system (copyright 2009, Gaussian, Inc.),
 the Gaussian(R) 03 system (copyright 2003, Gaussian, Inc.),
 the Gaussian(R) 98 system (copyright 1998, Gaussian, Inc.),
 the Gaussian(R) 94 system (copyright 1995, Gaussian, Inc.),
 the Gaussian 92(TM) system (copyright 1992, Gaussian, Inc.),
 the Gaussian 90(TM) system (copyright 1990, Gaussian, Inc.),
 the Gaussian 88(TM) system (copyright 1988, Gaussian, Inc.),
 the Gaussian 86(TM) system (copyright 1986, Carnegie Mellon
 University), and the Gaussian 82(TM) system (copyright 1983,
 Carnegie Mellon University). Gaussian is a federally registered
 trademark of Gaussian, Inc.
  
 This software contains proprietary and confidential information,
 including trade secrets, belonging to Gaussian, Inc.
  
 This software is provided under written license and may be
 used, copied, transmitted, or stored only in accord with that
 written license.
  
 The following legend is applicable only to US Government
 contracts under FAR:
  
                    RESTRICTED RIGHTS LEGEND
  
 Use, reproduction and disclosure by the US Government is
 subject to restrictions as set forth in subparagraphs (a)
 and (c) of the Commercial Computer Software - Restricted
 Rights clause in FAR 52.227-19.
  
 Gaussian, Inc.
 340 Quinnipiac St., Bldg. 40, Wallingford CT 06492
  
  
 ---------------------------------------------------------------
 Warning -- This program may not be used in any manner that
 competes with the business of Gaussian, Inc. or will provide
 assistance to any competitor of Gaussian, Inc.  The licensee
 of this program is prohibited from giving any competitor of
 Gaussian, Inc. access to this program.  By using this program,
 the user acknowledges that Gaussian, Inc. is engaged in the
 business of creating and licensing software in the field of
 computational chemistry and represents and warrants to the
 licensee that it is not a competitor of Gaussian, Inc. and that
 it will not use this program in any manner prohibited above.
 ---------------------------------------------------------------
  

 Cite this work as:
 Gaussian 16, Revision C.01,
 M. J. Frisch, G. W. Trucks, H. B. Schlegel, G. E. Scuseria, 
 M. A. Robb, J. R. Cheeseman, G. Scalmani, V. Barone, 
 G. A. Petersson, H. Nakatsuji, X. Li, M. Caricato, A. V. Marenich, 
 J. Bloino, B. G. Janesko, R. Gomperts, B. Mennucci, H. P. Hratchian, 
 J. V. Ortiz, A. F. Izmaylov, J. L. Sonnenberg, D. Williams-Young, 
 F. Ding, F. Lipparini, F. Egidi, J. Goings, B. Peng, A. Petrone, 
 T. Henderson, D. Ranasinghe, V. G. Zakrzewski, J. Gao, N. Rega, 
 G. Zheng, W. Liang, M. Hada, M. Ehara, K. Toyota, R. Fukuda, 
 J. Hasegawa, M. Ishida, T. Nakajima, Y. Honda, O. Kitao, H. Nakai, 
 T. Vreven, K. Throssell, J. A. Montgomery, Jr., J. E. Peralta, 
 F. Ogliaro, M. J. Bearpark, J. J. Heyd, E. N. Brothers, K. N. Kudin, 
 V. N. Staroverov, T. A. Keith, R. Kobayashi, J. Normand, 
 K. Raghavachari, A. P. Rendell, J. C. Burant, S. S. Iyengar, 
 J. Tomasi, M. Cossi, J. M. Millam, M. Klene, C. Adamo, R. Cammi, 
 J. W. Ochterski, R. L. Martin, K. Morokuma, O. Farkas, 
 J. B. Foresman, and D. J. Fox, Gaussian, Inc., Wallingford CT, 2019.
 
 ******************************************
 Gaussian 16:  AS64L-G16RevC.01  3-Jul-2019
                29-Jan-2024 
 ******************************************
 %nprocshared=8
 Will use up to    8 processors via shared memory.
 %mem=16GB
 -------------------------
 # nmr=giao m062x/def2tzvp
 -------------------------
 1/38=1,172=1/1;
 2/12=2,17=6,18=5,40=1/2;
 3/5=44,7=101,11=2,25=1,30=1,74=-55/1,2,3,8;
 4//1;
 5/5=2,38=5/2;
 8/6=1,10=90,11=11/1;
 10/13=100,45=16/2;
 6/7=2,8=2,9=2,10=2,28=1/1;
 99/9=1/99;
 -----------------------
 Ac5_rdkit_conf_3_SP_NMR
 -----------------------
 Symbolic Z-matrix:
 Charge =  0 Multiplicity = 1
 C                    -1.42658   1.8853    0.26277 
 C                    -1.02231   0.42241   0.42787 
 C                    -1.4041   -0.04817   1.83888 
 C                    -1.77427  -0.38277  -0.63025 
 O                    -2.20281   0.05944  -1.65801 
 O                    -1.90714  -1.6849   -0.30758 
 C                     0.47435   0.18723   0.17851 
 C                     1.02545  -1.08098   0.37401 
 C                     2.37521  -1.31284   0.16442 
 C                     3.20769  -0.27996  -0.2453 
 C                     2.67276   0.9814   -0.44713 
 C                     1.31792   1.21167  -0.24073 
 H                    -1.24191   2.24142  -0.74835 
 H                    -0.87981   2.5056    0.97339 
 H                    -2.49292   1.99346   0.46089 
 H                    -1.15389  -1.09247   2.00573 
 H                    -0.86947   0.55869   2.57022 
 H                    -2.47586   0.07501   2.00274 
 H                    -2.35062  -2.11351  -1.05389 
 H                     0.39029  -1.90066   0.68241 
 H                     2.77796  -2.30513   0.32204 
 H                     4.2624   -0.4595   -0.40761 
 H                     3.30805   1.79606  -0.77015 
 H                     0.92858   2.20505  -0.41101 
 
                          Input orientation:                          
 ---------------------------------------------------------------------
 Center     Atomic      Atomic             Coordinates (Angstroms)
 Number     Number       Type             X           Y           Z
 ---------------------------------------------------------------------
      1          6           0       -1.426577    1.885298    0.262769
      2          6           0       -1.022308    0.422408    0.427874
      3          6           0       -1.404101   -0.048170    1.838882
      4          6           0       -1.774268   -0.382772   -0.630252
      5          8           0       -2.202813    0.059444   -1.658005
      6          8           0       -1.907135   -1.684903   -0.307582
      7          6           0        0.474354    0.187226    0.178509
      8          6           0        1.025446   -1.080980    0.374013
      9          6           0        2.375212   -1.312843    0.164418
     10          6           0        3.207689   -0.279962   -0.245304
     11          6           0        2.672761    0.981402   -0.447134
     12          6           0        1.317919    1.211669   -0.240730
     13          1           0       -1.241906    2.241416   -0.748350
     14          1           0       -0.879808    2.505598    0.973389
     15          1           0       -2.492915    1.993456    0.460885
     16          1           0       -1.153888   -1.092471    2.005731
     17          1           0       -0.869472    0.558692    2.570218
     18          1           0       -2.475857    0.075009    2.002742
     19          1           0       -2.350617   -2.113507   -1.053886
     20          1           0        0.390287   -1.900657    0.682412
     21          1           0        2.777964   -2.305129    0.322043
     22          1           0        4.262403   -0.459500   -0.407611
     23          1           0        3.308054    1.796060   -0.770145
     24          1           0        0.928575    2.205049   -0.411005
 ---------------------------------------------------------------------
                    Distance matrix (angstroms):
                    1          2          3          4          5
     1  C    0.000000
     2  C    1.526676   0.000000
     3  C    2.494581   1.535628   0.000000
     4  C    2.462218   1.527544   2.519048   0.000000
     5  O    2.761459   2.424093   3.588557   1.198116   0.000000
     6  O    3.647269   2.400953   2.745769   1.348078   2.225717
     7  C    2.550311   1.535412   2.518103   2.456683   3.249051
     8  C    3.850142   2.540939   3.019145   3.055232   3.981372
     9  C    4.969042   3.824088   4.322781   4.326051   5.114950
    10  C    5.140322   4.340434   5.066179   4.997865   5.602183
    11  C    4.257413   3.838183   4.786094   4.655166   5.107586
    12  C    2.870461   2.558638   3.649846   3.500798   3.966339
    13  H    1.087789   2.177273   3.458653   2.680246   2.551826
    14  H    1.090279   2.158141   2.746942   3.422631   3.828609
    15  H    1.089966   2.152200   2.693070   2.711732   2.883445
    16  H    3.461125   2.191302   1.086743   2.799455   3.981220
    17  H    2.719296   2.152108   1.090395   3.456591   4.461493
    18  H    2.721331   2.171106   1.091185   2.763050   3.670949
    19  H    4.310206   3.223489   3.678263   1.872722   2.260204
    20  H    4.220255   2.730722   2.826475   2.951671   4.005461
    21  H    5.936443   4.678966   4.988420   5.032409   5.858322
    22  H    6.189667   5.422543   6.109435   6.041263   6.605438
    23  H    4.846814   4.698319   5.693207   5.531444   5.845835
    24  H    2.470416   2.772629   3.947197   3.748366   3.995525
                    6          7          8          9         10
     6  O    0.000000
     7  C    3.068003   0.000000
     8  C    3.070721   1.396521   0.000000
     9  C    4.324316   2.421501   1.385481   0.000000
    10  C    5.304636   2.805174   2.405695   1.388428   0.000000
    11  C    5.301330   2.419739   2.764299   2.392925   1.384891
    12  C    4.335386   1.391706   2.391587   2.766799   2.407533
    13  H    4.006593   2.832722   4.175991   5.152615   5.138998
    14  H    4.500732   2.800078   4.105215   5.082330   5.094329
    15  H    3.803157   3.485239   4.673175   5.892212   6.177703
    16  H    2.503952   2.761800   2.722523   3.986671   4.975006
    17  H    3.793705   2.768416   3.332050   4.451796   5.025311
    18  H    2.959448   3.470470   4.030905   5.370143   6.122288
    19  H    0.968167   3.846119   3.808255   4.945583   5.908507
    20  H    2.510933   2.149475   1.081854   2.133956   3.380098
    21  H    4.767731   3.396918   2.138355   1.082445   2.146590
    22  H    6.290852   3.887301   3.387486   2.148698   1.082127
    23  H    6.287230   3.393840   3.846655   3.377703   2.143688
    24  H    4.814943   2.150687   3.379885   3.847003   3.375959
                   11         12         13         14         15
    11  C    0.000000
    12  C    1.389684   0.000000
    13  H    4.123467   2.805488   0.000000
    14  H    4.118471   2.824596   1.779127   0.000000
    15  H    5.341625   3.952962   1.757486   1.768351   0.000000
    16  H    4.996072   4.057768   4.325218   3.753259   3.701687
    17  H    4.672313   3.621117   3.739406   2.518018   3.023806
    18  H    5.773362   4.551692   3.712743   3.084591   2.461311
    19  H    5.931352   5.017587   4.504214   5.254451   4.379717
    20  H    3.846014   3.376280   4.676313   4.594877   4.850365
    21  H    3.376979   3.849196   6.162481   6.078375   6.802887
    22  H    2.145862   3.389785   6.140722   6.094366   7.239171
    23  H    1.082405   2.140661   4.571756   4.591464   5.933434
    24  H    2.130916   1.080456   2.196841   2.297199   3.537168
                   16         17         18         19         20
    16  H    0.000000
    17  H    1.768015   0.000000
    18  H    1.763695   1.771003   0.000000
    19  H    3.440339   4.740102   3.761418   0.000000
    20  H    2.188336   3.346521   3.723078   3.251552   0.000000
    21  H    4.445763   5.153596   6.007698   5.313402   2.448360
    22  H    5.963311   6.019993   7.176326   6.847295   4.272981
    23  H    5.996501   5.490066   6.641125   6.883733   4.928387
    24  H    4.588126   3.851124   4.685446   5.460432   4.282772
                   21         22         23         24
    21  H    0.000000
    22  H    2.478367   0.000000
    23  H    4.277104   2.475836   0.000000
    24  H    4.929432   4.267815   2.440937   0.000000
 Stoichiometry    C10H12O2
 Framework group  C1[X(C10H12O2)]
 Deg. of freedom    66
 Full point group                 C1      NOp   1
 Largest Abelian subgroup         C1      NOp   1
 Largest concise Abelian subgroup C1      NOp   1
                         Standard orientation:                         
 ---------------------------------------------------------------------
 Center     Atomic      Atomic             Coordinates (Angstroms)
 Number     Number       Type             X           Y           Z
 ---------------------------------------------------------------------
      1          6           0       -1.426577    1.885298    0.262769
      2          6           0       -1.022308    0.422408    0.427874
      3          6           0       -1.404101   -0.048170    1.838882
      4          6           0       -1.774268   -0.382772   -0.630252
      5          8           0       -2.202813    0.059444   -1.658005
      6          8           0       -1.907135   -1.684903   -0.307582
      7          6           0        0.474354    0.187226    0.178509
      8          6           0        1.025446   -1.080980    0.374013
      9          6           0        2.375212   -1.312843    0.164418
     10          6           0        3.207689   -0.279962   -0.245304
     11          6           0        2.672761    0.981402   -0.447134
     12          6           0        1.317919    1.211669   -0.240730
     13          1           0       -1.241906    2.241416   -0.748350
     14          1           0       -0.879808    2.505598    0.973389
     15          1           0       -2.492915    1.993456    0.460885
     16          1           0       -1.153888   -1.092471    2.005731
     17          1           0       -0.869472    0.558692    2.570218
     18          1           0       -2.475857    0.075009    2.002742
     19          1           0       -2.350617   -2.113507   -1.053886
     20          1           0        0.390287   -1.900657    0.682412
     21          1           0        2.777964   -2.305129    0.322043
     22          1           0        4.262403   -0.459500   -0.407611
     23          1           0        3.308054    1.796060   -0.770145
     24          1           0        0.928575    2.205049   -0.411005
 ---------------------------------------------------------------------
 Rotational constants (GHZ):           1.6062536           0.6952714           0.6285052
 Standard basis: def2TZVP (5D, 7F)
 There are   504 symmetry adapted cartesian basis functions of A   symmetry.
 There are   444 symmetry adapted basis functions of A   symmetry.
   444 basis functions,   708 primitive gaussians,   504 cartesian basis functions
    44 alpha electrons       44 beta electrons
       nuclear repulsion energy       701.8619352578 Hartrees.
 NAtoms=   24 NActive=   24 NUniq=   24 SFac= 1.00D+00 NAtFMM=   60 NAOKFM=F Big=F
 Integral buffers will be    131072 words long.
 Raffenetti 2 integral format.
 Two-electron integral symmetry is turned on.
 One-electron integrals computed using PRISM.
   1 Symmetry operations used in ECPInt.
 ECPInt:  NShTT=   16290 NPrTT=   49128 LenC2=   15660 LenP2D=   36357.
 LDataN:  DoStor=T MaxTD1= 6 Len=  172
 NBasis=   444 RedAO= T EigKep=  7.55D-06  NBF=   444
 NBsUse=   444 1.00D-06 EigRej= -1.00D+00 NBFU=   444
 ExpMin= 9.52D-02 ExpMax= 2.70D+04 ExpMxC= 9.22D+02 IAcc=3 IRadAn=         5 AccDes= 0.00D+00
 Harris functional with IExCor= 1009 and IRadAn=       5 diagonalized for initial guess.
 HarFok:  IExCor= 1009 AccDes= 0.00D+00 IRadAn=         5 IDoV= 1 UseB2=F ITyADJ=14
 ICtDFT=  3500011 ScaDFX=  1.000000  1.000000  1.000000  1.000000
 FoFCou: FMM=F IPFlag=           0 FMFlag=      100000 FMFlg1=           0
         NFxFlg=           0 DoJE=T BraDBF=F KetDBF=T FulRan=T
         wScrn=  0.000000 ICntrl=       500 IOpCl=  0 I1Cent=   200000004 NGrid=           0
         NMat0=    1 NMatS0=      1 NMatT0=    0 NMatD0=    1 NMtDS0=    0 NMtDT0=    0
 Petite list used in FoFCou.
 Requested convergence on RMS density matrix=1.00D-08 within 128 cycles.
 Requested convergence on MAX density matrix=1.00D-06.
 Requested convergence on             energy=1.00D-06.
 No special actions if energy rises.
 Integral accuracy reduced to 1.0D-05 until final iterations.
 Initial convergence to 1.0D-05 achieved.  Increase integral accuracy.
 SCF Done:  E(RM062X) =  -538.738717529     A.U. after   15 cycles
            NFock= 15  Conv=0.81D-08     -V/T= 2.0047
 DoSCS=F DFT=T ScalE2(SS,OS)=  1.000000  1.000000
 Range of M.O.s used for correlation:     1   444
 NBasis=   444 NAE=    44 NBE=    44 NFC=     0 NFV=     0
 NROrb=    444 NOA=    44 NOB=    44 NVA=   400 NVB=   400

 **** Warning!!: The largest alpha MO coefficient is  0.55641511D+02

          Differentiating once with respect to magnetic field using GIAOs.
          Electric field/nuclear overlap derivatives assumed to be zero.
 FoFCou: FMM=F IPFlag=           0 FMFlag=      100000 FMFlg1=           0
         NFxFlg=           0 DoJE=F BraDBF=F KetDBF=T FulRan=T
         wScrn=  0.000000 ICntrl=      6100 IOpCl=  0 I1Cent=           7 NGrid=          24
         NMat0=    1 NMatS0=      1 NMatT0=    0 NMatD0=    1 NMtDS0=    0 NMtDT0=    0
 Symmetry not used in FoFCou.
   1 Symmetry operations used in ECPInt.
 ECPInt:  NShTT=   16290 NPrTT=   49128 LenC2=   16291 LenP2D=   49128.
 LDataN:  DoStor=T MaxTD1= 7 Len=  274
 FoFJK:  IHMeth= 1 ICntrl=    6127 DoSepK=F KAlg= 0 I1Cent=           0 FoldK=F
 IRaf=         1 NMat=       1 IRICut=       1 DoRegI=T DoRafI=F ISym2E= 0 IDoP0=0 IntGTp=1.
          There are     3 degrees of freedom in the 1st order CPHF.  IDoFFX=0 NUNeed=     3.
      3 vectors produced by pass  0 Test12= 5.87D-13 3.33D-08 XBig12= 1.16D+01 7.92D-01.
 AX will form     3 AO Fock derivatives at one time.
      3 vectors produced by pass  1 Test12= 5.87D-13 3.33D-08 XBig12= 1.23D-01 1.24D-01.
      3 vectors produced by pass  2 Test12= 5.87D-13 3.33D-08 XBig12= 2.06D-03 8.53D-03.
      3 vectors produced by pass  3 Test12= 5.87D-13 3.33D-08 XBig12= 1.66D-05 7.54D-04.
      3 vectors produced by pass  4 Test12= 5.87D-13 3.33D-08 XBig12= 1.85D-07 8.83D-05.
      3 vectors produced by pass  5 Test12= 5.87D-13 3.33D-08 XBig12= 2.29D-09 1.03D-05.
      3 vectors produced by pass  6 Test12= 5.87D-13 3.33D-08 XBig12= 2.15D-11 7.71D-07.
      3 vectors produced by pass  7 Test12= 5.87D-13 3.33D-08 XBig12= 1.79D-13 9.01D-08.
 InvSVY:  IOpt=1 It=  1 EMax= 4.44D-16
 Solved reduced A of dimension    24 with     3 vectors.
 Calculating GIAO nuclear magnetic shielding tensors.
 SCF GIAO Magnetic shielding tensor (ppm):
      1  C    Isotropic =   160.6308   Anisotropy =    22.2397
   XX=   152.2642   YX=    -8.3313   ZX=     3.0584
   XY=    -1.6370   YY=   173.6556   ZY=    -6.9948
   XZ=     3.2241   YZ=     0.8821   ZZ=   155.9726
   Eigenvalues:   150.0782   156.3569   175.4572
      2  C    Isotropic =   137.2433   Anisotropy =    20.3163
   XX=   136.0027   YX=     1.7700   ZX=     4.6726
   XY=     0.6844   YY=   137.3291   ZY=     9.8331
   XZ=     0.6068   YZ=    14.9625   ZZ=   138.3979
   Eigenvalues:   125.3687   135.5736   150.7875
      3  C    Isotropic =   155.6372   Anisotropy =    38.2896
   XX=   144.7080   YX=    -1.5232   ZX=   -11.8094
   XY=    -1.9408   YY=   150.7957   ZY=    -6.2215
   XZ=   -17.3858   YZ=   -16.9311   ZZ=   171.4078
   Eigenvalues:   135.3108   150.4371   181.1636
      4  C    Isotropic =    -6.4488   Anisotropy =   117.9444
   XX=    54.3254   YX=   -37.0829   ZX=   -22.4254
   XY=   -51.9799   YY=  -110.6586   ZY=   -21.0405
   XZ=   -11.8814   YZ=     8.7819   ZZ=    36.9868
   Eigenvalues:  -122.5608    31.0336    72.1808
      5  O    Isotropic =  -142.3818   Anisotropy =   625.8178
   XX=   118.7710   YX=   -74.8288   ZX=  -266.0244
   XY=   -79.9452   YY=  -338.7881   ZY=   114.6892
   XZ=  -228.7682   YZ=    94.4325   ZZ=  -207.1282
   Eigenvalues:  -406.3185  -295.6569   274.8301
      6  O    Isotropic =   115.2613   Anisotropy =   199.8235
   XX=   103.9919   YX=   -26.1720   ZX=   -77.6111
   XY=    29.9088   YY=   245.3608   ZY=    17.5422
   XZ=   -80.5003   YZ=   -66.3134   ZZ=    -3.5690
   Eigenvalues:   -46.8710   144.1778   248.4769
      7  C    Isotropic =    19.4725   Anisotropy =   223.2527
   XX=   -80.9064   YX=    15.6879   ZX=    43.6218
   XY=    20.1915   YY=   -13.4567   ZY=    38.6095
   XZ=    41.8674   YZ=    32.1546   ZZ=   152.7805
   Eigenvalues:   -90.3363   -19.5539   168.3076
      8  C    Isotropic =    36.2094   Anisotropy =   214.4786
   XX=   -12.9254   YX=   -36.0006   ZX=    47.4743
   XY=   -41.9578   YY=   -34.0837   ZY=    59.6423
   XZ=    42.6982   YZ=    61.9022   ZZ=   155.6373
   Eigenvalues:   -87.4458    16.8790   179.1951
      9  C    Isotropic =    37.0996   Anisotropy =   213.3862
   XX=    13.3629   YX=    46.2112   ZX=    21.5250
   XY=    45.0932   YY=   -65.7070   ZY=    49.5528
   XZ=    22.2390   YZ=    47.6445   ZZ=   163.6429
   Eigenvalues:   -91.6469    23.5886   179.3571
     10  C    Isotropic =    38.7564   Anisotropy =   216.1960
   XX=   -77.6486   YX=    22.3368   ZX=    45.3041
   XY=    25.2862   YY=    27.9555   ZY=    32.5018
   XZ=    47.5416   YZ=    31.7260   ZZ=   165.9622
   Eigenvalues:   -88.9613    22.3434   182.8871
     11  C    Isotropic =    37.0652   Anisotropy =   213.6527
   XX=   -13.5220   YX=   -44.3116   ZX=    48.2340
   XY=   -43.5690   YY=   -29.9997   ZY=    59.6000
   XZ=    49.0235   YZ=    62.5418   ZZ=   154.7172
   Eigenvalues:   -91.2375    22.9327   179.5003
     12  C    Isotropic =    40.3453   Anisotropy =   210.4747
   XX=    15.2885   YX=    43.4043   ZX=    20.8542
   XY=    36.0800   YY=   -58.3016   ZY=    51.0946
   XZ=    20.7023   YZ=    52.2723   ZZ=   164.0490
   Eigenvalues:   -82.2214    22.5955   180.6618
     13  H    Isotropic =    29.5178   Anisotropy =     8.3611
   XX=    27.4930   YX=    -0.1104   ZX=    -0.1345
   XY=     0.5465   YY=    30.0532   ZY=    -4.6757
   XZ=     0.3179   YZ=    -4.3961   ZZ=    31.0071
   Eigenvalues:    25.9372    27.5243    35.0918
     14  H    Isotropic =    30.8225   Anisotropy =     8.0944
   XX=    29.2175   YX=     1.7768   ZX=     0.9579
   XY=     1.7213   YY=    34.2603   ZY=     2.4886
   XZ=    -0.2562   YZ=     3.9609   ZZ=    28.9896
   Eigenvalues:    27.3377    28.9109    36.2187
     15  H    Isotropic =    30.7047   Anisotropy =     8.3578
   XX=    34.3645   YX=    -3.3083   ZX=    -1.2564
   XY=    -3.1054   YY=    30.6455   ZY=    -0.5758
   XZ=    -0.9363   YZ=    -0.1644   ZZ=    27.1039
   Eigenvalues:    26.6858    29.1516    36.2765
     16  H    Isotropic =    29.6052   Anisotropy =     7.7058
   XX=    26.6636   YX=    -1.0006   ZX=    -0.7599
   XY=    -1.8173   YY=    33.2767   ZY=    -1.4055
   XZ=    -1.9237   YZ=    -4.3106   ZZ=    28.8754
   Eigenvalues:    25.1674    28.9059    34.7424
     17  H    Isotropic =    30.9380   Anisotropy =     7.7218
   XX=    27.6157   YX=     0.9396   ZX=     1.6620
   XY=     0.3958   YY=    29.5642   ZY=     1.6908
   XZ=    -0.6492   YZ=     1.5315   ZZ=    35.6342
   Eigenvalues:    27.4088    29.3194    36.0859
     18  H    Isotropic =    30.5755   Anisotropy =     9.3000
   XX=    33.7404   YX=    -0.0847   ZX=    -3.7220
   XY=    -0.0084   YY=    28.1798   ZY=    -0.8091
   XZ=    -5.4219   YZ=    -1.0121   ZZ=    29.8064
   Eigenvalues:    26.4373    28.5138    36.7755
     19  H    Isotropic =    26.0092   Anisotropy =    12.1303
   XX=    25.1497   YX=     2.3675   ZX=     2.0348
   XY=     4.7059   YY=    28.3130   ZY=     6.7823
   XZ=     3.0432   YZ=     3.6414   ZZ=    24.5648
   Eigenvalues:    20.8996    23.0318    34.0960
     20  H    Isotropic =    23.1245   Anisotropy =    11.3624
   XX=    27.3709   YX=    -5.8789   ZX=     0.4482
   XY=    -4.4010   YY=    22.7577   ZY=     0.1003
   XZ=    -0.3830   YZ=     0.4509   ZZ=    19.2449
   Eigenvalues:    19.0710    19.6031    30.6994
     21  H    Isotropic =    23.8336   Anisotropy =     6.6387
   XX=    27.5844   YX=     1.1163   ZX=    -1.5120
   XY=     1.1325   YY=    22.7066   ZY=    -0.7146
   XZ=    -1.7384   YZ=    -0.6671   ZZ=    21.2100
   Eigenvalues:    20.7247    22.5168    28.2595
     22  H    Isotropic =    23.9984   Anisotropy =     5.5265
   XX=    23.0973   YX=     0.4441   ZX=    -0.4475
   XY=     0.5322   YY=    27.1985   ZY=    -1.5409
   XZ=    -0.3727   YZ=    -1.5784   ZZ=    21.6994
   Eigenvalues:    21.2468    23.0657    27.6827
     23  H    Isotropic =    23.8748   Anisotropy =     6.5382
   XX=    26.5764   YX=    -2.5546   ZX=    -0.4759
   XY=    -2.6132   YY=    24.1769   ZY=    -0.3466
   XZ=    -0.5024   YZ=    -0.2791   ZZ=    20.8711
   Eigenvalues:    20.7105    22.6803    28.2336
     24  H    Isotropic =    23.7483   Anisotropy =    12.1883
   XX=    30.4866   YX=     3.1579   ZX=    -2.9479
   XY=     1.9433   YY=    20.6861   ZY=    -0.8587
   XZ=    -2.7634   YZ=    -1.0482   ZZ=    20.0722
   Eigenvalues:    19.2394    20.1317    31.8738
 End of Minotr F.D. properties file   721 does not exist.
 End of Minotr F.D. properties file   722 does not exist.
 End of Minotr F.D. properties file   788 does not exist.

 **********************************************************************

            Population analysis using the SCF Density.

 **********************************************************************

 Orbital symmetries:
       Occupied  (A) (A) (A) (A) (A) (A) (A) (A) (A) (A) (A) (A)
                 (A) (A) (A) (A) (A) (A) (A) (A) (A) (A) (A) (A)
                 (A) (A) (A) (A) (A) (A) (A) (A) (A) (A) (A) (A)
                 (A) (A) (A) (A) (A) (A) (A) (A)
       Virtual   (A) (A) (A) (A) (A) (A) (A) (A) (A) (A) (A) (A)
                 (A) (A) (A) (A) (A) (A) (A) (A) (A) (A) (A) (A)
                 (A) (A) (A) (A) (A) (A) (A) (A) (A) (A) (A) (A)
                 (A) (A) (A) (A) (A) (A) (A) (A) (A) (A) (A) (A)
                 (A) (A) (A) (A) (A) (A) (A) (A) (A) (A) (A) (A)
                 (A) (A) (A) (A) (A) (A) (A) (A) (A) (A) (A) (A)
                 (A) (A) (A) (A) (A) (A) (A) (A) (A) (A) (A) (A)
                 (A) (A) (A) (A) (A) (A) (A) (A) (A) (A) (A) (A)
                 (A) (A) (A) (A) (A) (A) (A) (A) (A) (A) (A) (A)
                 (A) (A) (A) (A) (A) (A) (A) (A) (A) (A) (A) (A)
                 (A) (A) (A) (A) (A) (A) (A) (A) (A) (A) (A) (A)
                 (A) (A) (A) (A) (A) (A) (A) (A) (A) (A) (A) (A)
                 (A) (A) (A) (A) (A) (A) (A) (A) (A) (A) (A) (A)
                 (A) (A) (A) (A) (A) (A) (A) (A) (A) (A) (A) (A)
                 (A) (A) (A) (A) (A) (A) (A) (A) (A) (A) (A) (A)
                 (A) (A) (A) (A) (A) (A) (A) (A) (A) (A) (A) (A)
                 (A) (A) (A) (A) (A) (A) (A) (A) (A) (A) (A) (A)
                 (A) (A) (A) (A) (A) (A) (A) (A) (A) (A) (A) (A)
                 (A) (A) (A) (A) (A) (A) (A) (A) (A) (A) (A) (A)
                 (A) (A) (A) (A) (A) (A) (A) (A) (A) (A) (A) (A)
                 (A) (A) (A) (A) (A) (A) (A) (A) (A) (A) (A) (A)
                 (A) (A) (A) (A) (A) (A) (A) (A) (A) (A) (A) (A)
                 (A) (A) (A) (A) (A) (A) (A) (A) (A) (A) (A) (A)
                 (A) (A) (A) (A) (A) (A) (A) (A) (A) (A) (A) (A)
                 (A) (A) (A) (A) (A) (A) (A) (A) (A) (A) (A) (A)
                 (A) (A) (A) (A) (A) (A) (A) (A) (A) (A) (A) (A)
                 (A) (A) (A) (A) (A) (A) (A) (A) (A) (A) (A) (A)
                 (A) (A) (A) (A) (A) (A) (A) (A) (A) (A) (A) (A)
                 (A) (A) (A) (A) (A) (A) (A) (A) (A) (A) (A) (A)
                 (A) (A) (A) (A) (A) (A) (A) (A) (A) (A) (A) (A)
                 (A) (A) (A) (A) (A) (A) (A) (A) (A) (A) (A) (A)
                 (A) (A) (A) (A) (A) (A) (A) (A) (A) (A) (A) (A)
                 (A) (A) (A) (A) (A) (A) (A) (A) (A) (A) (A) (A)
                 (A) (A) (A) (A)
 The electronic state is 1-A.
 Alpha  occ. eigenvalues --  -19.67661 -19.62014 -10.67636 -10.57364 -10.55755
 Alpha  occ. eigenvalues --  -10.54345 -10.54330 -10.54262 -10.54193 -10.54169
 Alpha  occ. eigenvalues --  -10.53439 -10.52947  -1.24379  -1.14628  -0.97556
 Alpha  occ. eigenvalues --   -0.92568  -0.84788  -0.83594  -0.78923  -0.75745
 Alpha  occ. eigenvalues --   -0.69988  -0.68912  -0.64662  -0.60712  -0.58635
 Alpha  occ. eigenvalues --   -0.56755  -0.54837  -0.52831  -0.51981  -0.50997
 Alpha  occ. eigenvalues --   -0.49979  -0.49072  -0.46776  -0.45850  -0.44244
 Alpha  occ. eigenvalues --   -0.44211  -0.43391  -0.41966  -0.40786  -0.39145
 Alpha  occ. eigenvalues --   -0.38987  -0.35858  -0.31162  -0.30423
 Alpha virt. eigenvalues --    0.01120   0.01878   0.05895   0.06217   0.07896
 Alpha virt. eigenvalues --    0.08947   0.10444   0.11394   0.11926   0.12159
 Alpha virt. eigenvalues --    0.13959   0.14074   0.15164   0.16555   0.17637
 Alpha virt. eigenvalues --    0.18698   0.18870   0.19640   0.21130   0.21363
 Alpha virt. eigenvalues --    0.22455   0.23068   0.24297   0.24752   0.25386
 Alpha virt. eigenvalues --    0.25502   0.27084   0.27426   0.28447   0.29582
 Alpha virt. eigenvalues --    0.30101   0.31053   0.31680   0.32956   0.34849
 Alpha virt. eigenvalues --    0.35595   0.36141   0.36408   0.37827   0.37898
 Alpha virt. eigenvalues --    0.38402   0.40398   0.40778   0.41195   0.41912
 Alpha virt. eigenvalues --    0.42114   0.43570   0.44163   0.44405   0.44727
 Alpha virt. eigenvalues --    0.45804   0.46037   0.46535   0.47114   0.48135
 Alpha virt. eigenvalues --    0.49366   0.49742   0.50697   0.51653   0.51856
 Alpha virt. eigenvalues --    0.52442   0.52967   0.53951   0.54376   0.55486
 Alpha virt. eigenvalues --    0.55985   0.57463   0.58548   0.60185   0.61457
 Alpha virt. eigenvalues --    0.63064   0.63855   0.65110   0.66095   0.67512
 Alpha virt. eigenvalues --    0.68958   0.69697   0.70260   0.71690   0.73035
 Alpha virt. eigenvalues --    0.74588   0.75391   0.76815   0.77054   0.78607
 Alpha virt. eigenvalues --    0.79649   0.80366   0.81476   0.83565   0.84529
 Alpha virt. eigenvalues --    0.86894   0.87102   0.89888   0.90313   0.92047
 Alpha virt. eigenvalues --    0.92786   0.93118   0.94954   0.96293   0.97573
 Alpha virt. eigenvalues --    0.99314   1.00912   1.01731   1.03015   1.04852
 Alpha virt. eigenvalues --    1.05304   1.07324   1.08680   1.09390   1.10677
 Alpha virt. eigenvalues --    1.12272   1.12991   1.13796   1.15574   1.16697
 Alpha virt. eigenvalues --    1.18068   1.20709   1.23564   1.24342   1.25901
 Alpha virt. eigenvalues --    1.27379   1.28848   1.29159   1.30375   1.31267
 Alpha virt. eigenvalues --    1.32625   1.35051   1.35487   1.37889   1.41206
 Alpha virt. eigenvalues --    1.42439   1.43125   1.44434   1.47249   1.48636
 Alpha virt. eigenvalues --    1.49879   1.51156   1.52231   1.53151   1.54891
 Alpha virt. eigenvalues --    1.55647   1.57124   1.58969   1.59796   1.60222
 Alpha virt. eigenvalues --    1.61285   1.62381   1.63587   1.65281   1.65496
 Alpha virt. eigenvalues --    1.66594   1.66872   1.67769   1.68695   1.70165
 Alpha virt. eigenvalues --    1.70319   1.72321   1.73139   1.73912   1.75269
 Alpha virt. eigenvalues --    1.76140   1.78492   1.79474   1.79770   1.82574
 Alpha virt. eigenvalues --    1.84941   1.89261   1.90257   1.93415   1.94073
 Alpha virt. eigenvalues --    1.95482   1.95668   1.99621   2.00235   2.01231
 Alpha virt. eigenvalues --    2.03578   2.04266   2.07137   2.07471   2.08630
 Alpha virt. eigenvalues --    2.11375   2.12810   2.14347   2.15290   2.16053
 Alpha virt. eigenvalues --    2.17776   2.18653   2.20771   2.21518   2.22561
 Alpha virt. eigenvalues --    2.23978   2.26226   2.27209   2.29200   2.31340
 Alpha virt. eigenvalues --    2.32948   2.34503   2.35429   2.37458   2.38542
 Alpha virt. eigenvalues --    2.40077   2.40779   2.42401   2.45319   2.45649
 Alpha virt. eigenvalues --    2.47887   2.49242   2.50538   2.53431   2.54345
 Alpha virt. eigenvalues --    2.55639   2.56207   2.57005   2.58471   2.60043
 Alpha virt. eigenvalues --    2.60536   2.63367   2.63626   2.64868   2.65078
 Alpha virt. eigenvalues --    2.67527   2.68117   2.69392   2.70161   2.70801
 Alpha virt. eigenvalues --    2.71830   2.73069   2.74897   2.75714   2.76008
 Alpha virt. eigenvalues --    2.78402   2.78786   2.79961   2.81635   2.82579
 Alpha virt. eigenvalues --    2.83478   2.84211   2.84968   2.86613   2.86782
 Alpha virt. eigenvalues --    2.88694   2.89956   2.91054   2.92606   2.94000
 Alpha virt. eigenvalues --    2.94830   2.98191   2.98304   3.01594   3.02490
 Alpha virt. eigenvalues --    3.05473   3.05848   3.07578   3.09191   3.10487
 Alpha virt. eigenvalues --    3.12641   3.13048   3.15187   3.15459   3.16800
 Alpha virt. eigenvalues --    3.17107   3.17557   3.18452   3.20348   3.21246
 Alpha virt. eigenvalues --    3.21538   3.23777   3.24602   3.26671   3.28299
 Alpha virt. eigenvalues --    3.28970   3.29089   3.29847   3.31306   3.32054
 Alpha virt. eigenvalues --    3.32576   3.33038   3.33530   3.36714   3.37648
 Alpha virt. eigenvalues --    3.38320   3.39099   3.39982   3.41494   3.42559
 Alpha virt. eigenvalues --    3.45380   3.46700   3.47748   3.47895   3.48673
 Alpha virt. eigenvalues --    3.50143   3.50714   3.51779   3.53144   3.54510
 Alpha virt. eigenvalues --    3.54911   3.56807   3.59289   3.61002   3.62874
 Alpha virt. eigenvalues --    3.65750   3.67598   3.68771   3.69539   3.72213
 Alpha virt. eigenvalues --    3.73124   3.78466   3.80161   3.82286   3.84834
 Alpha virt. eigenvalues --    3.88646   3.91363   3.92946   3.93467   3.97655
 Alpha virt. eigenvalues --    4.00881   4.03497   4.03991   4.05274   4.07902
 Alpha virt. eigenvalues --    4.08279   4.11307   4.13449   4.14193   4.16197
 Alpha virt. eigenvalues --    4.18219   4.18622   4.19990   4.21447   4.22619
 Alpha virt. eigenvalues --    4.24245   4.26475   4.28112   4.31035   4.32304
 Alpha virt. eigenvalues --    4.36856   4.37380   4.38184   4.40590   4.43315
 Alpha virt. eigenvalues --    4.43920   4.52245   4.53019   4.56739   4.57677
 Alpha virt. eigenvalues --    4.60592   4.63654   4.67159   4.67619   4.72064
 Alpha virt. eigenvalues --    4.75147   4.84381   4.85251   4.87461   4.89673
 Alpha virt. eigenvalues --    4.92559   5.02968   5.07208   5.17482   5.19498
 Alpha virt. eigenvalues --    5.20060   5.21820   5.23571   5.32342   5.35646
 Alpha virt. eigenvalues --    5.40102   5.42541   5.46493   5.53951   5.61055
 Alpha virt. eigenvalues --    5.63057   5.76406   5.88920   5.90377   6.21322
 Alpha virt. eigenvalues --    6.26188   6.35920   6.39062   6.48238   6.51227
 Alpha virt. eigenvalues --    6.68946   6.71734   6.78776   6.83069   6.91924
 Alpha virt. eigenvalues --    7.10464   7.13896   7.31016  22.23490  22.55860
 Alpha virt. eigenvalues --   22.60604  22.68815  22.74598  22.89015  22.93562
 Alpha virt. eigenvalues --   22.96424  23.31629  23.47428  44.02936  44.09257
          Condensed to atoms (all electrons):
               1          2          3          4          5          6
     1  C    5.285936   0.222202  -0.093161  -0.065150   0.005720   0.004493
     2  C    0.222202   5.658525   0.316271   0.185301  -0.090486  -0.100199
     3  C   -0.093161   0.316271   5.160125  -0.056735   0.005495  -0.002634
     4  C   -0.065150   0.185301  -0.056735   4.650332   0.673799   0.364967
     5  O    0.005720  -0.090486   0.005495   0.673799   7.810109  -0.093498
     6  O    0.004493  -0.100199  -0.002634   0.364967  -0.093498   7.972321
     7  C   -0.087939   0.108296  -0.108441  -0.031906  -0.009641  -0.031315
     8  C    0.027293  -0.037709  -0.024966  -0.016973  -0.001960   0.008007
     9  C   -0.002485   0.009640   0.005928  -0.000673   0.000426  -0.006194
    10  C    0.001276  -0.005039  -0.000684   0.000707  -0.000092   0.000669
    11  C   -0.003608   0.014860   0.000242  -0.001903   0.000200  -0.000483
    12  C   -0.031858  -0.046406   0.003754   0.003725   0.000038   0.000870
    13  H    0.415765  -0.020727   0.013661  -0.020654   0.005680   0.000317
    14  H    0.440282  -0.056258  -0.013587   0.018248   0.000778  -0.000124
    15  H    0.407062  -0.028465  -0.011372  -0.016836   0.000893   0.000126
    16  H    0.012473   0.017684   0.394065  -0.017683   0.000022  -0.000756
    17  H   -0.017687  -0.036485   0.415724   0.012626  -0.000485   0.000403
    18  H   -0.010436  -0.044290   0.412831  -0.010366   0.000274   0.000794
    19  H   -0.001180   0.014931  -0.002097  -0.023181   0.006856   0.293474
    20  H    0.000519   0.025260  -0.011878  -0.004812   0.000225   0.009584
    21  H   -0.000009  -0.000191   0.000024  -0.000045   0.000003  -0.000136
    22  H   -0.000003   0.000037  -0.000005   0.000008  -0.000000   0.000002
    23  H    0.000061  -0.000281   0.000003  -0.000017  -0.000000  -0.000001
    24  H    0.000248  -0.011085  -0.000135  -0.001279  -0.000624  -0.000006
               7          8          9         10         11         12
     1  C   -0.087939   0.027293  -0.002485   0.001276  -0.003608  -0.031858
     2  C    0.108296  -0.037709   0.009640  -0.005039   0.014860  -0.046406
     3  C   -0.108441  -0.024966   0.005928  -0.000684   0.000242   0.003754
     4  C   -0.031906  -0.016973  -0.000673   0.000707  -0.001903   0.003725
     5  O   -0.009641  -0.001960   0.000426  -0.000092   0.000200   0.000038
     6  O   -0.031315   0.008007  -0.006194   0.000669  -0.000483   0.000870
     7  C    5.447403   0.339103  -0.002366  -0.076711  -0.032244   0.440465
     8  C    0.339103   5.203326   0.422066   0.010743  -0.100370   0.002479
     9  C   -0.002366   0.422066   4.965807   0.477705  -0.003572  -0.083307
    10  C   -0.076711   0.010743   0.477705   4.912756   0.500102  -0.018106
    11  C   -0.032244  -0.100370  -0.003572   0.500102   4.914766   0.497706
    12  C    0.440465   0.002479  -0.083307  -0.018106   0.497706   5.041878
    13  H   -0.006821  -0.002227   0.000127  -0.000170   0.000855  -0.003180
    14  H   -0.005697   0.001562  -0.000168   0.000069  -0.000652  -0.007671
    15  H    0.021422  -0.000812   0.000031  -0.000005   0.000022   0.000567
    16  H   -0.043254   0.013477   0.001372   0.000142  -0.000080  -0.000695
    17  H   -0.004210  -0.009390   0.000139  -0.000175   0.000011   0.007064
    18  H    0.024172   0.000830  -0.000052   0.000001   0.000011  -0.001131
    19  H    0.001830  -0.000571  -0.000026   0.000003  -0.000002  -0.000013
    20  H   -0.057992   0.400346  -0.011556   0.003726  -0.000748   0.003761
    21  H    0.008003  -0.034960   0.410336  -0.034974   0.004512  -0.000264
    22  H    0.000094   0.006378  -0.036416   0.411456  -0.035141   0.005118
    23  H    0.007612  -0.000317   0.004316  -0.034141   0.407373  -0.032132
    24  H   -0.027513   0.003265  -0.000068   0.002358  -0.015489   0.400290
              13         14         15         16         17         18
     1  C    0.415765   0.440282   0.407062   0.012473  -0.017687  -0.010436
     2  C   -0.020727  -0.056258  -0.028465   0.017684  -0.036485  -0.044290
     3  C    0.013661  -0.013587  -0.011372   0.394065   0.415724   0.412831
     4  C   -0.020654   0.018248  -0.016836  -0.017683   0.012626  -0.010366
     5  O    0.005680   0.000778   0.000893   0.000022  -0.000485   0.000274
     6  O    0.000317  -0.000124   0.000126  -0.000756   0.000403   0.000794
     7  C   -0.006821  -0.005697   0.021422  -0.043254  -0.004210   0.024172
     8  C   -0.002227   0.001562  -0.000812   0.013477  -0.009390   0.000830
     9  C    0.000127  -0.000168   0.000031   0.001372   0.000139  -0.000052
    10  C   -0.000170   0.000069  -0.000005   0.000142  -0.000175   0.000001
    11  C    0.000855  -0.000652   0.000022  -0.000080   0.000011   0.000011
    12  C   -0.003180  -0.007671   0.000567  -0.000695   0.007064  -0.001131
    13  H    0.484089  -0.029719  -0.015031  -0.000336  -0.000292  -0.000052
    14  H   -0.029719   0.506125  -0.020217  -0.000128   0.001601   0.000380
    15  H   -0.015031  -0.020217   0.497604   0.000031  -0.000037   0.003357
    16  H   -0.000336  -0.000128   0.000031   0.507766  -0.020989  -0.021844
    17  H   -0.000292   0.001601  -0.000037  -0.020989   0.516247  -0.024160
    18  H   -0.000052   0.000380   0.003357  -0.021844  -0.024160   0.515019
    19  H   -0.000100   0.000035  -0.000035  -0.000054   0.000114  -0.000177
    20  H   -0.000040  -0.000039  -0.000015  -0.000466   0.000465   0.000093
    21  H    0.000000  -0.000001  -0.000000  -0.000012   0.000014  -0.000001
    22  H   -0.000000   0.000002   0.000000  -0.000000  -0.000002   0.000000
    23  H    0.000012   0.000010  -0.000001  -0.000002   0.000003  -0.000000
    24  H   -0.004299  -0.006183   0.000900   0.000008   0.000299  -0.000053
              19         20         21         22         23         24
     1  C   -0.001180   0.000519  -0.000009  -0.000003   0.000061   0.000248
     2  C    0.014931   0.025260  -0.000191   0.000037  -0.000281  -0.011085
     3  C   -0.002097  -0.011878   0.000024  -0.000005   0.000003  -0.000135
     4  C   -0.023181  -0.004812  -0.000045   0.000008  -0.000017  -0.001279
     5  O    0.006856   0.000225   0.000003  -0.000000  -0.000000  -0.000624
     6  O    0.293474   0.009584  -0.000136   0.000002  -0.000001  -0.000006
     7  C    0.001830  -0.057992   0.008003   0.000094   0.007612  -0.027513
     8  C   -0.000571   0.400346  -0.034960   0.006378  -0.000317   0.003265
     9  C   -0.000026  -0.011556   0.410336  -0.036416   0.004316  -0.000068
    10  C    0.000003   0.003726  -0.034974   0.411456  -0.034141   0.002358
    11  C   -0.000002  -0.000748   0.004512  -0.035141   0.407373  -0.015489
    12  C   -0.000013   0.003761  -0.000264   0.005118  -0.032132   0.400290
    13  H   -0.000100  -0.000040   0.000000  -0.000000   0.000012  -0.004299
    14  H    0.000035  -0.000039  -0.000001   0.000002   0.000010  -0.006183
    15  H   -0.000035  -0.000015  -0.000000   0.000000  -0.000001   0.000900
    16  H   -0.000054  -0.000466  -0.000012  -0.000000  -0.000002   0.000008
    17  H    0.000114   0.000465   0.000014  -0.000002   0.000003   0.000299
    18  H   -0.000177   0.000093  -0.000001   0.000000  -0.000000  -0.000053
    19  H    0.374288  -0.000228   0.000003  -0.000000   0.000000   0.000002
    20  H   -0.000228   0.471490  -0.003877  -0.000242   0.000058  -0.000174
    21  H    0.000003  -0.003877   0.512828  -0.004093  -0.000284   0.000073
    22  H   -0.000000  -0.000242  -0.004093   0.514407  -0.004091  -0.000274
    23  H    0.000000   0.000058  -0.000284  -0.004091   0.513304  -0.003548
    24  H    0.000002  -0.000174   0.000073  -0.000274  -0.003548   0.495932
 Mulliken charges:
               1
     1  C   -0.509815
     2  C   -0.095385
     3  C   -0.402431
     4  C    0.358499
     5  O   -0.313732
     6  O   -0.420682
     7  C    0.127649
     8  C   -0.208621
     9  C   -0.151010
    10  C   -0.151616
    11  C   -0.146368
    12  C   -0.182952
    13  H    0.183139
    14  H    0.171354
    15  H    0.160810
    16  H    0.159257
    17  H    0.159202
    18  H    0.154801
    19  H    0.336128
    20  H    0.176541
    21  H    0.143051
    22  H    0.142765
    23  H    0.142061
    24  H    0.167354
 Sum of Mulliken charges =  -0.00000
 Mulliken charges with hydrogens summed into heavy atoms:
               1
     1  C    0.005488
     2  C   -0.095385
     3  C    0.070829
     4  C    0.358499
     5  O   -0.313732
     6  O   -0.084553
     7  C    0.127649
     8  C   -0.032080
     9  C   -0.007959
    10  C   -0.008851
    11  C   -0.004307
    12  C   -0.015598
 Electronic spatial extent (au):  <R**2>=           2012.7112
 Charge=             -0.0000 electrons
 Dipole moment (field-independent basis, Debye):
    X=              0.5746    Y=             -0.7156    Z=              1.3080  Tot=              1.5978
 Quadrupole moment (field-independent basis, Debye-Ang):
   XX=            -68.2208   YY=            -64.7736   ZZ=            -77.0243
   XY=              2.8334   XZ=             -4.3523   YZ=              2.1460
 Traceless Quadrupole moment (field-independent basis, Debye-Ang):
   XX=              1.7854   YY=              5.2326   ZZ=             -7.0181
   XY=              2.8334   XZ=             -4.3523   YZ=              2.1460
 Octapole moment (field-independent basis, Debye-Ang**2):
  XXX=             -0.1922  YYY=            -14.8422  ZZZ=              1.5682  XYY=             -8.2184
  XXY=            -13.7512  XXZ=             -1.9091  XZZ=             -5.6605  YZZ=             -6.0594
  YYZ=             -9.9499  XYZ=            -12.7141
 Hexadecapole moment (field-independent basis, Debye-Ang**3):
 XXXX=          -1564.2813 YYYY=           -579.8052 ZZZZ=           -421.2159 XXXY=             33.8793
 XXXZ=            -25.7733 YYYX=             36.3318 YYYZ=              9.4461 ZZZX=              1.4158
 ZZZY=             11.3369 XXYY=           -338.4561 XXZZ=           -379.8395 YYZZ=           -160.6959
 XXYZ=             15.5519 YYXZ=             23.1849 ZZXY=             19.4384
 N-N= 7.018619352578D+02 E-N=-2.658973837002D+03  KE= 5.361939754571D+02
 Unable to Open any file for archive entry.
 1\1\GINC-NODE04\SP\RM062X\def2TZVP\C10H12O2\SVSS\29-Jan-2024\0\\# nmr=
 giao m062x/def2tzvp\\Ac5_rdkit_conf_3_SP_NMR\\0,1\C,0,-1.426577,1.8852
 98,0.262769\C,0,-1.022308,0.422408,0.427874\C,0,-1.404101,-0.04817,1.8
 38882\C,0,-1.774268,-0.382772,-0.630252\O,0,-2.202813,0.059444,-1.6580
 05\O,0,-1.907135,-1.684903,-0.307582\C,0,0.474354,0.187226,0.178509\C,
 0,1.025446,-1.08098,0.374013\C,0,2.375212,-1.312843,0.164418\C,0,3.207
 689,-0.279962,-0.245304\C,0,2.672761,0.981402,-0.447134\C,0,1.317919,1
 .211669,-0.24073\H,0,-1.241906,2.241416,-0.74835\H,0,-0.879808,2.50559
 8,0.973389\H,0,-2.492915,1.993456,0.460885\H,0,-1.153888,-1.092471,2.0
 05731\H,0,-0.869472,0.558692,2.570218\H,0,-2.475857,0.075009,2.002742\
 H,0,-2.350617,-2.113507,-1.053886\H,0,0.390287,-1.900657,0.682412\H,0,
 2.777964,-2.305129,0.322043\H,0,4.262403,-0.4595,-0.407611\H,0,3.30805
 4,1.79606,-0.770145\H,0,0.928575,2.205049,-0.411005\\Version=AS64L-G16
 RevC.01\State=1-A\HF=-538.7387175\RMSD=8.118e-09\Dipole=0.2260539,-0.2
 81525,0.51462\Quadrupole=1.3274162,3.8903403,-5.2177565,2.1065576,-3.2
 358189,1.5955109\PG=C01 [X(C10H12O2)]\\@
 The archive entry for this job was punched.


 YOU WILL NEVER "FIND" TIME FOR ANYTHING.
 IF YOU WANT TIME, YOU MUST MAKE IT.

                        -- CHARLES BIXTON
 Job cpu time:       0 days  0 hours 40 minutes 30.6 seconds.
 Elapsed time:       0 days  0 hours  5 minutes 14.8 seconds.
 File lengths (MBytes):  RWF=    118 Int=      0 D2E=      0 Chk=     16 Scr=      1
 Normal termination of Gaussian 16 at Mon Jan 29 12:54:46 2024.
