Job Start Time: Mon Jan 29 09:34:00 MST 2024
SLURM Job ID: 229512
SLURM Job Name: Ac2_rdkit_conf_4
 Entering Gaussian System, Link 0=/opt/apps/Gaussian/G16C/g16/g16
 Initial command:
 /opt/apps/Gaussian/G16C/g16/l1.exe "/tmp/Gau-2313201.inp" -scrdir="/tmp/"
 Entering Link 1 = /opt/apps/Gaussian/G16C/g16/l1.exe PID=   2313212.
  
 Copyright (c) 1988-2019, Gaussian, Inc.  All Rights Reserved.
  
 This is part of the Gaussian(R) 16 program.  It is based on
 the Gaussian(R) 09 system (copyright 2009, Gaussian, Inc.),
 the Gaussian(R) 03 system (copyright 2003, Gaussian, Inc.),
 the Gaussian(R) 98 system (copyright 1998, Gaussian, Inc.),
 the Gaussian(R) 94 system (copyright 1995, Gaussian, Inc.),
 the Gaussian 92(TM) system (copyright 1992, Gaussian, Inc.),
 the Gaussian 90(TM) system (copyright 1990, Gaussian, Inc.),
 the Gaussian 88(TM) system (copyright 1988, Gaussian, Inc.),
 the Gaussian 86(TM) system (copyright 1986, Carnegie Mellon
 University), and the Gaussian 82(TM) system (copyright 1983,
 Carnegie Mellon University). Gaussian is a federally registered
 trademark of Gaussian, Inc.
  
 This software contains proprietary and confidential information,
 including trade secrets, belonging to Gaussian, Inc.
  
 This software is provided under written license and may be
 used, copied, transmitted, or stored only in accord with that
 written license.
  
 The following legend is applicable only to US Government
 contracts under FAR:
  
                    RESTRICTED RIGHTS LEGEND
  
 Use, reproduction and disclosure by the US Government is
 subject to restrictions as set forth in subparagraphs (a)
 and (c) of the Commercial Computer Software - Restricted
 Rights clause in FAR 52.227-19.
  
 Gaussian, Inc.
 340 Quinnipiac St., Bldg. 40, Wallingford CT 06492
  
  
 ---------------------------------------------------------------
 Warning -- This program may not be used in any manner that
 competes with the business of Gaussian, Inc. or will provide
 assistance to any competitor of Gaussian, Inc.  The licensee
 of this program is prohibited from giving any competitor of
 Gaussian, Inc. access to this program.  By using this program,
 the user acknowledges that Gaussian, Inc. is engaged in the
 business of creating and licensing software in the field of
 computational chemistry and represents and warrants to the
 licensee that it is not a competitor of Gaussian, Inc. and that
 it will not use this program in any manner prohibited above.
 ---------------------------------------------------------------
  

 Cite this work as:
 Gaussian 16, Revision C.01,
 M. J. Frisch, G. W. Trucks, H. B. Schlegel, G. E. Scuseria, 
 M. A. Robb, J. R. Cheeseman, G. Scalmani, V. Barone, 
 G. A. Petersson, H. Nakatsuji, X. Li, M. Caricato, A. V. Marenich, 
 J. Bloino, B. G. Janesko, R. Gomperts, B. Mennucci, H. P. Hratchian, 
 J. V. Ortiz, A. F. Izmaylov, J. L. Sonnenberg, D. Williams-Young, 
 F. Ding, F. Lipparini, F. Egidi, J. Goings, B. Peng, A. Petrone, 
 T. Henderson, D. Ranasinghe, V. G. Zakrzewski, J. Gao, N. Rega, 
 G. Zheng, W. Liang, M. Hada, M. Ehara, K. Toyota, R. Fukuda, 
 J. Hasegawa, M. Ishida, T. Nakajima, Y. Honda, O. Kitao, H. Nakai, 
 T. Vreven, K. Throssell, J. A. Montgomery, Jr., J. E. Peralta, 
 F. Ogliaro, M. J. Bearpark, J. J. Heyd, E. N. Brothers, K. N. Kudin, 
 V. N. Staroverov, T. A. Keith, R. Kobayashi, J. Normand, 
 K. Raghavachari, A. P. Rendell, J. C. Burant, S. S. Iyengar, 
 J. Tomasi, M. Cossi, J. M. Millam, M. Klene, C. Adamo, R. Cammi, 
 J. W. Ochterski, R. L. Martin, K. Morokuma, O. Farkas, 
 J. B. Foresman, and D. J. Fox, Gaussian, Inc., Wallingford CT, 2019.
 
 ******************************************
 Gaussian 16:  AS64L-G16RevC.01  3-Jul-2019
                29-Jan-2024 
 ******************************************
 %nprocshared=8
 Will use up to    8 processors via shared memory.
 %mem=16GB
 ---------------------------------
 # m062x/def2tzvp opt freq=noraman
 ---------------------------------
 1/18=20,19=15,26=3,38=1/1,3;
 2/9=110,12=2,17=6,18=5,40=1/2;
 3/5=44,7=101,11=2,25=1,30=1,71=1,74=-55/1,2,3;
 4//1;
 5/5=2,38=5/2;
 6/7=2,8=2,9=2,10=2,28=1/1;
 7//1,2,3,16;
 1/18=20,19=15,26=3/3(2);
 2/9=110/2;
 99//99;
 2/9=110/2;
 3/5=44,7=101,11=2,25=1,30=1,71=1,74=-55/1,2,3;
 4/5=5,16=3,69=1/1;
 5/5=2,38=5/2;
 7//1,2,3,16;
 1/18=20,19=15,26=3/3(-5);
 2/9=110/2;
 6/7=2,8=2,9=2,10=2,19=2,28=1/1;
 99/9=1/99;
 ----------------
 Ac2_rdkit_conf_4
 ----------------
 Symbolic Z-matrix:
 Charge =  0 Multiplicity = 1
 C                    -2.6896    1.1387   -0.8614 
 C                    -1.9033    0.1252   -0.0157 
 C                    -2.2099    0.3806    1.4642 
 C                    -2.3053   -1.2892   -0.4482 
 O                    -0.5104    0.3938   -0.3198 
 C                     0.4739   -0.3269    0.2604 
 O                     0.3341   -1.2364    1.0615 
 N                     1.6719    0.122    -0.1913 
 C                     2.9257   -0.4515    0.2468 
 C                     4.0867    0.2525   -0.4258 
 O                     4.0133    1.1732   -1.226 
 O                     5.2843   -0.2412   -0.0545 
 H                    -2.4021    2.1654   -0.6063 
 H                    -3.7705    1.0367   -0.7184 
 H                    -2.468     1.0117   -1.9275 
 H                    -1.7295   -0.3566    2.1145 
 H                    -1.8372    1.3633    1.7744 
 H                    -3.2866    0.3383    1.6611 
 H                    -1.9998   -1.4809   -1.483 
 H                    -3.388    -1.4366   -0.3717 
 H                    -1.8266   -2.0567    0.1674 
 H                     1.669     0.8854   -0.8578 
 H                     2.933    -1.5126   -0.0193 
 H                     3.0004   -0.3329    1.3318 
 H                     5.9346    0.2953   -0.5554 
 

 GradGradGradGradGradGradGradGradGradGradGradGradGradGradGradGradGradGrad
 Berny optimization.
 Initialization pass.
                           ----------------------------
                           !    Initial Parameters    !
                           ! (Angstroms and Degrees)  !
 --------------------------                            --------------------------
 ! Name  Definition              Value          Derivative Info.                !
 --------------------------------------------------------------------------------
 ! R1    R(1,2)                  1.5364         estimate D2E/DX2                !
 ! R2    R(1,13)                 1.0963         estimate D2E/DX2                !
 ! R3    R(1,14)                 1.0951         estimate D2E/DX2                !
 ! R4    R(1,15)                 1.0963         estimate D2E/DX2                !
 ! R5    R(2,3)                  1.5328         estimate D2E/DX2                !
 ! R6    R(2,4)                  1.5327         estimate D2E/DX2                !
 ! R7    R(2,5)                  1.4508         estimate D2E/DX2                !
 ! R8    R(3,16)                 1.0941         estimate D2E/DX2                !
 ! R9    R(3,17)                 1.0958         estimate D2E/DX2                !
 ! R10   R(3,18)                 1.0954         estimate D2E/DX2                !
 ! R11   R(4,19)                 1.0959         estimate D2E/DX2                !
 ! R12   R(4,20)                 1.0954         estimate D2E/DX2                !
 ! R13   R(4,21)                 1.0942         estimate D2E/DX2                !
 ! R14   R(5,6)                  1.3509         estimate D2E/DX2                !
 ! R15   R(6,7)                  1.22           estimate D2E/DX2                !
 ! R16   R(6,8)                  1.3567         estimate D2E/DX2                !
 ! R17   R(8,9)                  1.4467         estimate D2E/DX2                !
 ! R18   R(8,22)                 1.0134         estimate D2E/DX2                !
 ! R19   R(9,10)                 1.5152         estimate D2E/DX2                !
 ! R20   R(9,23)                 1.094          estimate D2E/DX2                !
 ! R21   R(9,24)                 1.094          estimate D2E/DX2                !
 ! R22   R(10,11)                1.222          estimate D2E/DX2                !
 ! R23   R(10,12)                1.3475         estimate D2E/DX2                !
 ! R24   R(12,25)                0.9806         estimate D2E/DX2                !
 ! A1    A(2,1,13)             110.8227         estimate D2E/DX2                !
 ! A2    A(2,1,14)             111.828          estimate D2E/DX2                !
 ! A3    A(2,1,15)             110.8188         estimate D2E/DX2                !
 ! A4    A(13,1,14)            108.403          estimate D2E/DX2                !
 ! A5    A(13,1,15)            106.3661         estimate D2E/DX2                !
 ! A6    A(14,1,15)            108.4045         estimate D2E/DX2                !
 ! A7    A(1,2,3)              108.6123         estimate D2E/DX2                !
 ! A8    A(1,2,4)              108.6132         estimate D2E/DX2                !
 ! A9    A(1,2,5)              104.7051         estimate D2E/DX2                !
 ! A10   A(3,2,4)              111.9472         estimate D2E/DX2                !
 ! A11   A(3,2,5)              111.3204         estimate D2E/DX2                !
 ! A12   A(4,2,5)              111.3164         estimate D2E/DX2                !
 ! A13   A(2,3,16)             111.9475         estimate D2E/DX2                !
 ! A14   A(2,3,17)             110.7755         estimate D2E/DX2                !
 ! A15   A(2,3,18)             111.3304         estimate D2E/DX2                !
 ! A16   A(16,3,17)            106.657          estimate D2E/DX2                !
 ! A17   A(16,3,18)            107.3811         estimate D2E/DX2                !
 ! A18   A(17,3,18)            108.5455         estimate D2E/DX2                !
 ! A19   A(2,4,19)             110.7794         estimate D2E/DX2                !
 ! A20   A(2,4,20)             111.329          estimate D2E/DX2                !
 ! A21   A(2,4,21)             111.9501         estimate D2E/DX2                !
 ! A22   A(19,4,20)            108.5399         estimate D2E/DX2                !
 ! A23   A(19,4,21)            106.6549         estimate D2E/DX2                !
 ! A24   A(20,4,21)            107.3833         estimate D2E/DX2                !
 ! A25   A(2,5,6)              120.7145         estimate D2E/DX2                !
 ! A26   A(5,6,7)              126.6006         estimate D2E/DX2                !
 ! A27   A(5,6,8)              108.8973         estimate D2E/DX2                !
 ! A28   A(7,6,8)              124.5022         estimate D2E/DX2                !
 ! A29   A(6,8,9)              122.2281         estimate D2E/DX2                !
 ! A30   A(6,8,22)             117.7538         estimate D2E/DX2                !
 ! A31   A(9,8,22)             120.0181         estimate D2E/DX2                !
 ! A32   A(8,9,10)             110.2096         estimate D2E/DX2                !
 ! A33   A(8,9,23)             108.4595         estimate D2E/DX2                !
 ! A34   A(8,9,24)             108.4538         estimate D2E/DX2                !
 ! A35   A(10,9,23)            109.7286         estimate D2E/DX2                !
 ! A36   A(10,9,24)            109.7276         estimate D2E/DX2                !
 ! A37   A(23,9,24)            110.2385         estimate D2E/DX2                !
 ! A38   A(9,10,11)            126.4903         estimate D2E/DX2                !
 ! A39   A(9,10,12)            112.857          estimate D2E/DX2                !
 ! A40   A(11,10,12)           120.6527         estimate D2E/DX2                !
 ! A41   A(10,12,25)           104.3696         estimate D2E/DX2                !
 ! D1    D(13,1,2,3)            60.0882         estimate D2E/DX2                !
 ! D2    D(13,1,2,4)          -177.9355         estimate D2E/DX2                !
 ! D3    D(13,1,2,5)           -58.9257         estimate D2E/DX2                !
 ! D4    D(14,1,2,3)           -60.988          estimate D2E/DX2                !
 ! D5    D(14,1,2,4)            60.9883         estimate D2E/DX2                !
 ! D6    D(14,1,2,5)           179.998          estimate D2E/DX2                !
 ! D7    D(15,1,2,3)           177.9366         estimate D2E/DX2                !
 ! D8    D(15,1,2,4)           -60.0871         estimate D2E/DX2                !
 ! D9    D(15,1,2,5)            58.9227         estimate D2E/DX2                !
 ! D10   D(1,2,3,16)           176.1214         estimate D2E/DX2                !
 ! D11   D(1,2,3,17)           -64.9706         estimate D2E/DX2                !
 ! D12   D(1,2,3,18)            55.9158         estimate D2E/DX2                !
 ! D13   D(4,2,3,16)            56.2            estimate D2E/DX2                !
 ! D14   D(4,2,3,17)           175.108          estimate D2E/DX2                !
 ! D15   D(4,2,3,18)           -64.0056         estimate D2E/DX2                !
 ! D16   D(5,2,3,16)           -69.1088         estimate D2E/DX2                !
 ! D17   D(5,2,3,17)            49.7992         estimate D2E/DX2                !
 ! D18   D(5,2,3,18)           170.6855         estimate D2E/DX2                !
 ! D19   D(1,2,4,19)            64.9662         estimate D2E/DX2                !
 ! D20   D(1,2,4,20)           -55.9148         estimate D2E/DX2                !
 ! D21   D(1,2,4,21)          -176.1241         estimate D2E/DX2                !
 ! D22   D(3,2,4,19)          -175.113          estimate D2E/DX2                !
 ! D23   D(3,2,4,20)            64.0061         estimate D2E/DX2                !
 ! D24   D(3,2,4,21)           -56.2033         estimate D2E/DX2                !
 ! D25   D(5,2,4,19)           -49.8019         estimate D2E/DX2                !
 ! D26   D(5,2,4,20)          -170.6829         estimate D2E/DX2                !
 ! D27   D(5,2,4,21)            69.1078         estimate D2E/DX2                !
 ! D28   D(1,2,5,6)            179.9979         estimate D2E/DX2                !
 ! D29   D(3,2,5,6)             62.8274         estimate D2E/DX2                !
 ! D30   D(4,2,5,6)            -62.8324         estimate D2E/DX2                !
 ! D31   D(2,5,6,7)              0.0041         estimate D2E/DX2                !
 ! D32   D(2,5,6,8)           -179.9962         estimate D2E/DX2                !
 ! D33   D(5,6,8,9)           -179.9953         estimate D2E/DX2                !
 ! D34   D(5,6,8,22)            -0.0037         estimate D2E/DX2                !
 ! D35   D(7,6,8,9)              0.0044         estimate D2E/DX2                !
 ! D36   D(7,6,8,22)           179.996          estimate D2E/DX2                !
 ! D37   D(6,8,9,10)           179.9989         estimate D2E/DX2                !
 ! D38   D(6,8,9,23)            59.8595         estimate D2E/DX2                !
 ! D39   D(6,8,9,24)           -59.8666         estimate D2E/DX2                !
 ! D40   D(22,8,9,10)            0.0074         estimate D2E/DX2                !
 ! D41   D(22,8,9,23)         -120.1319         estimate D2E/DX2                !
 ! D42   D(22,8,9,24)          120.142          estimate D2E/DX2                !
 ! D43   D(8,9,10,11)           -0.0017         estimate D2E/DX2                !
 ! D44   D(8,9,10,12)          179.9978         estimate D2E/DX2                !
 ! D45   D(23,9,10,11)         119.3691         estimate D2E/DX2                !
 ! D46   D(23,9,10,12)         -60.6314         estimate D2E/DX2                !
 ! D47   D(24,9,10,11)        -119.3648         estimate D2E/DX2                !
 ! D48   D(24,9,10,12)          60.6347         estimate D2E/DX2                !
 ! D49   D(9,10,12,25)         179.9987         estimate D2E/DX2                !
 ! D50   D(11,10,12,25)         -0.0018         estimate D2E/DX2                !
 --------------------------------------------------------------------------------
 Trust Radius=3.00D-01 FncErr=1.00D-07 GrdErr=1.00D-06 EigMax=2.50D+02 EigMin=1.00D-04
 Number of steps in this run=    125 maximum allowed number of steps=    150.
 GradGradGradGradGradGradGradGradGradGradGradGradGradGradGradGradGradGrad

                          Input orientation:                          
 ---------------------------------------------------------------------
 Center     Atomic      Atomic             Coordinates (Angstroms)
 Number     Number       Type             X           Y           Z
 ---------------------------------------------------------------------
      1          6           0       -2.689600    1.138700   -0.861400
      2          6           0       -1.903300    0.125200   -0.015700
      3          6           0       -2.209900    0.380600    1.464200
      4          6           0       -2.305300   -1.289200   -0.448200
      5          8           0       -0.510400    0.393800   -0.319800
      6          6           0        0.473900   -0.326900    0.260400
      7          8           0        0.334100   -1.236400    1.061500
      8          7           0        1.671900    0.122000   -0.191300
      9          6           0        2.925700   -0.451500    0.246800
     10          6           0        4.086700    0.252500   -0.425800
     11          8           0        4.013300    1.173200   -1.226000
     12          8           0        5.284300   -0.241200   -0.054500
     13          1           0       -2.402100    2.165400   -0.606300
     14          1           0       -3.770500    1.036700   -0.718400
     15          1           0       -2.468000    1.011700   -1.927500
     16          1           0       -1.729500   -0.356600    2.114500
     17          1           0       -1.837200    1.363300    1.774400
     18          1           0       -3.286600    0.338300    1.661100
     19          1           0       -1.999800   -1.480900   -1.483000
     20          1           0       -3.388000   -1.436600   -0.371700
     21          1           0       -1.826600   -2.056700    0.167400
     22          1           0        1.669000    0.885400   -0.857800
     23          1           0        2.933000   -1.512600   -0.019300
     24          1           0        3.000400   -0.332900    1.331800
     25          1           0        5.934600    0.295300   -0.555400
 ---------------------------------------------------------------------
                    Distance matrix (angstroms):
                    1          2          3          4          5
     1  C    0.000000
     2  C    1.536443   0.000000
     3  C    2.492638   1.532755   0.000000
     4  C    2.492613   1.532706   2.540592   0.000000
     5  O    2.365823   1.450791   2.463966   2.463867   0.000000
     6  C    3.662533   2.435509   3.025305   3.025242   1.350884
     7  O    4.299001   2.832009   3.041183   3.041121   2.297547
     8  N    4.528288   3.579511   4.227993   4.227955   2.202912
     9  C    5.940407   4.870393   5.343112   5.343045   3.583623
    10  C    6.847871   6.005372   6.575384   6.575333   4.600492
    11  O    6.712897   6.129379   6.825951   6.825913   4.678945
    12  O    8.132545   7.197037   7.671774   7.671723   5.835423
    13  H    1.096287   2.181748   2.740332   3.459570   2.607523
    14  H    1.095079   2.193412   2.762188   2.762178   3.346708
    15  H    1.096269   2.181685   3.459557   2.740245   2.607431
    16  H    3.466078   2.190911   1.094138   2.787242   2.824026
    17  H    2.779294   2.177549   1.095823   3.492109   2.661955
    18  H    2.712942   2.184168   1.095373   2.839164   3.410914
    19  H    2.779301   2.177576   3.492179   1.095851   2.661925
    20  H    2.712884   2.184099   2.839131   1.095362   3.410812
    21  H    3.466090   2.190912   2.787300   1.094154   2.823951
    22  H    4.365956   3.748115   4.548887   4.548815   2.298021
    23  H    6.273130   5.106094   5.677535   5.260575   3.947362
    24  H    6.273104   5.106064   5.260593   5.677443   3.947353
    25  H    8.670743   7.858300   8.391599   8.391548   6.450057
                    6          7          8          9         10
     6  C    0.000000
     7  O    1.220039   0.000000
     8  N    1.356742   2.281330   0.000000
     9  C    2.455002   2.827754   1.446668   0.000000
    10  C    3.722754   4.302429   2.429667   1.515232   0.000000
    11  O    4.121533   4.957352   2.767269   2.447788   1.222046
    12  O    4.821458   5.171108   3.633189   2.387049   1.347534
    13  H    3.903089   4.673392   4.576591   5.996782   6.767296
    14  H    4.564251   5.018244   5.543846   6.927153   7.901657
    15  H    3.903016   4.673311   4.576541   5.996710   6.767243
    16  H    2.879851   2.478165   4.137063   5.016791   6.375916
    17  H    3.238851   3.461388   4.209345   5.320928   6.416179
    18  H    4.067654   3.993578   5.297631   6.420023   7.663424
    19  H    3.238881   3.461409   4.209413   5.320942   6.416216
    20  H    4.067586   3.993516   5.297581   6.419951   7.663363
    21  H    2.879784   2.478090   4.137016   5.016705   6.375846
    22  H    2.036739   3.157167   1.013415   2.141667   2.536229
    23  H    2.744319   2.828197   2.071684   1.093982   2.147520
    24  H    2.744292   2.828167   2.071637   1.094016   2.147533
    25  H    5.556249   6.027111   4.281730   3.202298   1.852933
                   11         12         13         14         15
    11  O    0.000000
    12  O    2.233468   0.000000
    13  H    6.521184   8.073224   0.000000
    14  H    7.801528   9.168598   1.777371   0.000000
    15  H    6.521153   8.073168   1.755260   1.777373   0.000000
    16  H    6.817549   7.342429   3.770362   3.759294   4.330749
    17  H    6.577757   7.525627   2.574919   3.171493   3.771683
    18  H    7.894362   8.760104   3.043310   2.526646   3.741874
    19  H    6.577816   7.525662   3.771731   3.171483   2.574849
    20  H    7.894310   8.760045   3.741850   2.526602   3.043203
    21  H    6.817496   7.342355   4.330813   3.759323   3.770289
    22  H    2.390427   3.871035   4.274986   5.443389   4.274924
    23  H    3.136351   2.673258   6.506577   7.205871   6.259722
    24  H    3.136343   2.673282   6.259772   7.205846   6.506488
    25  H    2.216260   0.980624   8.544029   9.734742   8.543979
                   16         17         18         19         20
    16  H    0.000000
    17  H    1.756509   0.000000
    18  H    1.764375   1.778826   0.000000
    19  H    3.778772   4.327420   3.853662   0.000000
    20  H    3.177769   3.853591   2.700524   1.778778   0.000000
    21  H    2.586690   3.778751   3.177855   1.756520   1.764404
    22  H    4.682620   4.410250   5.585888   4.410254   5.585806
    23  H    5.256267   5.851749   6.703208   5.145477   6.331272
    24  H    4.794281   5.145422   6.331297   5.851752   6.703113
    25  H    8.141976   8.183487   9.483947   8.183522   9.483886
                   21         22         23         24         25
    21  H    0.000000
    22  H    4.682543   0.000000
    23  H    4.794235   2.837461   0.000000
    24  H    5.256162   2.837469   1.794911   0.000000
    25  H    8.141902   4.316828   3.544786   3.544812   0.000000
 Stoichiometry    C7H13NO4
 Framework group  C1[X(C7H13NO4)]
 Deg. of freedom    69
 Full point group                 C1      NOp   1
 Largest Abelian subgroup         C1      NOp   1
 Largest concise Abelian subgroup C1      NOp   1
                         Standard orientation:                         
 ---------------------------------------------------------------------
 Center     Atomic      Atomic             Coordinates (Angstroms)
 Number     Number       Type             X           Y           Z
 ---------------------------------------------------------------------
      1          6           0       -3.312407    1.573014   -0.000013
      2          6           0       -2.597156    0.213207   -0.000001
      3          6           0       -2.992934   -0.547702    1.270320
      4          6           0       -2.992889   -0.547710   -1.270272
      5          8           0       -1.183772    0.540526   -0.000044
      6          6           0       -0.249559   -0.435248   -0.000004
      7          8           0       -0.453989   -1.638038   -0.000002
      8          7           0        0.981501    0.135048    0.000028
      9          6           0        2.195937   -0.651078   -0.000025
     10          6           0        3.408047    0.258161    0.000000
     11          8           0        3.399848    1.480180    0.000028
     12          8           0        4.571878   -0.421064    0.000001
     13          1           0       -3.025717    2.164147    0.877606
     14          1           0       -4.401654    1.460141   -0.000017
     15          1           0       -3.025680    2.164063   -0.877653
     16          1           0       -2.566247   -1.554949    1.293352
     17          1           0       -2.625402   -0.030375    2.163697
     18          1           0       -4.080477   -0.651132    1.350283
     19          1           0       -2.625432   -0.030400   -2.163723
     20          1           0       -4.080423   -0.651121   -1.350240
     21          1           0       -2.566171   -1.554960   -1.293339
     22          1           0        1.032731    1.147168   -0.000040
     23          1           0        2.203580   -1.276658   -0.897459
     24          1           0        2.203549   -1.276656    0.897452
     25          1           0        5.260887    0.276710   -0.000003
 ---------------------------------------------------------------------
 Rotational constants (GHZ):           2.3878352           0.3667395           0.3431168
 Standard basis: def2TZVP (5D, 7F)
 There are   510 symmetry adapted cartesian basis functions of A   symmetry.
 There are   450 symmetry adapted basis functions of A   symmetry.
   450 basis functions,   716 primitive gaussians,   510 cartesian basis functions
    47 alpha electrons       47 beta electrons
       nuclear repulsion energy       738.0760252279 Hartrees.
 NAtoms=   25 NActive=   25 NUniq=   25 SFac= 1.00D+00 NAtFMM=   60 NAOKFM=F Big=F
 Integral buffers will be    131072 words long.
 Raffenetti 2 integral format.
 Two-electron integral symmetry is turned on.
 One-electron integrals computed using PRISM.
   1 Symmetry operations used in ECPInt.
 ECPInt:  NShTT=   17020 NPrTT=   51024 LenC2=   15325 LenP2D=   34482.
 LDataN:  DoStor=T MaxTD1= 6 Len=  172
 NBasis=   450 RedAO= T EigKep=  2.15D-04  NBF=   450
 NBsUse=   450 1.00D-06 EigRej= -1.00D+00 NBFU=   450
 ExpMin= 9.52D-02 ExpMax= 2.70D+04 ExpMxC= 9.22D+02 IAcc=3 IRadAn=         5 AccDes= 0.00D+00
 Harris functional with IExCor= 1009 and IRadAn=       5 diagonalized for initial guess.
 HarFok:  IExCor= 1009 AccDes= 0.00D+00 IRadAn=         5 IDoV= 1 UseB2=F ITyADJ=14
 ICtDFT=  3500011 ScaDFX=  1.000000  1.000000  1.000000  1.000000
 FoFCou: FMM=F IPFlag=           0 FMFlag=      100000 FMFlg1=           0
         NFxFlg=           0 DoJE=T BraDBF=F KetDBF=T FulRan=T
         wScrn=  0.000000 ICntrl=       500 IOpCl=  0 I1Cent=   200000004 NGrid=           0
         NMat0=    1 NMatS0=      1 NMatT0=    0 NMatD0=    1 NMtDS0=    0 NMtDT0=    0
 Petite list used in FoFCou.
 Requested convergence on RMS density matrix=1.00D-08 within 128 cycles.
 Requested convergence on MAX density matrix=1.00D-06.
 Requested convergence on             energy=1.00D-06.
 No special actions if energy rises.
 Integral accuracy reduced to 1.0D-05 until final iterations.
 Initial convergence to 1.0D-05 achieved.  Increase integral accuracy.
 SCF Done:  E(RM062X) =  -630.265875571     A.U. after   13 cycles
            NFock= 13  Conv=0.96D-08     -V/T= 2.0051

 **********************************************************************

            Population analysis using the SCF Density.

 **********************************************************************

 Orbital symmetries:
       Occupied  (A) (A) (A) (A) (A) (A) (A) (A) (A) (A) (A) (A)
                 (A) (A) (A) (A) (A) (A) (A) (A) (A) (A) (A) (A)
                 (A) (A) (A) (A) (A) (A) (A) (A) (A) (A) (A) (A)
                 (A) (A) (A) (A) (A) (A) (A) (A) (A) (A) (A)
       Virtual   (A) (A) (A) (A) (A) (A) (A) (A) (A) (A) (A) (A)
                 (A) (A) (A) (A) (A) (A) (A) (A) (A) (A) (A) (A)
                 (A) (A) (A) (A) (A) (A) (A) (A) (A) (A) (A) (A)
                 (A) (A) (A) (A) (A) (A) (A) (A) (A) (A) (A) (A)
                 (A) (A) (A) (A) (A) (A) (A) (A) (A) (A) (A) (A)
                 (A) (A) (A) (A) (A) (A) (A) (A) (A) (A) (A) (A)
                 (A) (A) (A) (A) (A) (A) (A) (A) (A) (A) (A) (A)
                 (A) (A) (A) (A) (A) (A) (A) (A) (A) (A) (A) (A)
                 (A) (A) (A) (A) (A) (A) (A) (A) (A) (A) (A) (A)
                 (A) (A) (A) (A) (A) (A) (A) (A) (A) (A) (A) (A)
                 (A) (A) (A) (A) (A) (A) (A) (A) (A) (A) (A) (A)
                 (A) (A) (A) (A) (A) (A) (A) (A) (A) (A) (A) (A)
                 (A) (A) (A) (A) (A) (A) (A) (A) (A) (A) (A) (A)
                 (A) (A) (A) (A) (A) (A) (A) (A) (A) (A) (A) (A)
                 (A) (A) (A) (A) (A) (A) (A) (A) (A) (A) (A) (A)
                 (A) (A) (A) (A) (A) (A) (A) (A) (A) (A) (A) (A)
                 (A) (A) (A) (A) (A) (A) (A) (A) (A) (A) (A) (A)
                 (A) (A) (A) (A) (A) (A) (A) (A) (A) (A) (A) (A)
                 (A) (A) (A) (A) (A) (A) (A) (A) (A) (A) (A) (A)
                 (A) (A) (A) (A) (A) (A) (A) (A) (A) (A) (A) (A)
                 (A) (A) (A) (A) (A) (A) (A) (A) (A) (A) (A) (A)
                 (A) (A) (A) (A) (A) (A) (A) (A) (A) (A) (A) (A)
                 (A) (A) (A) (A) (A) (A) (A) (A) (A) (A) (A) (A)
                 (A) (A) (A) (A) (A) (A) (A) (A) (A) (A) (A) (A)
                 (A) (A) (A) (A) (A) (A) (A) (A) (A) (A) (A) (A)
                 (A) (A) (A) (A) (A) (A) (A) (A) (A) (A) (A) (A)
                 (A) (A) (A) (A) (A) (A) (A) (A) (A) (A) (A) (A)
                 (A) (A) (A) (A) (A) (A) (A) (A) (A) (A) (A) (A)
                 (A) (A) (A) (A) (A) (A) (A) (A) (A) (A) (A) (A)
                 (A) (A) (A) (A) (A) (A) (A) (A) (A) (A) (A) (A)
                 (A) (A) (A) (A) (A) (A) (A) (A) (A) (A) (A) (A)
                 (A) (A) (A) (A) (A) (A) (A) (A) (A) (A) (A) (A)
                 (A) (A) (A) (A) (A) (A) (A) (A) (A) (A) (A) (A)
                 (A) (A) (A) (A) (A) (A) (A)
 The electronic state is 1-A.
 Alpha  occ. eigenvalues --  -19.69565 -19.66329 -19.64285 -19.59883 -14.77725
 Alpha  occ. eigenvalues --  -10.70544 -10.69294 -10.61121 -10.60914 -10.52936
 Alpha  occ. eigenvalues --  -10.52337 -10.52336  -1.25788  -1.23084  -1.15644
 Alpha  occ. eigenvalues --   -1.13519  -1.04720  -0.91297  -0.85798  -0.78350
 Alpha  occ. eigenvalues --   -0.78345  -0.73820  -0.69286  -0.66685  -0.60359
 Alpha  occ. eigenvalues --   -0.59725  -0.59077  -0.57597  -0.56269  -0.55653
 Alpha  occ. eigenvalues --   -0.52536  -0.51803  -0.51596  -0.49300  -0.48832
 Alpha  occ. eigenvalues --   -0.47976  -0.45785  -0.45080  -0.42882  -0.42545
 Alpha  occ. eigenvalues --   -0.41795  -0.41391  -0.39796  -0.38536  -0.36588
 Alpha  occ. eigenvalues --   -0.35055  -0.33185
 Alpha virt. eigenvalues --    0.02378   0.05310   0.06138   0.08228   0.08618
 Alpha virt. eigenvalues --    0.10392   0.10788   0.11812   0.12103   0.13727
 Alpha virt. eigenvalues --    0.14833   0.14924   0.15550   0.16271   0.17402
 Alpha virt. eigenvalues --    0.18184   0.18312   0.19093   0.19926   0.20572
 Alpha virt. eigenvalues --    0.20911   0.21148   0.22699   0.23178   0.24357
 Alpha virt. eigenvalues --    0.24528   0.25122   0.28103   0.29949   0.30736
 Alpha virt. eigenvalues --    0.31810   0.31855   0.33226   0.33714   0.35439
 Alpha virt. eigenvalues --    0.35912   0.36585   0.37423   0.38584   0.39482
 Alpha virt. eigenvalues --    0.39874   0.40176   0.41498   0.42603   0.43998
 Alpha virt. eigenvalues --    0.44827   0.45666   0.45861   0.45959   0.46526
 Alpha virt. eigenvalues --    0.48312   0.48512   0.48573   0.48987   0.50167
 Alpha virt. eigenvalues --    0.50468   0.50805   0.51276   0.51341   0.52348
 Alpha virt. eigenvalues --    0.53141   0.53198   0.54068   0.54738   0.55466
 Alpha virt. eigenvalues --    0.56369   0.59021   0.59828   0.60709   0.61962
 Alpha virt. eigenvalues --    0.63284   0.64223   0.64685   0.66366   0.66433
 Alpha virt. eigenvalues --    0.66963   0.69881   0.71989   0.72569   0.74733
 Alpha virt. eigenvalues --    0.75787   0.78078   0.78949   0.80311   0.82286
 Alpha virt. eigenvalues --    0.83460   0.85207   0.86664   0.86840   0.87787
 Alpha virt. eigenvalues --    0.89179   0.89795   0.91758   0.92529   0.94054
 Alpha virt. eigenvalues --    0.97695   0.98871   0.99057   1.01153   1.02244
 Alpha virt. eigenvalues --    1.02726   1.04144   1.05042   1.05477   1.08583
 Alpha virt. eigenvalues --    1.10650   1.11595   1.11932   1.14523   1.15920
 Alpha virt. eigenvalues --    1.16430   1.18791   1.21055   1.25275   1.25329
 Alpha virt. eigenvalues --    1.28013   1.30753   1.31161   1.32861   1.35660
 Alpha virt. eigenvalues --    1.36529   1.38464   1.41378   1.42271   1.44812
 Alpha virt. eigenvalues --    1.45549   1.45749   1.46893   1.49984   1.51479
 Alpha virt. eigenvalues --    1.52777   1.54877   1.56430   1.56687   1.58674
 Alpha virt. eigenvalues --    1.59477   1.59522   1.60786   1.62432   1.63060
 Alpha virt. eigenvalues --    1.63070   1.65120   1.65212   1.65557   1.67012
 Alpha virt. eigenvalues --    1.68130   1.68806   1.69931   1.71309   1.71368
 Alpha virt. eigenvalues --    1.74926   1.76395   1.79035   1.80798   1.81192
 Alpha virt. eigenvalues --    1.82110   1.82672   1.85206   1.86110   1.88428
 Alpha virt. eigenvalues --    1.90593   1.92710   1.92870   1.95446   1.96070
 Alpha virt. eigenvalues --    1.96921   2.01001   2.03908   2.04254   2.05083
 Alpha virt. eigenvalues --    2.05751   2.08716   2.10386   2.12142   2.13335
 Alpha virt. eigenvalues --    2.13585   2.14915   2.15638   2.15742   2.17631
 Alpha virt. eigenvalues --    2.19391   2.20426   2.20587   2.23830   2.26134
 Alpha virt. eigenvalues --    2.27465   2.28995   2.30563   2.31195   2.32302
 Alpha virt. eigenvalues --    2.33612   2.34435   2.36073   2.36516   2.37683
 Alpha virt. eigenvalues --    2.37839   2.39663   2.40741   2.41640   2.42349
 Alpha virt. eigenvalues --    2.43253   2.43828   2.43912   2.50127   2.50709
 Alpha virt. eigenvalues --    2.51032   2.52440   2.55523   2.56654   2.56726
 Alpha virt. eigenvalues --    2.59007   2.60390   2.61251   2.61868   2.62399
 Alpha virt. eigenvalues --    2.62794   2.66344   2.66722   2.67738   2.69131
 Alpha virt. eigenvalues --    2.72168   2.74967   2.75701   2.76860   2.78956
 Alpha virt. eigenvalues --    2.80846   2.81965   2.83471   2.85753   2.86946
 Alpha virt. eigenvalues --    2.88089   2.88513   2.91072   2.91724   2.93535
 Alpha virt. eigenvalues --    2.97012   2.97050   2.97692   3.01858   3.02792
 Alpha virt. eigenvalues --    3.02968   3.05218   3.08008   3.09494   3.10537
 Alpha virt. eigenvalues --    3.12512   3.12831   3.13998   3.15049   3.16413
 Alpha virt. eigenvalues --    3.18321   3.18730   3.19987   3.20413   3.20425
 Alpha virt. eigenvalues --    3.20907   3.21753   3.23360   3.26400   3.26623
 Alpha virt. eigenvalues --    3.27542   3.28841   3.30552   3.33065   3.33272
 Alpha virt. eigenvalues --    3.33888   3.34517   3.35050   3.35864   3.36208
 Alpha virt. eigenvalues --    3.37627   3.38637   3.39769   3.40189   3.42661
 Alpha virt. eigenvalues --    3.43927   3.45085   3.47025   3.48453   3.50124
 Alpha virt. eigenvalues --    3.52556   3.55780   3.58192   3.60679   3.62233
 Alpha virt. eigenvalues --    3.64768   3.67073   3.67240   3.70111   3.70298
 Alpha virt. eigenvalues --    3.71210   3.74775   3.77474   3.80343   3.82704
 Alpha virt. eigenvalues --    3.85277   3.89027   3.93789   3.94402   3.97738
 Alpha virt. eigenvalues --    4.00409   4.02099   4.03336   4.04497   4.07968
 Alpha virt. eigenvalues --    4.10410   4.11272   4.12497   4.13958   4.15355
 Alpha virt. eigenvalues --    4.22574   4.28946   4.29803   4.34354   4.35259
 Alpha virt. eigenvalues --    4.37030   4.38274   4.42061   4.43123   4.45148
 Alpha virt. eigenvalues --    4.46379   4.46391   4.50913   4.54650   4.59729
 Alpha virt. eigenvalues --    4.67852   4.67964   4.69789   4.71352   4.80469
 Alpha virt. eigenvalues --    4.80479   4.84183   4.87368   4.90572   4.97640
 Alpha virt. eigenvalues --    5.02376   5.08945   5.14654   5.14741   5.19151
 Alpha virt. eigenvalues --    5.19840   5.24833   5.25248   5.29030   5.30702
 Alpha virt. eigenvalues --    5.35324   5.35702   5.38452   5.42937   5.47224
 Alpha virt. eigenvalues --    5.49575   5.51917   5.58494   5.59853   5.68257
 Alpha virt. eigenvalues --    5.73248   5.73364   5.80764   5.82744   5.84779
 Alpha virt. eigenvalues --    5.93293   6.03120   6.10256   6.14209   6.18067
 Alpha virt. eigenvalues --    6.19802   6.27371   6.29435   6.29560   6.40011
 Alpha virt. eigenvalues --    6.40392   6.41405   6.47303   6.55033   6.63772
 Alpha virt. eigenvalues --    6.66998   6.68060   6.70849   6.71869   6.78473
 Alpha virt. eigenvalues --    6.80086   6.86508   6.91964   6.95386   7.03930
 Alpha virt. eigenvalues --    7.06683   7.08760   7.15924   7.24833   7.40064
 Alpha virt. eigenvalues --    7.43635  22.47349  22.51495  22.53886  22.60089
 Alpha virt. eigenvalues --   22.72843  23.25342  23.61833  32.62554  43.92351
 Alpha virt. eigenvalues --   43.96368  44.09748  44.59216
          Condensed to atoms (all electrons):
               1          2          3          4          5          6
     1  C    5.171539   0.311629  -0.101132  -0.101124  -0.050707  -0.002308
     2  C    0.311629   4.994964   0.307362   0.307342   0.189506  -0.045150
     3  C   -0.101132   0.307362   5.244268  -0.094590  -0.043874  -0.007712
     4  C   -0.101124   0.307342  -0.094590   5.244311  -0.043882  -0.007711
     5  O   -0.050707   0.189506  -0.043874  -0.043882   8.056494   0.361253
     6  C   -0.002308  -0.045150  -0.007712  -0.007711   0.361253   4.223000
     7  O    0.001285   0.039843  -0.025618  -0.025623  -0.075528   0.613681
     8  N    0.000332   0.010468  -0.001945  -0.001945  -0.113133   0.421798
     9  C   -0.000032  -0.000639   0.000080   0.000080   0.004681  -0.039270
    10  C   -0.000010  -0.000116   0.000011   0.000011   0.000324   0.005972
    11  O    0.000002  -0.000012   0.000001   0.000001  -0.000010   0.001562
    12  O    0.000000  -0.000000   0.000000   0.000000   0.000001  -0.000076
    13  H    0.402760  -0.029576  -0.012175   0.014222   0.000060  -0.000732
    14  H    0.407936  -0.022106  -0.011257  -0.011258   0.004823   0.000430
    15  H    0.402759  -0.029575   0.014223  -0.012178   0.000060  -0.000732
    16  H    0.012176  -0.026282   0.408208  -0.009345  -0.001359  -0.004334
    17  H   -0.009968  -0.031699   0.397109   0.012975   0.001836  -0.002397
    18  H   -0.015048  -0.018210   0.394748  -0.006422   0.004636   0.001894
    19  H   -0.009969  -0.031692   0.012975   0.397107   0.001834  -0.002398
    20  H   -0.015049  -0.018217  -0.006425   0.394752   0.004638   0.001895
    21  H    0.012175  -0.026281  -0.009346   0.408210  -0.001360  -0.004334
    22  H   -0.000284  -0.000638   0.000285   0.000285   0.009383  -0.029521
    23  H    0.000001  -0.000074   0.000013   0.000041   0.000217  -0.003378
    24  H    0.000001  -0.000074   0.000041   0.000013   0.000217  -0.003383
    25  H   -0.000000   0.000000  -0.000000  -0.000000  -0.000000   0.000019
               7          8          9         10         11         12
     1  C    0.001285   0.000332  -0.000032  -0.000010   0.000002   0.000000
     2  C    0.039843   0.010468  -0.000639  -0.000116  -0.000012  -0.000000
     3  C   -0.025618  -0.001945   0.000080   0.000011   0.000001   0.000000
     4  C   -0.025623  -0.001945   0.000080   0.000011   0.000001   0.000000
     5  O   -0.075528  -0.113133   0.004681   0.000324  -0.000010   0.000001
     6  C    0.613681   0.421798  -0.039270   0.005972   0.001562  -0.000076
     7  O    7.957801  -0.098574   0.011643   0.003634  -0.000043   0.000008
     8  N   -0.098574   6.708909   0.195026  -0.010257  -0.000881   0.004785
     9  C    0.011643   0.195026   5.113830   0.269884  -0.086429  -0.107801
    10  C    0.003634  -0.010257   0.269884   4.442715   0.627947   0.382833
    11  O   -0.000043  -0.000881  -0.086429   0.627947   7.878836  -0.089720
    12  O    0.000008   0.004785  -0.107801   0.382833  -0.089720   7.912048
    13  H    0.000004  -0.000033   0.000002  -0.000001  -0.000000  -0.000000
    14  H    0.000074   0.000003  -0.000001  -0.000000   0.000000  -0.000000
    15  H    0.000004  -0.000033   0.000002  -0.000001  -0.000000  -0.000000
    16  H    0.006922   0.000245  -0.000017  -0.000000   0.000000   0.000000
    17  H   -0.000417   0.000156  -0.000002  -0.000003  -0.000000  -0.000000
    18  H    0.000741   0.000020  -0.000001  -0.000000   0.000000  -0.000000
    19  H   -0.000417   0.000155  -0.000002  -0.000003  -0.000000  -0.000000
    20  H    0.000742   0.000020  -0.000001  -0.000000   0.000000  -0.000000
    21  H    0.006921   0.000245  -0.000017  -0.000000   0.000000   0.000000
    22  H    0.003334   0.367354  -0.039228  -0.006185   0.017113   0.000890
    23  H    0.003676  -0.045410   0.413185  -0.023080   0.001308   0.003788
    24  H    0.003676  -0.045414   0.413185  -0.023081   0.001308   0.003788
    25  H    0.000002  -0.000624   0.017336  -0.026119   0.007401   0.288918
              13         14         15         16         17         18
     1  C    0.402760   0.407936   0.402759   0.012176  -0.009968  -0.015048
     2  C   -0.029576  -0.022106  -0.029575  -0.026282  -0.031699  -0.018210
     3  C   -0.012175  -0.011257   0.014223   0.408208   0.397109   0.394748
     4  C    0.014222  -0.011258  -0.012178  -0.009345   0.012975  -0.006422
     5  O    0.000060   0.004823   0.000060  -0.001359   0.001836   0.004636
     6  C   -0.000732   0.000430  -0.000732  -0.004334  -0.002397   0.001894
     7  O    0.000004   0.000074   0.000004   0.006922  -0.000417   0.000741
     8  N   -0.000033   0.000003  -0.000033   0.000245   0.000156   0.000020
     9  C    0.000002  -0.000001   0.000002  -0.000017  -0.000002  -0.000001
    10  C   -0.000001  -0.000000  -0.000001  -0.000000  -0.000003  -0.000000
    11  O   -0.000000   0.000000  -0.000000   0.000000  -0.000000   0.000000
    12  O   -0.000000  -0.000000  -0.000000   0.000000  -0.000000  -0.000000
    13  H    0.515741  -0.023094  -0.022750  -0.000115   0.002525   0.000491
    14  H   -0.023094   0.529992  -0.023092  -0.000050   0.000806   0.001009
    15  H   -0.022750  -0.023092   0.515743  -0.000365  -0.000342   0.000062
    16  H   -0.000115  -0.000050  -0.000365   0.470480  -0.022872  -0.020755
    17  H    0.002525   0.000806  -0.000342  -0.022872   0.519329  -0.019889
    18  H    0.000491   0.001009   0.000062  -0.020755  -0.019889   0.528763
    19  H   -0.000342   0.000806   0.002525  -0.000095  -0.000477  -0.000142
    20  H    0.000062   0.001009   0.000491   0.000327  -0.000142  -0.000065
    21  H   -0.000365  -0.000050  -0.000115   0.002088  -0.000095   0.000327
    22  H    0.000035   0.000010   0.000035  -0.000064   0.000031  -0.000007
    23  H   -0.000000  -0.000000   0.000000  -0.000013   0.000001  -0.000001
    24  H    0.000000  -0.000000  -0.000000   0.000039  -0.000009   0.000001
    25  H   -0.000000   0.000000  -0.000000  -0.000000  -0.000000   0.000000
              19         20         21         22         23         24
     1  C   -0.009969  -0.015049   0.012175  -0.000284   0.000001   0.000001
     2  C   -0.031692  -0.018217  -0.026281  -0.000638  -0.000074  -0.000074
     3  C    0.012975  -0.006425  -0.009346   0.000285   0.000013   0.000041
     4  C    0.397107   0.394752   0.408210   0.000285   0.000041   0.000013
     5  O    0.001834   0.004638  -0.001360   0.009383   0.000217   0.000217
     6  C   -0.002398   0.001895  -0.004334  -0.029521  -0.003378  -0.003383
     7  O   -0.000417   0.000742   0.006921   0.003334   0.003676   0.003676
     8  N    0.000155   0.000020   0.000245   0.367354  -0.045410  -0.045414
     9  C   -0.000002  -0.000001  -0.000017  -0.039228   0.413185   0.413185
    10  C   -0.000003  -0.000000  -0.000000  -0.006185  -0.023080  -0.023081
    11  O   -0.000000   0.000000   0.000000   0.017113   0.001308   0.001308
    12  O   -0.000000  -0.000000   0.000000   0.000890   0.003788   0.003788
    13  H   -0.000342   0.000062  -0.000365   0.000035  -0.000000   0.000000
    14  H    0.000806   0.001009  -0.000050   0.000010  -0.000000  -0.000000
    15  H    0.002525   0.000491  -0.000115   0.000035   0.000000  -0.000000
    16  H   -0.000095   0.000327   0.002088  -0.000064  -0.000013   0.000039
    17  H   -0.000477  -0.000142  -0.000095   0.000031   0.000001  -0.000009
    18  H   -0.000142  -0.000065   0.000327  -0.000007  -0.000001   0.000001
    19  H    0.519336  -0.019895  -0.022874   0.000031  -0.000009   0.000001
    20  H   -0.019895   0.528767  -0.020750  -0.000007   0.000001  -0.000001
    21  H   -0.022874  -0.020750   0.470473  -0.000064   0.000039  -0.000013
    22  H    0.000031  -0.000007  -0.000064   0.399208   0.003221   0.003223
    23  H   -0.000009   0.000001   0.000039   0.003221   0.496210  -0.029371
    24  H    0.000001  -0.000001  -0.000013   0.003223  -0.029371   0.496214
    25  H   -0.000000   0.000000  -0.000000  -0.000168  -0.000571  -0.000571
              25
     1  C   -0.000000
     2  C    0.000000
     3  C   -0.000000
     4  C   -0.000000
     5  O   -0.000000
     6  C    0.000019
     7  O    0.000002
     8  N   -0.000624
     9  C    0.017336
    10  C   -0.026119
    11  O    0.007401
    12  O    0.288918
    13  H   -0.000000
    14  H    0.000000
    15  H   -0.000000
    16  H   -0.000000
    17  H   -0.000000
    18  H    0.000000
    19  H   -0.000000
    20  H    0.000000
    21  H   -0.000000
    22  H   -0.000168
    23  H   -0.000571
    24  H   -0.000571
    25  H    0.366946
 Mulliken charges:
               1
     1  C   -0.416963
     2  C    0.119229
     3  C   -0.465251
     4  C   -0.465272
     5  O   -0.310110
     6  C    0.521932
     7  O   -0.427775
     8  N   -0.391268
     9  C   -0.165495
    10  C    0.355527
    11  O   -0.358383
    12  O   -0.399462
    13  H    0.153281
    14  H    0.144009
    15  H    0.153280
    16  H    0.185181
    17  H    0.153544
    18  H    0.147847
    19  H    0.153544
    20  H    0.147847
    21  H    0.185185
    22  H    0.271726
    23  H    0.180206
    24  H    0.180211
    25  H    0.347432
 Sum of Mulliken charges =  -0.00000
 Mulliken charges with hydrogens summed into heavy atoms:
               1
     1  C    0.033606
     2  C    0.119229
     3  C    0.021320
     4  C    0.021305
     5  O   -0.310110
     6  C    0.521932
     7  O   -0.427775
     8  N   -0.119542
     9  C    0.194922
    10  C    0.355527
    11  O   -0.358383
    12  O   -0.052031
 Electronic spatial extent (au):  <R**2>=           3207.0948
 Charge=             -0.0000 electrons
 Dipole moment (field-independent basis, Debye):
    X=              0.6572    Y=              0.7553    Z=             -0.0001  Tot=              1.0012
 Quadrupole moment (field-independent basis, Debye-Ang):
   XX=            -55.7548   YY=            -80.8021   ZZ=            -71.0398
   XY=             -3.3772   XZ=             -0.0006   YZ=             -0.0001
 Traceless Quadrupole moment (field-independent basis, Debye-Ang):
   XX=             13.4441   YY=            -11.6032   ZZ=             -1.8409
   XY=             -3.3772   XZ=             -0.0006   YZ=             -0.0001
 Octapole moment (field-independent basis, Debye-Ang**2):
  XXX=             77.0824  YYY=              4.5430  ZZZ=             -0.0005  XYY=             -2.4508
  XXY=              2.4402  XXZ=             -0.0005  XZZ=             11.2125  YZZ=             -0.5397
  YYZ=             -0.0001  XYZ=             -0.0005
 Hexadecapole moment (field-independent basis, Debye-Ang**3):
 XXXX=          -2778.9964 YYYY=           -493.9425 ZZZZ=           -259.0923 XXXY=             80.8955
 XXXZ=             -0.0068 YYYX=            -15.8671 YYYZ=              0.0007 ZZZX=              0.0015
 ZZZY=              0.0004 XXYY=           -706.2182 XXZZ=           -610.7179 YYZZ=           -118.6267
 XXYZ=             -0.0014 YYXZ=             -0.0018 ZZXY=              0.2507
 N-N= 7.380760252279D+02 E-N=-2.950776120022D+03  KE= 6.270481712227D+02
   1 Symmetry operations used in ECPInt.
 ECPInt:  NShTT=   17020 NPrTT=   51024 LenC2=   15325 LenP2D=   34482.
 LDataN:  DoStor=T MaxTD1= 7 Len=  274
 Calling FoFJK, ICntrl=      2127 FMM=F ISym2X=0 I1Cent= 0 IOpClX= 0 NMat=1 NMatS=1 NMatT=0.
 ***** Axes restored to original set *****
 -------------------------------------------------------------------
 Center     Atomic                   Forces (Hartrees/Bohr)
 Number     Number              X              Y              Z
 -------------------------------------------------------------------
      1        6           0.008448650    0.005246595   -0.004995649
      2        6          -0.018168860   -0.000169391    0.001067922
      3        6           0.007446681   -0.003135753    0.006989573
      4        6           0.007178248   -0.007740764    0.001727758
      5        8          -0.003110749   -0.003272659    0.003023869
      6        6          -0.001792125   -0.009405996    0.008300584
      7        8           0.002460756    0.014263835   -0.012575462
      8        7           0.001115692    0.006819648   -0.006018382
      9        6          -0.012233427    0.006093896   -0.004676542
     10        6           0.007255088    0.022911542   -0.020364060
     11        8          -0.006853383   -0.027716343    0.024539919
     12        8          -0.005613510    0.007448924   -0.006225710
     13        1          -0.000879438   -0.003481080    0.001807946
     14        1           0.004826588   -0.002269715    0.001739676
     15        1          -0.000809244   -0.002216404    0.003240378
     16        1          -0.000807949    0.000387347   -0.004362364
     17        1          -0.002452846   -0.000940434   -0.003560522
     18        1           0.002756615    0.000869167   -0.004477915
     19        1          -0.002196265    0.003525187    0.001559591
     20        1           0.002951698    0.004406957   -0.000412824
     21        1          -0.000585161    0.004418638    0.000240852
     22        1           0.003690030   -0.003470190    0.002846325
     23        1           0.006157554    0.000120266    0.004965352
     24        1           0.005858354   -0.005207431   -0.001149021
     25        1          -0.004642997   -0.007485840    0.006768705
 -------------------------------------------------------------------
 Cartesian Forces:  Max     0.027716343 RMS     0.007790131

 GradGradGradGradGradGradGradGradGradGradGradGradGradGradGradGradGradGrad
 Berny optimization.
 FormGI is forming the generalized inverse of G from B-inverse, IUseBI=4.
 Internal  Forces:  Max     0.036537858 RMS     0.005559821
 Search for a local minimum.
 Step number   1 out of a maximum of  125
 All quantities printed in internal units (Hartrees-Bohrs-Radians)
 Mixed Optimization -- RFO/linear search
 Second derivative matrix not updated -- first step.
 ITU=  0
     Eigenvalues ---    0.00284   0.00333   0.00333   0.00564   0.00975
     Eigenvalues ---    0.01020   0.01074   0.01538   0.02264   0.02291
     Eigenvalues ---    0.02341   0.02386   0.04546   0.05328   0.05391
     Eigenvalues ---    0.05391   0.05445   0.05481   0.05481   0.05502
     Eigenvalues ---    0.05546   0.06704   0.06801   0.09598   0.13019
     Eigenvalues ---    0.15982   0.16000   0.16000   0.16000   0.16000
     Eigenvalues ---    0.16000   0.16000   0.16000   0.16000   0.16000
     Eigenvalues ---    0.16000   0.16000   0.16110   0.22000   0.22075
     Eigenvalues ---    0.25000   0.25000   0.25000   0.25000   0.25000
     Eigenvalues ---    0.28836   0.29170   0.29175   0.30830   0.34096
     Eigenvalues ---    0.34098   0.34145   0.34148   0.34199   0.34200
     Eigenvalues ---    0.34232   0.34337   0.34339   0.34353   0.34357
     Eigenvalues ---    0.38142   0.38685   0.45405   0.51264   0.53612
     Eigenvalues ---    0.54834   0.55549   0.94483   0.95366
 RFO step:  Lambda=-1.03451402D-02 EMin= 2.83870743D-03
 Linear search not attempted -- first point.
 Iteration  1 RMS(Cart)=  0.06174997 RMS(Int)=  0.00105660
 Iteration  2 RMS(Cart)=  0.00151501 RMS(Int)=  0.00035050
 Iteration  3 RMS(Cart)=  0.00000140 RMS(Int)=  0.00035050
 Iteration  4 RMS(Cart)=  0.00000000 RMS(Int)=  0.00035050
 Variable       Old X    -DE/DX   Delta X   Delta X   Delta X     New X
                                 (Linear)    (Quad)   (Total)
    R1        2.90346  -0.00871   0.00000  -0.02917  -0.02917   2.87429
    R2        2.07168  -0.00307   0.00000  -0.00874  -0.00874   2.06294
    R3        2.06940  -0.00433   0.00000  -0.01226  -0.01226   2.05714
    R4        2.07165  -0.00306   0.00000  -0.00871  -0.00871   2.06294
    R5        2.89649  -0.00708   0.00000  -0.02345  -0.02345   2.87304
    R6        2.89639  -0.00706   0.00000  -0.02337  -0.02337   2.87303
    R7        2.74160  -0.00708   0.00000  -0.01806  -0.01806   2.72353
    R8        2.06762  -0.00321   0.00000  -0.00907  -0.00907   2.05855
    R9        2.07081  -0.00269   0.00000  -0.00763  -0.00763   2.06317
   R10        2.06995  -0.00355   0.00000  -0.01007  -0.01007   2.05988
   R11        2.07086  -0.00270   0.00000  -0.00768  -0.00768   2.06318
   R12        2.06993  -0.00354   0.00000  -0.01005  -0.01005   2.05989
   R13        2.06765  -0.00322   0.00000  -0.00910  -0.00910   2.05855
   R14        2.55280  -0.00723   0.00000  -0.01294  -0.01294   2.53986
   R15        2.30554  -0.01917   0.00000  -0.01989  -0.01989   2.28565
   R16        2.56387  -0.00504   0.00000  -0.00922  -0.00922   2.55465
   R17        2.73381  -0.00604   0.00000  -0.01522  -0.01522   2.71859
   R18        1.91508  -0.00450   0.00000  -0.00968  -0.00968   1.90540
   R19        2.86337  -0.01189   0.00000  -0.03732  -0.03732   2.82605
   R20        2.06733  -0.00128   0.00000  -0.00363  -0.00363   2.06370
   R21        2.06739  -0.00130   0.00000  -0.00369  -0.00369   2.06370
   R22        2.30933  -0.03654   0.00000  -0.03825  -0.03825   2.27108
   R23        2.54647  -0.00895   0.00000  -0.01582  -0.01582   2.53065
   R24        1.85311  -0.01063   0.00000  -0.02033  -0.02033   1.83278
    A1        1.93422  -0.00114   0.00000  -0.00361  -0.00374   1.93048
    A2        1.95177  -0.00482   0.00000  -0.03457  -0.03485   1.91692
    A3        1.93415  -0.00113   0.00000  -0.00354  -0.00368   1.93047
    A4        1.89199   0.00240   0.00000   0.00824   0.00797   1.89996
    A5        1.85644   0.00281   0.00000   0.02887   0.02887   1.88531
    A6        1.89201   0.00240   0.00000   0.00822   0.00796   1.89997
    A7        1.89564   0.00260   0.00000   0.03127   0.03075   1.92639
    A8        1.89566   0.00259   0.00000   0.03126   0.03074   1.92639
    A9        1.82745  -0.00298   0.00000  -0.02824  -0.02779   1.79966
   A10        1.95385  -0.00162   0.00000   0.00141   0.00021   1.95406
   A11        1.94291  -0.00024   0.00000  -0.01732  -0.01715   1.92576
   A12        1.94284  -0.00023   0.00000  -0.01724  -0.01706   1.92578
   A13        1.95385  -0.00234   0.00000  -0.00824  -0.00829   1.94556
   A14        1.93340  -0.00180   0.00000  -0.01059  -0.01083   1.92257
   A15        1.94308  -0.00456   0.00000  -0.03224  -0.03258   1.91050
   A16        1.86152   0.00358   0.00000   0.03151   0.03155   1.89307
   A17        1.87415   0.00374   0.00000   0.02207   0.02192   1.89607
   A18        1.89448   0.00198   0.00000   0.00121   0.00069   1.89517
   A19        1.93347  -0.00181   0.00000  -0.01064  -0.01088   1.92259
   A20        1.94306  -0.00455   0.00000  -0.03219  -0.03254   1.91052
   A21        1.95390  -0.00235   0.00000  -0.00827  -0.00832   1.94557
   A22        1.89438   0.00199   0.00000   0.00127   0.00075   1.89513
   A23        1.86148   0.00359   0.00000   0.03153   0.03157   1.89305
   A24        1.87419   0.00373   0.00000   0.02204   0.02188   1.89607
   A25        2.10686  -0.00682   0.00000  -0.02621  -0.02621   2.08065
   A26        2.20960  -0.00290   0.00000  -0.01115  -0.01115   2.19844
   A27        1.90062   0.00642   0.00000   0.02466   0.02466   1.92528
   A28        2.17297  -0.00352   0.00000  -0.01351  -0.01351   2.15946
   A29        2.13328  -0.00727   0.00000  -0.03157  -0.03157   2.10171
   A30        2.05519   0.00716   0.00000   0.03647   0.03647   2.09166
   A31        2.09471   0.00011   0.00000  -0.00490  -0.00490   2.08982
   A32        1.92352  -0.00973   0.00000  -0.03549  -0.03490   1.88863
   A33        1.89298   0.00759   0.00000   0.05692   0.05627   1.94925
   A34        1.89288   0.00760   0.00000   0.05701   0.05636   1.94924
   A35        1.91513  -0.00036   0.00000  -0.01805  -0.01769   1.89744
   A36        1.91511  -0.00037   0.00000  -0.01805  -0.01769   1.89742
   A37        1.92403  -0.00464   0.00000  -0.04112  -0.04327   1.88075
   A38        2.20767  -0.00771   0.00000  -0.02960  -0.02960   2.17808
   A39        1.96973  -0.00554   0.00000  -0.02127  -0.02127   1.94846
   A40        2.10579   0.01324   0.00000   0.05087   0.05087   2.15665
   A41        1.82159   0.00597   0.00000   0.03502   0.03502   1.85662
    D1        1.04874  -0.00163   0.00000  -0.03554  -0.03586   1.01287
    D2       -3.10556  -0.00044   0.00000   0.00414   0.00460  -3.10096
    D3       -1.02845  -0.00103   0.00000  -0.01565  -0.01558  -1.04403
    D4       -1.06444  -0.00059   0.00000  -0.01985  -0.02024  -1.08468
    D5        1.06445   0.00059   0.00000   0.01984   0.02022   1.08467
    D6        3.14156   0.00000   0.00000   0.00004   0.00004  -3.14159
    D7        3.10558   0.00044   0.00000  -0.00419  -0.00465   3.10093
    D8       -1.04872   0.00162   0.00000   0.03550   0.03582  -1.01290
    D9        1.02839   0.00103   0.00000   0.01570   0.01563   1.04403
   D10        3.07390   0.00156   0.00000   0.02707   0.02716   3.10106
   D11       -1.13395   0.00334   0.00000   0.05435   0.05423  -1.07972
   D12        0.97592   0.00155   0.00000   0.02688   0.02701   1.00293
   D13        0.98088  -0.00237   0.00000  -0.03328  -0.03319   0.94768
   D14        3.05621  -0.00059   0.00000  -0.00601  -0.00612   3.05009
   D15       -1.11711  -0.00238   0.00000  -0.03347  -0.03334  -1.15045
   D16       -1.20618  -0.00065   0.00000   0.00176   0.00174  -1.20444
   D17        0.86916   0.00113   0.00000   0.02903   0.02881   0.89797
   D18        2.97902  -0.00066   0.00000   0.00156   0.00160   2.98062
   D19        1.13387  -0.00334   0.00000  -0.05429  -0.05417   1.07970
   D20       -0.97590  -0.00155   0.00000  -0.02690  -0.02703  -1.00293
   D21       -3.07395  -0.00156   0.00000  -0.02706  -0.02714  -3.10108
   D22       -3.05630   0.00060   0.00000   0.00607   0.00618  -3.05011
   D23        1.11712   0.00238   0.00000   0.03346   0.03333   1.15044
   D24       -0.98093   0.00238   0.00000   0.03331   0.03322  -0.94771
   D25       -0.86921  -0.00113   0.00000  -0.02902  -0.02880  -0.89801
   D26       -2.97898   0.00065   0.00000  -0.00162  -0.00166  -2.98063
   D27        1.20616   0.00064   0.00000  -0.00178  -0.00176   1.20440
   D28        3.14156  -0.00000   0.00000  -0.00006  -0.00006   3.14150
   D29        1.09654  -0.00124   0.00000  -0.01225  -0.01239   1.08415
   D30       -1.09663   0.00124   0.00000   0.01217   0.01231  -1.08432
   D31        0.00007  -0.00000   0.00000  -0.00005  -0.00005   0.00003
   D32       -3.14153  -0.00000   0.00000  -0.00002  -0.00002  -3.14154
   D33       -3.14151  -0.00000   0.00000  -0.00002  -0.00002  -3.14153
   D34       -0.00006  -0.00000   0.00000  -0.00002  -0.00002  -0.00008
   D35        0.00008   0.00000   0.00000   0.00001   0.00001   0.00009
   D36        3.14152   0.00000   0.00000   0.00001   0.00001   3.14154
   D37        3.14157  -0.00000   0.00000  -0.00001  -0.00001   3.14156
   D38        1.04475   0.00158   0.00000   0.00808   0.00897   1.05372
   D39       -1.04487  -0.00158   0.00000  -0.00805  -0.00894  -1.05381
   D40        0.00013  -0.00000   0.00000  -0.00002  -0.00002   0.00011
   D41       -2.09670   0.00158   0.00000   0.00807   0.00897  -2.08773
   D42        2.09687  -0.00158   0.00000  -0.00805  -0.00895   2.08792
   D43       -0.00003   0.00000   0.00000   0.00002   0.00002  -0.00001
   D44        3.14155   0.00000   0.00000   0.00005   0.00005  -3.14158
   D45        2.08338   0.00311   0.00000   0.03694   0.03675   2.12013
   D46       -1.05822   0.00311   0.00000   0.03697   0.03678  -1.02144
   D47       -2.08331  -0.00311   0.00000  -0.03701  -0.03682  -2.12013
   D48        1.05827  -0.00311   0.00000  -0.03698  -0.03679   1.02149
   D49        3.14157   0.00000   0.00000   0.00000   0.00000   3.14157
   D50       -0.00003   0.00000   0.00000   0.00003   0.00003  -0.00000
         Item               Value     Threshold  Converged?
 Maximum Force            0.036538     0.000450     NO 
 RMS     Force            0.005560     0.000300     NO 
 Maximum Displacement     0.199678     0.001800     NO 
 RMS     Displacement     0.062216     0.001200     NO 
 Predicted change in Energy=-5.505636D-03
 GradGradGradGradGradGradGradGradGradGradGradGradGradGradGradGradGradGrad

                          Input orientation:                          
 ---------------------------------------------------------------------
 Center     Atomic      Atomic             Coordinates (Angstroms)
 Number     Number       Type             X           Y           Z
 ---------------------------------------------------------------------
      1          6           0       -2.695980    1.132752   -0.855882
      2          6           0       -1.905940    0.134406   -0.023650
      3          6           0       -2.152074    0.368553    1.458258
      4          6           0       -2.246829   -1.287865   -0.438824
      5          8           0       -0.537815    0.439727   -0.358556
      6          6           0        0.451107   -0.269731    0.211650
      7          8           0        0.311748   -1.171253    1.005856
      8          7           0        1.653630    0.164551   -0.227526
      9          6           0        2.866441   -0.447272    0.246158
     10          6           0        4.022627    0.237870   -0.409800
     11          8           0        3.927956    1.142661   -1.195117
     12          8           0        5.192535   -0.280827   -0.015313
     13          1           0       -2.423813    2.155773   -0.589279
     14          1           0       -3.762012    0.995832   -0.683092
     15          1           0       -2.490213    0.994706   -1.919051
     16          1           0       -1.626231   -0.363244    2.070321
     17          1           0       -1.811773    1.366071    1.743116
     18          1           0       -3.219594    0.293319    1.665469
     19          1           0       -1.972943   -1.450835   -1.483059
     20          1           0       -3.319341   -1.450393   -0.331569
     21          1           0       -1.720935   -2.019045    0.173931
     22          1           0        1.701728    0.921938   -0.891382
     23          1           0        2.904323   -1.510779    0.000966
     24          1           0        2.970617   -0.351166    1.328986
     25          1           0        5.882881    0.214852   -0.482611
 ---------------------------------------------------------------------
                    Distance matrix (angstroms):
                    1          2          3          4          5
     1  C    0.000000
     2  C    1.521009   0.000000
     3  C    2.497013   1.520347   0.000000
     4  C    2.497011   1.520340   2.520242   0.000000
     5  O    2.320623   1.441231   2.431401   2.431409   0.000000
     6  C    3.607040   2.402990   2.956008   2.956108   1.344036
     7  O    4.221485   2.771781   2.940423   2.940581   2.275661
     8  N    4.500150   3.565531   4.167357   4.167462   2.212538
     9  C    5.886552   4.815263   5.226877   5.226981   3.569510
    10  C    6.792605   5.942029   6.452414   6.452502   4.565194
    11  O    6.632624   6.035168   6.678802   6.678878   4.597506
    12  O    8.058128   7.110614   7.519068   7.519151   5.785665
    13  H    1.091662   2.161956   2.731374   3.451465   2.560280
    14  H    1.088589   2.149865   2.751501   2.751494   3.287859
    15  H    1.091662   2.161952   3.451466   2.731380   2.560274
    16  H    3.456159   2.170393   1.089339   2.745155   2.780082
    17  H    2.755186   2.155766   1.091784   3.463165   2.626425
    18  H    2.708510   2.145707   1.090044   2.806147   3.363041
    19  H    2.755187   2.155772   3.463178   1.091787   2.626466
    20  H    2.708528   2.145718   2.806164   1.090046   3.363060
    21  H    3.456161   2.170395   2.745177   1.089338   2.780085
    22  H    4.402901   3.793208   4.547398   4.547432   2.352017
    23  H    6.251866   5.083883   5.587730   5.174695   3.972662
    24  H    6.251879   5.083917   5.174618   5.587871   3.972708
    25  H    8.635897   7.802745   8.267471   8.267543   6.425830
                    6          7          8          9         10
     6  C    0.000000
     7  O    1.209515   0.000000
     8  N    1.351865   2.259701   0.000000
     9  C    2.422096   2.761837   1.438615   0.000000
    10  C    3.660548   4.214300   2.377129   1.495482   0.000000
    11  O    4.007783   4.824462   2.658098   2.394154   1.201803
    12  O    4.746870   5.065345   3.573128   2.346654   1.339161
    13  H    3.845741   4.593131   4.552073   5.954879   6.728086
    14  H    4.489163   4.913687   5.497976   6.847075   7.826224
    15  H    3.845783   4.593195   4.552126   5.954928   6.728129
    16  H    2.789038   2.354087   4.039327   4.849611   6.198543
    17  H    3.184629   3.389824   4.163664   5.235912   6.320451
    18  H    3.988064   3.879489   5.229562   6.293070   7.533895
    19  H    3.184818   3.390085   4.163876   5.236121   6.320638
    20  H    3.988149   3.879618   5.229657   6.293164   7.533979
    21  H    2.789137   2.354284   4.039424   4.849711   6.198621
    22  H    2.049587   3.148492   1.008292   2.127273   2.467071
    23  H    2.757327   2.801164   2.103133   1.092062   2.115917
    24  H    2.757354   2.801167   2.103129   1.092065   2.115908
    25  H    5.497361   5.930795   4.237235   3.173078   1.861821
                   11         12         13         14         15
    11  O    0.000000
    12  O    2.239959   0.000000
    13  H    6.460526   8.017182   0.000000
    14  H    7.708393   9.069713   1.773427   0.000000
    15  H    6.460562   8.017220   1.766573   1.773434   0.000000
    16  H    6.616632   7.131075   3.749008   3.740312   4.301812
    17  H    6.451946   7.407069   2.537378   3.134804   3.742948
    18  H    7.745437   8.597591   3.030824   2.510673   3.724610
    19  H    6.452111   7.407244   3.742960   3.134787   2.537386
    20  H    7.745512   8.597670   3.724624   2.510686   3.030852
    21  H    6.616694   7.131148   4.301817   3.740316   3.749007
    22  H    2.257668   3.794717   4.316677   5.468207   4.316684
    23  H    3.085317   2.597876   6.494692   7.154792   6.250195
    24  H    3.085306   2.597885   6.250149   7.154799   6.494750
    25  H    2.278207   0.969867   8.531102   9.678536   8.531133
                   16         17         18         19         20
    16  H    0.000000
    17  H    1.769751   0.000000
    18  H    1.770250   1.771662   0.000000
    19  H    3.732234   4.285923   3.809125   0.000000
    20  H    3.133304   3.809140   2.653043   1.771643   0.000000
    21  H    2.519314   3.732238   3.133319   1.769742   1.770253
    22  H    4.636668   4.413901   5.581402   4.413993   5.581440
    23  H    5.111260   5.792487   6.597551   5.098396   6.232834
    24  H    4.656257   5.098201   6.232759   5.792724   6.597675
    25  H    7.952258   8.092395   9.352830   8.092550   9.352900
                   21         22         23         24         25
    21  H    0.000000
    22  H    4.636689   0.000000
    23  H    4.656314   2.856682   0.000000
    24  H    5.111422   2.856731   1.764294   0.000000
    25  H    7.952317   4.260176   3.476126   3.476139   0.000000
 Stoichiometry    C7H13NO4
 Framework group  C1[X(C7H13NO4)]
 Deg. of freedom    69
 Full point group                 C1      NOp   1
 Largest Abelian subgroup         C1      NOp   1
 Largest concise Abelian subgroup C1      NOp   1
                         Standard orientation:                         
 ---------------------------------------------------------------------
 Center     Atomic      Atomic             Coordinates (Angstroms)
 Number     Number       Type             X           Y           Z
 ---------------------------------------------------------------------
      1          6           0       -3.311667    1.528608    0.000066
      2          6           0       -2.581150    0.194512   -0.000013
      3          6           0       -2.910924   -0.589601    1.260095
      4          6           0       -2.911017   -0.589506   -1.260146
      5          8           0       -1.192948    0.581866   -0.000037
      6          6           0       -0.245836   -0.371765    0.000002
      7          8           0       -0.439943   -1.565602    0.000032
      8          7           0        0.984377    0.188697    0.000035
      9          6           0        2.161554   -0.638265    0.000002
     10          6           0        3.360567    0.255512    0.000004
     11          8           0        3.320567    1.456649    0.000023
     12          8           0        4.500432   -0.447382   -0.000045
     13          1           0       -3.045609    2.112314    0.883370
     14          1           0       -4.387229    1.360701    0.000094
     15          1           0       -3.045655    2.112387   -0.883203
     16          1           0       -2.428737   -1.566410    1.259565
     17          1           0       -2.578162   -0.040190    2.142937
     18          1           0       -3.989381   -0.733526    1.326521
     19          1           0       -2.578348   -0.040029   -2.142986
     20          1           0       -3.989478   -0.733440   -1.326522
     21          1           0       -2.428813   -1.566305   -1.259749
     22          1           0        1.078393    1.192596   -0.000042
     23          1           0        2.203366   -1.280652   -0.882150
     24          1           0        2.203394   -1.280667    0.882144
     25          1           0        5.221593    0.201131   -0.000061
 ---------------------------------------------------------------------
 Rotational constants (GHZ):           2.4618034           0.3781551           0.3541012
 Standard basis: def2TZVP (5D, 7F)
 There are   510 symmetry adapted cartesian basis functions of A   symmetry.
 There are   450 symmetry adapted basis functions of A   symmetry.
   450 basis functions,   716 primitive gaussians,   510 cartesian basis functions
    47 alpha electrons       47 beta electrons
       nuclear repulsion energy       747.2674191293 Hartrees.
 NAtoms=   25 NActive=   25 NUniq=   25 SFac= 1.00D+00 NAtFMM=   60 NAOKFM=F Big=F
 Integral buffers will be    131072 words long.
 Raffenetti 2 integral format.
 Two-electron integral symmetry is turned on.
 One-electron integrals computed using PRISM.
   1 Symmetry operations used in ECPInt.
 ECPInt:  NShTT=   17020 NPrTT=   51024 LenC2=   15398 LenP2D=   34694.
 LDataN:  DoStor=T MaxTD1= 6 Len=  172
 NBasis=   450 RedAO= T EigKep=  1.92D-04  NBF=   450
 NBsUse=   450 1.00D-06 EigRej= -1.00D+00 NBFU=   450
 Initial guess from the checkpoint file:  "/tmp/Gau-2313212.chk"
 B after Tr=    -0.000000    0.000000    0.000000
         Rot=    0.999997   -0.000013   -0.000002   -0.002442 Ang=  -0.28 deg.
 ExpMin= 9.52D-02 ExpMax= 2.70D+04 ExpMxC= 9.22D+02 IAcc=3 IRadAn=         5 AccDes= 0.00D+00
 Harris functional with IExCor= 1009 and IRadAn=       5 diagonalized for initial guess.
 HarFok:  IExCor= 1009 AccDes= 0.00D+00 IRadAn=         5 IDoV= 1 UseB2=F ITyADJ=14
 ICtDFT=  3500011 ScaDFX=  1.000000  1.000000  1.000000  1.000000
 FoFCou: FMM=F IPFlag=           0 FMFlag=      100000 FMFlg1=           0
         NFxFlg=           0 DoJE=T BraDBF=F KetDBF=T FulRan=T
         wScrn=  0.000000 ICntrl=       500 IOpCl=  0 I1Cent=   200000004 NGrid=           0
         NMat0=    1 NMatS0=      1 NMatT0=    0 NMatD0=    1 NMtDS0=    0 NMtDT0=    0
 Petite list used in FoFCou.
 Requested convergence on RMS density matrix=1.00D-08 within 128 cycles.
 Requested convergence on MAX density matrix=1.00D-06.
 Requested convergence on             energy=1.00D-06.
 No special actions if energy rises.
 Integral accuracy reduced to 1.0D-05 until final iterations.
 Initial convergence to 1.0D-05 achieved.  Increase integral accuracy.
 SCF Done:  E(RM062X) =  -630.270778394     A.U. after   11 cycles
            NFock= 11  Conv=0.47D-08     -V/T= 2.0044
   1 Symmetry operations used in ECPInt.
 ECPInt:  NShTT=   17020 NPrTT=   51024 LenC2=   15398 LenP2D=   34694.
 LDataN:  DoStor=T MaxTD1= 7 Len=  274
 Calling FoFJK, ICntrl=      2127 FMM=F ISym2X=0 I1Cent= 0 IOpClX= 0 NMat=1 NMatS=1 NMatT=0.
 ***** Axes restored to original set *****
 -------------------------------------------------------------------
 Center     Atomic                   Forces (Hartrees/Bohr)
 Number     Number              X              Y              Z
 -------------------------------------------------------------------
      1        6           0.000682973    0.001683855   -0.001504352
      2        6          -0.005931813    0.000182266    0.000143754
      3        6           0.001010629   -0.000378974    0.004120272
      4        6           0.000794345   -0.004182998   -0.000239067
      5        8           0.007268436   -0.000579369    0.000139841
      6        6          -0.000993615    0.000002627    0.000051168
      7        8           0.002432791   -0.000564873    0.000367582
      8        7          -0.000214306   -0.001123866    0.000989808
      9        6          -0.007528680    0.003486288   -0.002663335
     10        6           0.003080102    0.004004921   -0.003655396
     11        8           0.002399950   -0.003501032    0.002938091
     12        8           0.000176159    0.003251238   -0.002846775
     13        1          -0.000224802   -0.000945984    0.000675253
     14        1          -0.000873203    0.000117371   -0.000059720
     15        1          -0.000216575   -0.000785524    0.000858478
     16        1          -0.001034535    0.000629320   -0.001388272
     17        1          -0.000994336    0.000262944   -0.000657701
     18        1          -0.000633663    0.000535361   -0.000250116
     19        1          -0.000965967    0.000737804   -0.000114647
     20        1          -0.000642326    0.000353056   -0.000457375
     21        1          -0.000982519    0.001510286   -0.000376032
     22        1           0.002351292   -0.000634435    0.000437261
     23        1           0.000163687   -0.000894968    0.001423123
     24        1           0.000125717   -0.001538784    0.000684922
     25        1           0.000750259   -0.001626531    0.001383234
 -------------------------------------------------------------------
 Cartesian Forces:  Max     0.007528680 RMS     0.002103751

 GradGradGradGradGradGradGradGradGradGradGradGradGradGradGradGradGradGrad
 Berny optimization.
 Using GEDIIS/GDIIS optimizer.
 FormGI is forming the generalized inverse of G from B-inverse, IUseBI=4.
 Internal  Forces:  Max     0.012045378 RMS     0.001984846
 Search for a local minimum.
 Step number   2 out of a maximum of  125
 All quantities printed in internal units (Hartrees-Bohrs-Radians)
 Mixed Optimization -- RFO/linear search
 Update second derivatives using D2CorX and points    1    2
 DE= -4.90D-03 DEPred=-5.51D-03 R= 8.91D-01
 TightC=F SS=  1.41D+00  RLast= 2.50D-01 DXNew= 5.0454D-01 7.5043D-01
 Trust test= 8.91D-01 RLast= 2.50D-01 DXMaxT set to 5.05D-01
 ITU=  1  0
 Use linear search instead of GDIIS.
     Eigenvalues ---    0.00284   0.00333   0.00334   0.00564   0.01010
     Eigenvalues ---    0.01020   0.01074   0.01551   0.02264   0.02291
     Eigenvalues ---    0.02341   0.02386   0.04479   0.05385   0.05519
     Eigenvalues ---    0.05547   0.05548   0.05611   0.05642   0.05707
     Eigenvalues ---    0.05714   0.06504   0.06915   0.09288   0.12874
     Eigenvalues ---    0.14672   0.16000   0.16000   0.16000   0.16000
     Eigenvalues ---    0.16000   0.16000   0.16000   0.16000   0.16000
     Eigenvalues ---    0.16027   0.16132   0.16514   0.21685   0.22331
     Eigenvalues ---    0.24232   0.25000   0.25000   0.25000   0.27336
     Eigenvalues ---    0.28834   0.29173   0.29604   0.33219   0.33858
     Eigenvalues ---    0.34097   0.34134   0.34147   0.34200   0.34201
     Eigenvalues ---    0.34225   0.34337   0.34338   0.34355   0.34710
     Eigenvalues ---    0.38445   0.42568   0.45412   0.51156   0.53885
     Eigenvalues ---    0.55132   0.55719   0.90418   0.95595
 RFO step:  Lambda=-1.59409915D-03 EMin= 2.83870743D-03
 Quartic linear search produced a step of -0.06090.
 Iteration  1 RMS(Cart)=  0.04074024 RMS(Int)=  0.00039936
 Iteration  2 RMS(Cart)=  0.00078007 RMS(Int)=  0.00004395
 Iteration  3 RMS(Cart)=  0.00000009 RMS(Int)=  0.00004395
 Variable       Old X    -DE/DX   Delta X   Delta X   Delta X     New X
                                 (Linear)    (Quad)   (Total)
    R1        2.87429   0.00039   0.00178  -0.00508  -0.00330   2.87099
    R2        2.06294  -0.00078   0.00053  -0.00402  -0.00349   2.05945
    R3        2.05714   0.00083   0.00075  -0.00040   0.00034   2.05748
    R4        2.06294  -0.00078   0.00053  -0.00401  -0.00348   2.05946
    R5        2.87304   0.00221   0.00143   0.00194   0.00337   2.87641
    R6        2.87303   0.00221   0.00142   0.00196   0.00338   2.87640
    R7        2.72353   0.00973   0.00110   0.01988   0.02098   2.74451
    R8        2.05855  -0.00170   0.00055  -0.00659  -0.00604   2.05251
    R9        2.06317  -0.00024   0.00046  -0.00232  -0.00185   2.06132
   R10        2.05988   0.00054   0.00061  -0.00073  -0.00011   2.05977
   R11        2.06318  -0.00024   0.00047  -0.00233  -0.00186   2.06132
   R12        2.05989   0.00053   0.00061  -0.00073  -0.00011   2.05978
   R13        2.05855  -0.00170   0.00055  -0.00659  -0.00604   2.05251
   R14        2.53986   0.00119   0.00079  -0.00077   0.00002   2.53988
   R15        2.28565   0.00038   0.00121  -0.00392  -0.00270   2.28295
   R16        2.55465   0.00204   0.00056   0.00155   0.00212   2.55677
   R17        2.71859  -0.00295   0.00093  -0.01041  -0.00949   2.70910
   R18        1.90540  -0.00065   0.00059  -0.00344  -0.00285   1.90255
   R19        2.82605   0.00688   0.00227   0.01268   0.01495   2.84100
   R20        2.06370   0.00056   0.00022   0.00073   0.00095   2.06465
   R21        2.06370   0.00056   0.00022   0.00071   0.00093   2.06464
   R22        2.27108  -0.00475   0.00233  -0.01295  -0.01062   2.26046
   R23        2.53065  -0.00025   0.00096  -0.00384  -0.00288   2.52777
   R24        1.83278  -0.00097   0.00124  -0.00616  -0.00492   1.82786
    A1        1.93048  -0.00080   0.00023  -0.00499  -0.00476   1.92571
    A2        1.91692   0.00061   0.00212  -0.00511  -0.00299   1.91393
    A3        1.93047  -0.00080   0.00022  -0.00497  -0.00475   1.92572
    A4        1.89996  -0.00001  -0.00049   0.00075   0.00026   1.90022
    A5        1.88531   0.00102  -0.00176   0.01403   0.01228   1.89759
    A6        1.89997  -0.00001  -0.00048   0.00074   0.00025   1.90022
[...]
 739,0.00151655,-0.01141451,-0.03175010,-0.00948996,-0.01908841,-0.0575
 7095,-0.06268620,0.00187138,0.00046639,-0.00631023,-0.00181173,0.00134
 587,0.00277023,0.00078624,-0.00054780,0.00039814,-0.00013770,0.0001138
 1,-0.00013366,-0.00012510,-0.00005028,0.00004025,0.00006662,-0.0000448
 6,0.00001429,0.00006817,-0.00002085,0.00000829,-0.00003693,0.00001732,
 -0.00000245,-0.00005638,0.00001235,-0.00000832,-0.00008255,0.00083583,
 -0.00042782,-0.00000551,0.00006581,-0.00006035,0.00022252,0.00027570,0
 .00029834,0.00748722,0.01617238,0.00489724,0.02129444,0.06751567,0.069
 16524,-0.00015579,0.00004035,-0.00102995,-0.00718973,-0.00111603,-0.00
 106986,-0.30732927,-0.02039907,0.04758168,-0.00011790,-0.00027529,-0.0
 0039867,0.00055313,0.00101363,0.00149344,0.00153256,0.00000046,-0.0005
 6059,-0.00073421,0.00043026,0.00069768,-0.00066260,-0.00023437,0.00012
 609,0.00017747,-0.00017122,0.00007765,0.00026908,0.00006037,-0.0000699
 7,-0.00013541,-0.00004754,0.00005616,-0.00018648,0.00000967,0.00000398
 ,-0.00002041,0.00010931,0.00015169,0.00071322,-0.00006534,-0.00019734,
 0.00037283,0.00009884,0.00001307,-0.01348811,-0.00247231,0.00315752,-0
 .00784121,0.00016620,0.00119855,0.33353520,-0.00006159,-0.00001787,0.0
 0029605,0.00507337,-0.00157796,-0.00017553,-0.02037803,-0.04742050,0.0
 0352217,-0.00001563,-0.00001044,0.00012920,0.00013854,0.00116371,-0.00
 062876,-0.00011717,-0.00113159,0.00091596,0.00101241,-0.00017407,-0.00
 105035,0.00030952,0.00029406,-0.00008530,-0.00004850,0.00004811,-0.000
 01567,-0.00005146,-0.00001803,0.00001426,0.00002903,0.00001988,-0.0000
 1226,0.00003156,0.00000121,-0.00000132,-0.00017460,-0.00006252,0.00000
 706,0.00003144,0.00022608,0.00045815,0.00008123,-0.00016052,-0.0000885
 7,0.02086033,0.00295977,-0.00571888,-0.02934140,-0.00085573,0.00626536
 ,0.02254967,0.04699123,0.00047607,0.00016043,0.00110750,0.03001837,0.0
 0357340,-0.00194768,0.04391137,0.00284782,-0.05532380,-0.00021339,0.00
 026906,0.00092164,0.00669655,-0.00167881,-0.00702149,-0.00252564,0.002
 84416,-0.00299033,-0.00061328,-0.00073401,0.00162516,0.00074948,-0.000
 20930,0.00033084,-0.00006098,0.00016079,-0.00000670,-0.00008628,-0.000
 04628,0.00004857,0.00004916,0.00002061,-0.00001245,0.00008633,0.000001
 64,-0.00000628,-0.00006469,0.00009522,-0.00006397,-0.00046816,0.000284
 69,-0.00083273,-0.00017934,-0.00019016,0.00036569,-0.01748172,-0.00370
 454,0.00366981,-0.00852702,0.00038127,0.00056610,-0.05123205,-0.003494
 44,0.05972315,-0.00027812,0.00035147,0.00022309,-0.00033302,-0.0022276
 3,-0.00839160,-0.00028276,-0.00141385,-0.00044400,-0.06155862,0.009882
 21,0.06177087,0.00141397,0.00053971,-0.00031712,-0.00051561,0.00033663
 ,-0.00060470,-0.00018935,-0.00010195,0.00041503,0.00009866,-0.00001747
 ,0.00008655,-0.00005683,0.00002799,-0.00004922,-0.00011452,-0.00002896
 ,0.00002109,0.00005411,0.00002610,-0.00001126,0.00007760,-0.00000187,0
 .00000276,-0.00008617,-0.00000703,-0.00018432,0.00000282,0.00006036,0.
 00015182,0.00023607,0.00035056,0.00001091,-0.00000498,-0.00003909,0.00
 025394,0.00057224,-0.00022037,-0.00039400,0.00030113,-0.00007049,-0.00
 022537,0.06214717,-0.00012335,0.00157946,-0.00125708,0.00896956,-0.005
 48155,-0.03171215,-0.00205891,-0.00587874,-0.00037902,0.00801705,-0.05
 172085,-0.03062608,0.00202190,0.00233909,0.00143645,-0.00074611,0.0004
 7237,-0.00027679,0.00022304,-0.00011622,0.00000634,0.00014880,0.000049
 94,-0.00008595,-0.00006519,0.00002823,-0.00003370,-0.00006022,0.000015
 58,-0.00001427,0.00003432,-0.00000864,0.00001218,0.00005086,-0.0000129
 1,0.00000603,-0.00016822,0.00027318,0.00030434,0.00002425,-0.00006750,
 0.00004545,0.00005621,-0.00054647,0.00068387,-0.00010137,-0.00002930,-
 0.00000006,0.00020500,-0.00025751,-0.00201192,0.00010666,0.00001396,0.
 00024974,-0.00858331,0.05624084,-0.00012668,0.00087540,0.00045453,0.00
 310877,-0.00063063,-0.01105688,-0.00111032,-0.00238117,0.00095255,0.06
 143013,-0.03391946,-0.29716989,-0.00037762,0.00092402,0.00146154,-0.00
 015828,0.00015718,-0.00102298,-0.00055914,-0.00025152,0.00043615,-0.00
 021206,-0.00006064,0.00021496,-0.00000055,-0.00004523,-0.00001939,-0.0
 0001825,0.00000459,-0.00002073,0.00000381,0.00000353,0.00002485,0.0000
 1219,0.00000158,0.00001369,-0.00014973,-0.00000921,0.00025893,-0.00014
 110,-0.00004234,0.00002400,0.00022845,-0.00015159,0.00065918,0.0001175
 3,0.00011604,0.00031785,0.00019133,-0.00030262,-0.00056799,0.00003516,
 0.00018864,0.00016010,-0.06752567,0.03857406,0.32185537,-0.00011771,0.
 00110627,0.00012578,-0.00898422,0.00122171,0.00186865,-0.00006420,0.00
 041720,0.00035303,-0.30903013,-0.03707807,0.02871315,0.00000232,-0.001
 76431,-0.00130270,0.00170252,0.00033083,0.00006813,-0.00080456,-0.0005
 4515,-0.00051898,-0.00071097,-0.00010638,0.00025926,0.00018676,-0.0001
 1143,0.00015955,0.00027584,0.00006751,-0.00006883,-0.00013959,-0.00005
 655,0.00004924,-0.00019250,0.00000640,0.00000085,0.00037123,0.00000060
 ,-0.00013711,0.00074863,0.00012125,0.00007275,-0.00002207,-0.00013802,
 -0.00012570,-0.00014119,-0.00006280,0.00006940,0.00031017,-0.00001969,
 -0.00011070,0.00052908,-0.00005435,-0.00026240,-0.00592223,-0.00052674
 ,0.00003575,0.33550419,-0.00040540,0.00099427,0.00032197,-0.02850068,-
 0.00101644,0.00502123,0.00027659,0.00082009,0.00035584,-0.03348148,-0.
 05188883,0.00288717,-0.00708787,-0.00614609,-0.00227892,0.00237020,-0.
 00359955,0.00238628,0.00084456,0.00181892,-0.00048196,-0.00065843,0.00
 040942,-0.00017212,0.00005194,-0.00002242,0.00014002,0.00006534,0.0000
 4450,-0.00003794,-0.00003760,-0.00000802,0.00001629,-0.00007196,-0.000
 00251,0.00000519,0.00018279,0.00038410,-0.00011938,0.00039233,-0.00094
 204,0.00010095,0.00004329,-0.00007284,0.00009713,0.00004285,0.00001629
 ,-0.00003526,0.00021794,0.00008910,0.00025447,0.00018163,-0.00019255,-
 0.00062207,0.00482974,-0.00053879,0.00019124,0.03991662,0.05576904,0.0
 0002825,0.00037701,0.00005659,-0.00867311,0.00009441,-0.00071331,0.000
 06380,0.00022195,0.00003726,0.02922487,0.00374204,-0.04915489,-0.00109
 303,-0.00153905,0.00083852,0.00035513,0.00055281,-0.00068948,-0.000930
 75,-0.00069756,-0.00029729,-0.00035694,-0.00004841,0.00026331,0.000048
 13,-0.00002214,0.00005451,0.00004692,0.00001691,-0.00002082,-0.0000271
 3,-0.00001181,0.00001966,-0.00003206,-0.00000059,0.00000350,-0.0000884
 0,-0.00000960,-0.00017738,0.00002242,0.00029301,0.00029995,0.00018031,
 0.00000378,-0.00005198,-0.00016636,0.00004963,-0.00005124,0.00009708,0
 .00019641,0.00007587,0.00001202,-0.00055008,-0.00034230,0.03084771,0.0
 0486444,-0.00166983,-0.03187462,-0.00315503,0.04897561,-0.00006705,-0.
 00150013,-0.00037758,0.00450024,-0.00640101,0.00602897,-0.00028413,0.0
 0017934,0.00025577,-0.11343290,0.09415206,-0.07645765,-0.00018558,0.00
 170792,-0.00022789,-0.00071601,-0.00292683,0.00181242,-0.00264795,0.00
 034377,-0.00207250,0.00058772,0.00049104,-0.00045301,-0.00019094,0.000
 12797,-0.00009990,-0.00026872,-0.00006932,0.00008636,0.00013313,0.0000
 6586,-0.00006554,0.00017392,-0.00000327,-0.00000582,0.00058502,-0.0004
 6637,-0.00002058,0.00038545,-0.00017592,-0.00001345,-0.00012852,0.0000
 5308,-0.00024798,0.00028125,0.00018731,-0.00000443,-0.00001783,-0.0001
 0504,0.00008725,-0.00013399,0.00017659,-0.00001347,0.00447467,-0.00741
 974,0.00525807,-0.01351491,0.02079975,-0.01766557,0.12043958,-0.002679
 13,-0.00515522,-0.00291726,0.01766723,-0.02096725,0.01814399,0.0001628
 5,0.00135943,0.00143630,0.08983352,-0.17121071,0.10335799,-0.00077379,
 0.00269742,-0.00053736,-0.00096607,-0.00315128,0.00242879,0.00139318,0
 .00205635,-0.00063438,0.00047756,0.00049202,-0.00067028,-0.00018710,0.
 00010377,-0.00009670,-0.00021263,-0.00005955,0.00005532,0.00011294,0.0
 0006573,-0.00005683,0.00012580,-0.00000240,-0.00000751,0.00096714,-0.0
 0134703,0.00104491,0.00005876,0.00019630,-0.00015599,-0.00014808,0.000
 15865,-0.00004121,-0.00004326,-0.00003061,-0.00101607,-0.00023830,0.00
 031417,0.00005403,-0.00007541,-0.00005682,-0.00003938,-0.00362037,0.00
 368647,-0.00320179,-0.00284684,0.00405534,-0.00437916,-0.09907017,0.18
 690634,-0.00039669,-0.00195758,-0.00033888,0.00680162,-0.00664905,0.00
 505011,0.00058689,-0.00029883,0.00109888,-0.07613392,0.10676280,-0.138
 01586,0.00005819,0.00079615,-0.00010579,0.00009466,0.00017638,0.000438
 03,-0.00195614,-0.00099979,-0.00153404,0.00007558,0.00013522,-0.000069
 08,-0.00003788,0.00004157,0.00001707,0.00000950,0.00002541,-0.00001687
 ,0.00000051,-0.00002224,0.00001027,0.00000346,-0.00001173,-0.00000148,
 0.00002927,-0.00051867,0.00074493,-0.00018802,0.00002415,-0.00013203,-
 0.00004150,-0.00021793,0.00034459,-0.00022017,-0.00016447,-0.00018160,
 0.00001271,0.00016661,-0.00001279,0.00006343,0.00002753,0.00001467,-0.
 01563067,0.02021076,-0.01523062,0.00271139,-0.00471773,0.00259985,0.08
 412280,-0.11281137,0.14529052,0.00007214,0.00003401,-0.00002725,-0.001
 10574,0.00006570,-0.00004651,0.00028201,0.00001028,0.00005886,0.000265
 67,-0.00007110,-0.00002284,-0.00027637,0.00132406,-0.00118944,0.010184
 13,-0.02287986,0.01913643,-0.00652621,-0.00311734,0.00338186,-0.069316
 55,-0.01221211,0.01422775,0.00580265,0.01924364,-0.01742690,-0.0028181
 4,0.00761626,-0.00640408,0.00211938,-0.00369699,0.00298630,0.00234137,
 -0.00215870,0.00177731,-0.00007824,0.00006238,0.00003985,0.00008923,0.
 00001111,-0.00001599,-0.00008751,-0.00002722,-0.00006722,0.00005024,0.
 00000562,-0.00009694,-0.00002752,0.00002483,0.00003133,0.00002388,0.00
 001905,-0.00013065,-0.00003412,-0.00002843,-0.00003246,0.00003213,0.00
 012385,-0.00000527,0.00005188,0.00009042,0.00000615,0.06545659,0.00009
 609,0.00013554,-0.00001695,-0.00123827,-0.00042434,-0.00034612,0.00032
 508,0.00011527,0.00001268,0.00011279,-0.00001863,0.00006118,0.00381346
 ,-0.00079466,-0.00032035,-0.00400057,-0.00872686,0.00177839,0.00052644
 ,0.00547303,0.00103363,-0.01197255,-0.25626554,0.22641656,0.00097471,-
 0.00852587,0.00167233,-0.00020309,0.00199808,0.00017528,-0.00165457,-0
 .00230126,-0.00031963,0.00037043,-0.00066186,0.00069665,0.00004263,-0.
 00007732,-0.00005832,0.00004166,-0.00007241,0.00002945,-0.00002263,0.0
 0004228,0.00000118,-0.00004588,0.00001446,0.00001650,-0.00000386,-0.00
 004141,-0.00001875,0.00004176,-0.00001141,-0.00012838,-0.00006461,-0.0
 0002441,-0.00004834,0.00008107,0.00000511,-0.00001741,-0.00010502,-0.0
 0007761,0.00001494,0.01290925,0.27114579,-0.00008137,-0.00001384,0.000
 13777,0.00109224,-0.00041139,-0.00058681,-0.00008070,0.00008465,-0.000
 00510,-0.00031902,0.00001407,0.00014523,-0.00336466,-0.00019555,-0.000
 60383,0.00263829,0.00271211,-0.00942359,0.00019986,0.00121812,0.005614
 08,0.01402252,0.22643386,-0.19627539,-0.00146558,0.00075952,-0.0071487
 4,0.00042666,-0.00021368,0.00235252,0.00120228,-0.00021796,-0.00263073
 ,-0.00043249,0.00082239,-0.00054021,0.00003479,-0.00001955,0.00003113,
 -0.00004268,0.00003096,-0.00006120,-0.00004889,-0.00003835,-0.00007920
 ,0.00009407,0.00002209,-0.00007452,0.00006197,-0.00005515,-0.00003880,
 -0.00007794,-0.00001656,-0.00000367,-0.00000643,-0.00001517,-0.0000492
 0,-0.00004052,-0.00013020,-0.00002848,0.00003079,-0.00000293,0.0000157
 2,-0.01412456,-0.23030942,0.21014592,-0.00005348,-0.00002940,0.0000268
 9,0.00053772,-0.00011928,-0.00032393,-0.00003275,0.00000405,-0.0000196
 0,-0.00019850,0.00000899,0.00003035,-0.00179057,-0.00034079,-0.0005294
 6,0.00516073,0.00581359,-0.00338510,0.00040165,-0.00301496,0.00162459,
 -0.01145658,0.03272816,0.00111471,-0.04753627,-0.00333568,0.00005553,0
 .00496596,-0.02599831,-0.01141328,-0.00270192,-0.00007869,0.00532328,-
 0.00199091,0.00177696,0.00125011,0.00001795,-0.00001250,-0.00000045,-0
 .00003156,0.00001186,-0.00000496,0.00001213,-0.00000050,0.00000633,0.0
 0001459,-0.00000986,0.00002127,0.00001235,-0.00001261,-0.00001325,-0.0
 0001425,-0.00001048,0.00002846,-0.00000283,0.00001920,-0.00001840,-0.0
 0002983,-0.00006978,-0.00002218,-0.00001334,0.00001202,0.00002170,-0.0
 0291300,0.00185747,0.00207816,0.05583051,0.00003235,0.00001434,-0.0000
 1918,-0.00029726,0.00002311,0.00006708,0.00007735,0.00000779,-0.000001
 42,0.00006620,-0.00000167,-0.00002638,0.00069966,-0.00006735,-0.000341
 06,-0.00291310,-0.00138087,0.00246470,0.00013117,0.00106245,-0.0012975
 9,0.01056599,-0.00993089,0.00430111,0.00224104,-0.29412454,-0.06059491
 ,-0.00058129,-0.01720234,-0.00256217,-0.00178124,0.00138833,0.00044247
 ,0.00108108,0.00163179,0.00030963,-0.00001115,0.00000473,0.00000039,0.
 00002104,-0.00000482,0.00000536,-0.00000802,-0.00000009,0.00000210,-0.
 00002449,-0.00000125,0.00002777,-0.00001085,0.00000071,0.00000938,0.00
 002924,-0.00000821,-0.00001552,-0.00000342,-0.00000604,0.00000581,0.00
 001964,0.00002198,0.00000933,-0.00002052,-0.00000964,-0.00000804,0.001
 00231,-0.00115885,-0.00191056,-0.00906885,0.32311678,-0.00001315,-0.00
 000626,0.00001310,0.00018197,-0.00007310,-0.00007643,-0.00001031,-0.00
 002390,0.00001373,-0.00005504,-0.00002063,0.00005100,-0.00027234,0.000
 10955,-0.00038692,0.00044345,-0.00078038,0.00157660,-0.00095147,0.0004
 2114,-0.00068660,-0.00085660,0.01558702,0.00341871,-0.00014588,-0.0609
 9430,-0.05805203,0.00007041,0.01761413,0.00356828,0.00195693,-0.000047
 66,-0.00344506,-0.00071914,-0.00080360,-0.00016443,0.00000527,-0.00000
 095,-0.00000322,-0.00001133,0.00000210,-0.00000184,0.00000148,0.000002
 61,-0.00000353,0.00001346,-0.00000628,-0.00002240,-0.00000083,0.000010
 40,-0.00000891,-0.00001326,0.00001006,0.00000068,-0.00000923,0.0000116
 4,-0.00002069,-0.00001589,-0.00001258,-0.00001846,0.00001773,0.0000187
 3,0.00001156,-0.00121664,0.00129219,0.00008953,0.00351222,0.06034848,0
 .06298904,-0.00005416,-0.00002811,0.00002885,0.00056308,0.00027617,0.0
 0012676,-0.00019968,-0.00001722,-0.00000264,-0.00003490,0.00002248,-0.
 00000019,-0.00175478,0.00052707,0.00050658,0.00516092,0.00408981,-0.00
 566954,0.00050156,-0.00214434,0.00279731,-0.01349266,0.00425945,-0.031
 33098,-0.04844744,-0.00192815,-0.01262075,0.00689252,0.00755531,0.0270
 3890,-0.00301092,-0.00530877,-0.00043275,-0.00214839,-0.00089408,-0.00
 177034,0.00001205,-0.00000704,-0.00000093,-0.00003209,0.00000826,-0.00
 000935,0.00001874,-0.00000234,0.00001152,-0.00001506,-0.00001894,-0.00
 001342,-0.00000210,0.00001998,-0.00001614,-0.00002504,0.00001329,0.000
 07377,0.00001427,0.00001059,0.00001409,-0.00001600,-0.00002949,0.00000
 746,0.00001419,-0.00002291,0.00000564,-0.00309011,-0.00174741,-0.00194
 151,0.00136625,-0.00097231,-0.00175660,0.05733492,0.00002049,0.0000170
 5,-0.00000836,-0.00025594,-0.00007641,-0.00007987,0.00007520,0.0000540
 6,-0.00001630,0.00002174,0.00001489,-0.00002378,0.00043574,-0.00039492
 ,0.00002594,-0.00104015,0.00114175,-0.00009323,0.00091888,-0.00048209,
 0.00001339,0.00390491,0.00019164,0.01840978,-0.00101053,-0.04604754,-0
 .02711143,0.00070454,0.00079366,0.01875066,-0.00223143,-0.00303953,-0.
 00054799,0.00089995,-0.00006280,-0.00099208,-0.00000321,-0.00000362,0.
 00000226,0.00001558,-0.00000400,0.00000203,-0.00000788,-0.00000255,-0.
 00000217,-0.00001787,0.00001164,0.00002315,0.00000819,-0.00002419,0.00
 000969,0.00001771,-0.00001884,-0.00002253,-0.00000140,-0.00001187,0.00
 000811,0.00001849,0.00000182,0.00000998,-0.00001903,-0.00002287,-0.000
 00880,0.00158001,0.00016501,0.00148753,-0.00047968,-0.00378354,-0.0324
 4596,-0.00360968,0.05202236,-0.00002747,-0.00001579,0.00001102,0.00024
 136,0.00002477,-0.00000221,-0.00004802,-0.00001457,-0.00000353,-0.0000
 7289,0.00000233,0.00000876,-0.00058065,-0.00037753,-0.00009485,0.00260
 725,0.00246144,-0.00094665,-0.00005233,-0.00139550,0.00075850,-0.00968
 991,0.00600298,-0.00466729,-0.01809050,-0.02638872,-0.30522094,-0.0006
 6385,-0.00050161,-0.01635577,0.00173326,0.00001113,0.00129303,-0.00076
 107,0.00017571,0.00168754,0.00000715,0.00000156,0.00000009,-0.00001739
 ,0.00000612,-0.00000215,0.00000947,-0.00000105,0.00000326,0.00001808,-
 0.00000521,-0.00000806,0.00000470,0.00000215,-0.00000332,-0.00001448,0
 .00000405,0.00001758,0.00001059,0.00000658,0.00000175,-0.00002742,-0.0
 0001121,-0.00000762,0.00002287,0.00002470,-0.00000039,-0.00080620,-0.0
 0159235,-0.00105755,0.00055375,-0.00182193,-0.00844235,0.02532689,0.02
 292396,0.33258178,0.00001569,0.00000070,-0.00000118,-0.00027677,-0.000
 00731,0.00002015,0.00004259,0.00000697,-0.00001674,0.00004277,0.000015
 21,-0.00000675,0.00036556,-0.00015469,0.00011297,-0.00117392,0.0001762
 4,-0.00008128,0.00036203,0.00022702,-0.00021980,-0.00005939,-0.0008631
 4,0.00079058,-0.00277960,0.00495416,-0.00400815,-0.04954955,-0.0222343
 7,0.02208964,0.00987254,-0.00237332,0.00127651,-0.27830732,-0.14680630
 ,0.14129903,-0.00001297,0.00000447,0.00000342,0.00002036,0.00000340,-0
 .00000397,-0.00001343,-0.00000209,-0.00000452,-0.00002425,-0.00000219,
 0.00001856,-0.00001274,0.00000411,0.00000721,0.00002683,-0.00000233,-0
 .00000512,-0.00001354,-0.00000585,-0.00000500,0.00002724,0.00000325,0.
 00000134,-0.00002516,-0.00001736,0.00000148,-0.00049779,-0.00013436,0.
 00014470,0.00044595,-0.00027459,-0.00015523,0.00044483,0.00005537,0.00
 031679,0.32108004,0.00000646,0.00000544,-0.00000117,-0.00002336,-0.000
 00691,0.00000602,0.00000761,0.00000537,0.00000031,0.00000213,-0.000003
 21,0.00000010,0.00012169,-0.00006087,-0.00002043,0.00001110,0.00005623
 ,0.00019764,-0.00000104,-0.00003731,-0.00002687,0.00081515,0.00054459,
 0.00007574,0.00223564,0.00103213,0.00218354,0.01255184,0.01593957,-0.0
 1096107,-0.00131693,-0.00618784,0.00009585,-0.18220405,-0.15071476,0.1
 2718802,0.00000100,-0.00000545,-0.00000277,0.00000155,-0.00000240,0.00
 000232,-0.00000004,0.00000269,-0.00000109,-0.00000111,0.00000230,0.000
 00312,0.00000062,-0.00000660,-0.00000116,0.00000083,-0.00000097,-0.000
 00342,-0.00000297,0.00000169,-0.00000565,0.00000272,0.00000009,-0.0000
 0088,-0.00000231,-0.00000100,0.00000472,0.00006896,0.00008788,-0.00003
 501,0.00034908,0.00040811,-0.00021247,-0.00005161,-0.00043911,0.000478
 00,0.16742702,0.13938035,-0.00000619,-0.00000088,0.00000555,0.00003410
 ,0.00000521,-0.00000762,-0.00000338,0.00000104,-0.00000220,-0.00000922
 ,-0.00000124,0.00000619,-0.00012837,-0.00000665,-0.00006507,0.00006283
 ,0.00018949,0.00011447,-0.00002049,-0.00003821,-0.00003372,-0.00067547
 ,0.00015912,0.00057246,-0.00163216,0.00204911,0.00195024,-0.00830079,-
 0.00923380,0.01258341,0.00035397,0.00014906,-0.00630017,0.17222178,0.1
 2542895,-0.13360628,0.00000090,-0.00000243,0.00000199,-0.00000235,0.00
 000223,-0.00000148,-0.00000077,-0.00000150,-0.00000569,0.00000360,0.00
 000517,-0.00000099,0.00000347,-0.00000714,0.00000024,-0.00000401,-0.00
 000077,-0.00000008,-0.00000076,0.00000030,-0.00000725,-0.00000207,-0.0
 0000339,-0.00000157,0.00000234,0.00000347,0.00000324,-0.00003292,-0.00
 002493,0.00007512,0.00008326,0.00060514,-0.00039935,-0.00037266,-0.000
 31396,0.00044937,-0.16157465,-0.11896339,0.12466920\\-0.00000333,0.000
 00525,-0.00000393,-0.00003180,-0.00000331,-0.00000206,0.00001258,0.000
 00343,0.00000068,0.00000234,-0.00000920,-0.00000009,0.00005274,-0.0000
 0423,0.00003086,-0.00000486,-0.00003073,-0.00005319,-0.00000652,0.0000
 1423,0.00002782,0.00002395,0.00000740,0.00001389,-0.00001093,0.0000227
 4,-0.00000640,0.00000909,-0.00001230,-0.00002074,-0.00001043,0.0000061
 5,0.00000652,-0.00000311,-0.00000104,0.00001031,-0.00000337,-0.0000033
 4,-0.00000172,-0.00000294,0.00000261,-0.00000220,-0.00000318,0.0000013
 2,0.00000434,-0.00000145,-0.00000258,-0.00000046,-0.00000298,-0.000003
 68,-0.00000172,0.00000522,-0.00000266,-0.00000203,-0.00000244,0.000001
 49,0.00000368,0.00000313,0.00000321,0.00000020,-0.00000608,0.00000260,
 -0.00000240,0.00000657,0.00000033,0.00000031,-0.00000114,0.00000400,-0
 .00000072,-0.00000198,-0.00000101,-0.00000272,-0.00001908,-0.00000067,
 0.00000177\\\@
 The archive entry for this job was punched.


    THE DOUGHNUT CREED
 AS YOU RAMBLE ON THROUGH LIFE, BROTHER
 WHATEVER BE YOUR GOAL
 KEEP YOUR EYE UPON THE DOUGHNUT
 AND NOT UPON THE HOLE.
 Job cpu time:       0 days  3 hours 21 minutes  6.6 seconds.
 Elapsed time:       0 days  0 hours 25 minutes 21.7 seconds.
 File lengths (MBytes):  RWF=    466 Int=      0 D2E=      0 Chk=     17 Scr=      1
 Normal termination of Gaussian 16 at Mon Jan 29 10:21:21 2024.
