Job Start Time: Mon Jan 29 09:34:01 MST 2024
SLURM Job ID: 229517
SLURM Job Name: Ac4_rdkit_conf_3
 Entering Gaussian System, Link 0=/opt/apps/Gaussian/G16C/g16/g16
 Initial command:
 /opt/apps/Gaussian/G16C/g16/l1.exe "/tmp/Gau-1609982.inp" -scrdir="/tmp/"
 Entering Link 1 = /opt/apps/Gaussian/G16C/g16/l1.exe PID=   1609983.
  
 Copyright (c) 1988-2019, Gaussian, Inc.  All Rights Reserved.
  
 This is part of the Gaussian(R) 16 program.  It is based on
 the Gaussian(R) 09 system (copyright 2009, Gaussian, Inc.),
 the Gaussian(R) 03 system (copyright 2003, Gaussian, Inc.),
 the Gaussian(R) 98 system (copyright 1998, Gaussian, Inc.),
 the Gaussian(R) 94 system (copyright 1995, Gaussian, Inc.),
 the Gaussian 92(TM) system (copyright 1992, Gaussian, Inc.),
 the Gaussian 90(TM) system (copyright 1990, Gaussian, Inc.),
 the Gaussian 88(TM) system (copyright 1988, Gaussian, Inc.),
 the Gaussian 86(TM) system (copyright 1986, Carnegie Mellon
 University), and the Gaussian 82(TM) system (copyright 1983,
 Carnegie Mellon University). Gaussian is a federally registered
 trademark of Gaussian, Inc.
  
 This software contains proprietary and confidential information,
 including trade secrets, belonging to Gaussian, Inc.
  
 This software is provided under written license and may be
 used, copied, transmitted, or stored only in accord with that
 written license.
  
 The following legend is applicable only to US Government
 contracts under FAR:
  
                    RESTRICTED RIGHTS LEGEND
  
 Use, reproduction and disclosure by the US Government is
 subject to restrictions as set forth in subparagraphs (a)
 and (c) of the Commercial Computer Software - Restricted
 Rights clause in FAR 52.227-19.
  
 Gaussian, Inc.
 340 Quinnipiac St., Bldg. 40, Wallingford CT 06492
  
  
 ---------------------------------------------------------------
 Warning -- This program may not be used in any manner that
 competes with the business of Gaussian, Inc. or will provide
 assistance to any competitor of Gaussian, Inc.  The licensee
 of this program is prohibited from giving any competitor of
 Gaussian, Inc. access to this program.  By using this program,
 the user acknowledges that Gaussian, Inc. is engaged in the
 business of creating and licensing software in the field of
 computational chemistry and represents and warrants to the
 licensee that it is not a competitor of Gaussian, Inc. and that
 it will not use this program in any manner prohibited above.
 ---------------------------------------------------------------
  

 Cite this work as:
 Gaussian 16, Revision C.01,
 M. J. Frisch, G. W. Trucks, H. B. Schlegel, G. E. Scuseria, 
 M. A. Robb, J. R. Cheeseman, G. Scalmani, V. Barone, 
 G. A. Petersson, H. Nakatsuji, X. Li, M. Caricato, A. V. Marenich, 
 J. Bloino, B. G. Janesko, R. Gomperts, B. Mennucci, H. P. Hratchian, 
 J. V. Ortiz, A. F. Izmaylov, J. L. Sonnenberg, D. Williams-Young, 
 F. Ding, F. Lipparini, F. Egidi, J. Goings, B. Peng, A. Petrone, 
 T. Henderson, D. Ranasinghe, V. G. Zakrzewski, J. Gao, N. Rega, 
 G. Zheng, W. Liang, M. Hada, M. Ehara, K. Toyota, R. Fukuda, 
 J. Hasegawa, M. Ishida, T. Nakajima, Y. Honda, O. Kitao, H. Nakai, 
 T. Vreven, K. Throssell, J. A. Montgomery, Jr., J. E. Peralta, 
 F. Ogliaro, M. J. Bearpark, J. J. Heyd, E. N. Brothers, K. N. Kudin, 
 V. N. Staroverov, T. A. Keith, R. Kobayashi, J. Normand, 
 K. Raghavachari, A. P. Rendell, J. C. Burant, S. S. Iyengar, 
 J. Tomasi, M. Cossi, J. M. Millam, M. Klene, C. Adamo, R. Cammi, 
 J. W. Ochterski, R. L. Martin, K. Morokuma, O. Farkas, 
 J. B. Foresman, and D. J. Fox, Gaussian, Inc., Wallingford CT, 2019.
 
 ******************************************
 Gaussian 16:  AS64L-G16RevC.01  3-Jul-2019
                29-Jan-2024 
 ******************************************
 %nprocshared=8
 Will use up to    8 processors via shared memory.
 %mem=16GB
 ---------------------------------
 # m062x/def2tzvp opt freq=noraman
 ---------------------------------
 1/18=20,19=15,26=3,38=1/1,3;
 2/9=110,12=2,17=6,18=5,40=1/2;
 3/5=44,7=101,11=2,25=1,30=1,71=1,74=-55/1,2,3;
 4//1;
 5/5=2,38=5/2;
 6/7=2,8=2,9=2,10=2,28=1/1;
 7//1,2,3,16;
 1/18=20,19=15,26=3/3(2);
 2/9=110/2;
 99//99;
 2/9=110/2;
 3/5=44,7=101,11=2,25=1,30=1,71=1,74=-55/1,2,3;
 4/5=5,16=3,69=1/1;
 5/5=2,38=5/2;
 7//1,2,3,16;
 1/18=20,19=15,26=3/3(-5);
 2/9=110/2;
 6/7=2,8=2,9=2,10=2,19=2,28=1/1;
 99/9=1/99;
 ----------------
 Ac4_rdkit_conf_3
 ----------------
 Symbolic Z-matrix:
 Charge =  0 Multiplicity = 1
 C                     2.0861    1.3774    0.6418 
 O                     0.667     1.4602    0.7787 
 C                     0.0763    0.2479    0.5347 
 C                     0.2243   -0.7824    1.4707 
 C                    -0.4401   -1.9969    1.2903 
 C                    -1.2732   -2.1801    0.188 
 C                    -1.4419   -1.1479   -0.7366 
 C                    -0.763     0.069    -0.5717 
 C                    -0.9976    1.1115   -1.5914 
 O                    -2.0455    1.2916   -2.186 
 O                     0.1089    1.8089   -1.9018 
 H                     2.5327    0.8947    1.517 
 H                     2.4762    2.3979    0.584 
 H                     2.377     0.851    -0.2746 
 H                     0.8371   -0.6349    2.3558 
 H                    -0.3219   -2.7938    2.0207 
 H                    -1.801    -3.1213    0.0538 
 H                    -2.105    -1.292    -1.5876 
 H                    -0.1964    2.4392   -2.5859 
 

 GradGradGradGradGradGradGradGradGradGradGradGradGradGradGradGradGradGrad
 Berny optimization.
 Initialization pass.
                           ----------------------------
                           !    Initial Parameters    !
                           ! (Angstroms and Degrees)  !
 --------------------------                            --------------------------
 ! Name  Definition              Value          Derivative Info.                !
 --------------------------------------------------------------------------------
 ! R1    R(1,2)                  1.4281         estimate D2E/DX2                !
 ! R2    R(1,12)                 1.0947         estimate D2E/DX2                !
 ! R3    R(1,13)                 1.094          estimate D2E/DX2                !
 ! R4    R(1,14)                 1.0961         estimate D2E/DX2                !
 ! R5    R(2,3)                  1.3705         estimate D2E/DX2                !
 ! R6    R(3,4)                  1.3998         estimate D2E/DX2                !
 ! R7    R(3,8)                  1.4002         estimate D2E/DX2                !
 ! R8    R(4,5)                  1.3961         estimate D2E/DX2                !
 ! R9    R(4,15)                 1.0866         estimate D2E/DX2                !
 ! R10   R(5,6)                  1.3938         estimate D2E/DX2                !
 ! R11   R(5,16)                 1.0874         estimate D2E/DX2                !
 ! R12   R(6,7)                  1.396          estimate D2E/DX2                !
 ! R13   R(6,17)                 1.0874         estimate D2E/DX2                !
 ! R14   R(7,8)                  1.4032         estimate D2E/DX2                !
 ! R15   R(7,18)                 1.0884         estimate D2E/DX2                !
 ! R16   R(8,9)                  1.477          estimate D2E/DX2                !
 ! R17   R(9,10)                 1.2182         estimate D2E/DX2                !
 ! R18   R(9,11)                 1.3443         estimate D2E/DX2                !
 ! R19   R(11,19)                0.979          estimate D2E/DX2                !
 ! A1    A(2,1,12)             110.7514         estimate D2E/DX2                !
 ! A2    A(2,1,13)             107.7765         estimate D2E/DX2                !
 ! A3    A(2,1,14)             111.8207         estimate D2E/DX2                !
 ! A4    A(12,1,13)            107.9426         estimate D2E/DX2                !
 ! A5    A(12,1,14)            110.3872         estimate D2E/DX2                !
 ! A6    A(13,1,14)            108.0082         estimate D2E/DX2                !
 ! A7    A(1,2,3)              111.0975         estimate D2E/DX2                !
 ! A8    A(2,3,4)              119.1083         estimate D2E/DX2                !
 ! A9    A(2,3,8)              120.802          estimate D2E/DX2                !
 ! A10   A(4,3,8)              119.8472         estimate D2E/DX2                !
 ! A11   A(3,4,5)              120.237          estimate D2E/DX2                !
 ! A12   A(3,4,15)             120.29           estimate D2E/DX2                !
 ! A13   A(5,4,15)             119.4555         estimate D2E/DX2                !
 ! A14   A(4,5,6)              120.0663         estimate D2E/DX2                !
 ! A15   A(4,5,16)             119.9338         estimate D2E/DX2                !
 ! A16   A(6,5,16)             119.9899         estimate D2E/DX2                !
 ! A17   A(5,6,7)              119.9241         estimate D2E/DX2                !
 ! A18   A(5,6,17)             120.0985         estimate D2E/DX2                !
 ! A19   A(7,6,17)             119.9733         estimate D2E/DX2                !
 ! A20   A(6,7,8)              120.3271         estimate D2E/DX2                !
 ! A21   A(6,7,18)             119.5762         estimate D2E/DX2                !
 ! A22   A(8,7,18)             120.0967         estimate D2E/DX2                !
 ! A23   A(3,8,7)              119.5826         estimate D2E/DX2                !
 ! A24   A(3,8,9)              123.404          estimate D2E/DX2                !
 ! A25   A(7,8,9)              117.0086         estimate D2E/DX2                !
 ! A26   A(8,9,10)             125.305          estimate D2E/DX2                !
 ! A27   A(8,9,11)             113.2561         estimate D2E/DX2                !
 ! A28   A(10,9,11)            121.241          estimate D2E/DX2                !
 ! A29   A(9,11,19)            103.8079         estimate D2E/DX2                !
 ! D1    D(12,1,2,3)           -76.7877         estimate D2E/DX2                !
 ! D2    D(13,1,2,3)           165.3446         estimate D2E/DX2                !
 ! D3    D(14,1,2,3)            46.7845         estimate D2E/DX2                !
 ! D4    D(1,2,3,4)             71.4929         estimate D2E/DX2                !
 ! D5    D(1,2,3,8)           -114.1737         estimate D2E/DX2                !
 ! D6    D(2,3,4,5)            175.7125         estimate D2E/DX2                !
 ! D7    D(2,3,4,15)            -2.7593         estimate D2E/DX2                !
 ! D8    D(8,3,4,5)              1.3239         estimate D2E/DX2                !
 ! D9    D(8,3,4,15)          -177.1478         estimate D2E/DX2                !
 ! D10   D(2,3,8,7)           -174.7364         estimate D2E/DX2                !
 ! D11   D(2,3,8,9)              4.445          estimate D2E/DX2                !
 ! D12   D(4,3,8,7)             -0.4446         estimate D2E/DX2                !
 ! D13   D(4,3,8,9)            178.7368         estimate D2E/DX2                !
 ! D14   D(3,4,5,6)             -1.1299         estimate D2E/DX2                !
 ! D15   D(3,4,5,16)          -179.9772         estimate D2E/DX2                !
 ! D16   D(15,4,5,6)           177.3546         estimate D2E/DX2                !
 ! D17   D(15,4,5,16)           -1.4927         estimate D2E/DX2                !
 ! D18   D(4,5,6,7)              0.0528         estimate D2E/DX2                !
 ! D19   D(4,5,6,17)          -179.2099         estimate D2E/DX2                !
 ! D20   D(16,5,6,7)           178.8995         estimate D2E/DX2                !
 ! D21   D(16,5,6,17)           -0.3633         estimate D2E/DX2                !
 ! D22   D(5,6,7,8)              0.827          estimate D2E/DX2                !
 ! D23   D(5,6,7,18)          -179.1209         estimate D2E/DX2                !
 ! D24   D(17,6,7,8)          -179.9093         estimate D2E/DX2                !
 ! D25   D(17,6,7,18)            0.1429         estimate D2E/DX2                !
 ! D26   D(6,7,8,3)             -0.6285         estimate D2E/DX2                !
 ! D27   D(6,7,8,9)           -179.8615         estimate D2E/DX2                !
 ! D28   D(18,7,8,3)           179.3191         estimate D2E/DX2                !
 ! D29   D(18,7,8,9)             0.0861         estimate D2E/DX2                !
 ! D30   D(3,8,9,10)          -145.9121         estimate D2E/DX2                !
 ! D31   D(3,8,9,11)            39.1726         estimate D2E/DX2                !
 ! D32   D(7,8,9,10)            33.2889         estimate D2E/DX2                !
 ! D33   D(7,8,9,11)          -141.6264         estimate D2E/DX2                !
 ! D34   D(8,9,11,19)          179.1519         estimate D2E/DX2                !
 ! D35   D(10,9,11,19)           4.0047         estimate D2E/DX2                !
 --------------------------------------------------------------------------------
 Trust Radius=3.00D-01 FncErr=1.00D-07 GrdErr=1.00D-06 EigMax=2.50D+02 EigMin=1.00D-04
 Number of steps in this run=     93 maximum allowed number of steps=    114.
 GradGradGradGradGradGradGradGradGradGradGradGradGradGradGradGradGradGrad

                          Input orientation:                          
 ---------------------------------------------------------------------
 Center     Atomic      Atomic             Coordinates (Angstroms)
 Number     Number       Type             X           Y           Z
 ---------------------------------------------------------------------
      1          6           0        2.086100    1.377400    0.641800
      2          8           0        0.667000    1.460200    0.778700
      3          6           0        0.076300    0.247900    0.534700
      4          6           0        0.224300   -0.782400    1.470700
      5          6           0       -0.440100   -1.996900    1.290300
      6          6           0       -1.273200   -2.180100    0.188000
      7          6           0       -1.441900   -1.147900   -0.736600
      8          6           0       -0.763000    0.069000   -0.571700
      9          6           0       -0.997600    1.111500   -1.591400
     10          8           0       -2.045500    1.291600   -2.186000
     11          8           0        0.108900    1.808900   -1.901800
     12          1           0        2.532700    0.894700    1.517000
     13          1           0        2.476200    2.397900    0.584000
     14          1           0        2.377000    0.851000   -0.274600
     15          1           0        0.837100   -0.634900    2.355800
     16          1           0       -0.321900   -2.793800    2.020700
     17          1           0       -1.801000   -3.121300    0.053800
     18          1           0       -2.105000   -1.292000   -1.587600
     19          1           0       -0.196400    2.439200   -2.585900
 ---------------------------------------------------------------------
                    Distance matrix (angstroms):
                    1          2          3          4          5
     1  C    0.000000
     2  O    1.428090   0.000000
     3  C    2.307929   1.370450   0.000000
     4  C    2.969530   2.388326   1.399828   0.000000
     5  C    4.264755   3.665917   2.424196   1.396059   0.000000
     6  C    4.913923   4.167144   2.799381   2.416897   1.393802
     7  C    4.552352   3.680459   2.422683   2.789621   2.415104
     8  C    3.361824   2.409132   1.400197   2.423023   2.799866
     9  C    3.816686   2.917166   2.533647   3.802151   4.275179
    10  O    5.007388   4.021881   3.604657   4.777544   5.047396
    11  O    3.250448   2.760099   2.893841   4.254634   4.997501
    12  H    1.094726   2.084638   2.723447   2.853685   4.153346
    13  H    1.094047   2.047045   3.222491   3.996448   5.321460
    14  H    1.096134   2.098730   2.512353   3.216859   4.300639
    15  H    2.923551   2.627855   2.162073   1.086592   2.149785
    16  H    5.009864   4.540595   3.408621   2.155589   1.087430
    17  H    5.974411   5.254203   3.886776   3.402925   2.155286
    18  H    5.446213   4.567052   3.410794   3.877954   3.398689
    19  H    4.093321   3.608938   3.822866   5.197278   5.896041
                    6          7          8          9         10
     6  C    0.000000
     7  C    1.395988   0.000000
     8  C    2.428147   1.403190   0.000000
     9  C    3.751913   2.456211   1.477035   0.000000
    10  O    4.276099   2.901078   2.396982   1.218228   0.000000
    11  O    4.710582   3.536289   2.357250   1.344268   2.233788
    12  H    5.070060   5.004835   3.988244   4.708733   5.901665
    13  H    5.930675   5.446851   4.153533   4.295867   5.416878
    14  H    4.767130   4.335094   3.249522   3.631769   4.837984
    15  H    3.397111   3.875558   3.409700   4.690035   5.713907
    16  H    2.154156   3.400895   3.887252   5.362388   6.112088
    17  H    1.087401   2.155920   3.412727   4.611803   4.954813
    18  H    2.152526   1.088424   2.164564   2.646349   2.652661
    19  H    5.494720   4.223561   3.161627   1.842210   2.212708
                   11         12         13         14         15
    11  O    0.000000
    12  H    4.289378   0.000000
    13  H    3.482848   1.770111   0.000000
    14  H    2.951208   1.798884   1.771986   0.000000
    15  H    4.962821   2.432760   3.876055   3.390899   0.000000
    16  H    6.062709   4.691214   6.070191   5.083014   2.473140
    17  H    5.637283   6.086885   7.002651   5.774314   4.294294
    18  H    3.823043   5.994035   6.270455   5.138554   4.963682
    19  H    0.979019   5.164035   4.146416   3.806163   5.910889
                   16         17         18         19
    16  H    0.000000
    17  H    2.482678   0.000000
    18  H    4.295891   2.476479   0.000000
    19  H    6.972862   6.360968   4.308272   0.000000
 Stoichiometry    C8H8O3
 Framework group  C1[X(C8H8O3)]
 Deg. of freedom    51
 Full point group                 C1      NOp   1
 Largest Abelian subgroup         C1      NOp   1
 Largest concise Abelian subgroup C1      NOp   1
                         Standard orientation:                         
 ---------------------------------------------------------------------
 Center     Atomic      Atomic             Coordinates (Angstroms)
 Number     Number       Type             X           Y           Z
 ---------------------------------------------------------------------
      1          6           0        0.312690    2.726601    0.386216
      2          8           0        0.324226    1.722118   -0.628833
      3          6           0       -0.441308    0.644995   -0.265658
      4          6           0       -1.834888    0.775642   -0.246066
      5          6           0       -2.640759   -0.329634    0.033074
      6          6           0       -2.060739   -1.574573    0.270533
      7          6           0       -0.672436   -1.715139    0.230063
      8          6           0        0.144788   -0.604922   -0.031671
      9          6           0        1.603123   -0.837430   -0.060507
     10          8           0        2.145795   -1.858794   -0.443133
     11          8           0        2.311397    0.165275    0.487205
     12          1           0       -0.627124    3.287643    0.366043
     13          1           0        1.127096    3.425551    0.173731
     14          1           0        0.482258    2.301372    1.382176
     15          1           0       -2.298939    1.731781   -0.472200
     16          1           0       -3.722828   -0.222640    0.046643
     17          1           0       -2.688512   -2.438517    0.475328
     18          1           0       -0.226216   -2.692861    0.402154
     19          1           0        3.240089   -0.134365    0.408302
 ---------------------------------------------------------------------
 Rotational constants (GHZ):           1.4498426           1.1583148           0.6803283
 Standard basis: def2TZVP (5D, 7F)
 There are   444 symmetry adapted cartesian basis functions of A   symmetry.
 There are   389 symmetry adapted basis functions of A   symmetry.
   389 basis functions,   625 primitive gaussians,   444 cartesian basis functions
    40 alpha electrons       40 beta electrons
       nuclear repulsion energy       598.2300829574 Hartrees.
 NAtoms=   19 NActive=   19 NUniq=   19 SFac= 1.00D+00 NAtFMM=   60 NAOKFM=F Big=F
 Integral buffers will be    131072 words long.
 Raffenetti 2 integral format.
 Two-electron integral symmetry is turned on.
 One-electron integrals computed using PRISM.
   1 Symmetry operations used in ECPInt.
 ECPInt:  NShTT=   11781 NPrTT=   36312 LenC2=   11317 LenP2D=   26879.
 LDataN:  DoStor=T MaxTD1= 6 Len=  172
 NBasis=   389 RedAO= T EigKep=  8.47D-06  NBF=   389
 NBsUse=   389 1.00D-06 EigRej= -1.00D+00 NBFU=   389
 ExpMin= 9.52D-02 ExpMax= 2.70D+04 ExpMxC= 9.22D+02 IAcc=3 IRadAn=         5 AccDes= 0.00D+00
 Harris functional with IExCor= 1009 and IRadAn=       5 diagonalized for initial guess.
 HarFok:  IExCor= 1009 AccDes= 0.00D+00 IRadAn=         5 IDoV= 1 UseB2=F ITyADJ=14
 ICtDFT=  3500011 ScaDFX=  1.000000  1.000000  1.000000  1.000000
 FoFCou: FMM=F IPFlag=           0 FMFlag=      100000 FMFlg1=           0
         NFxFlg=           0 DoJE=T BraDBF=F KetDBF=T FulRan=T
         wScrn=  0.000000 ICntrl=       500 IOpCl=  0 I1Cent=   200000004 NGrid=           0
         NMat0=    1 NMatS0=      1 NMatT0=    0 NMatD0=    1 NMtDS0=    0 NMtDT0=    0
 Petite list used in FoFCou.
 Requested convergence on RMS density matrix=1.00D-08 within 128 cycles.
 Requested convergence on MAX density matrix=1.00D-06.
 Requested convergence on             energy=1.00D-06.
 No special actions if energy rises.
 Integral accuracy reduced to 1.0D-05 until final iterations.
 Initial convergence to 1.0D-05 achieved.  Increase integral accuracy.
 SCF Done:  E(RM062X) =  -535.332195820     A.U. after   15 cycles
            NFock= 15  Conv=0.71D-08     -V/T= 2.0050

 **********************************************************************

            Population analysis using the SCF Density.

 **********************************************************************

 Orbital symmetries:
       Occupied  (A) (A) (A) (A) (A) (A) (A) (A) (A) (A) (A) (A)
                 (A) (A) (A) (A) (A) (A) (A) (A) (A) (A) (A) (A)
                 (A) (A) (A) (A) (A) (A) (A) (A) (A) (A) (A) (A)
                 (A) (A) (A) (A)
       Virtual   (A) (A) (A) (A) (A) (A) (A) (A) (A) (A) (A) (A)
                 (A) (A) (A) (A) (A) (A) (A) (A) (A) (A) (A) (A)
                 (A) (A) (A) (A) (A) (A) (A) (A) (A) (A) (A) (A)
                 (A) (A) (A) (A) (A) (A) (A) (A) (A) (A) (A) (A)
                 (A) (A) (A) (A) (A) (A) (A) (A) (A) (A) (A) (A)
                 (A) (A) (A) (A) (A) (A) (A) (A) (A) (A) (A) (A)
                 (A) (A) (A) (A) (A) (A) (A) (A) (A) (A) (A) (A)
                 (A) (A) (A) (A) (A) (A) (A) (A) (A) (A) (A) (A)
                 (A) (A) (A) (A) (A) (A) (A) (A) (A) (A) (A) (A)
                 (A) (A) (A) (A) (A) (A) (A) (A) (A) (A) (A) (A)
                 (A) (A) (A) (A) (A) (A) (A) (A) (A) (A) (A) (A)
                 (A) (A) (A) (A) (A) (A) (A) (A) (A) (A) (A) (A)
                 (A) (A) (A) (A) (A) (A) (A) (A) (A) (A) (A) (A)
                 (A) (A) (A) (A) (A) (A) (A) (A) (A) (A) (A) (A)
                 (A) (A) (A) (A) (A) (A) (A) (A) (A) (A) (A) (A)
                 (A) (A) (A) (A) (A) (A) (A) (A) (A) (A) (A) (A)
                 (A) (A) (A) (A) (A) (A) (A) (A) (A) (A) (A) (A)
                 (A) (A) (A) (A) (A) (A) (A) (A) (A) (A) (A) (A)
                 (A) (A) (A) (A) (A) (A) (A) (A) (A) (A) (A) (A)
                 (A) (A) (A) (A) (A) (A) (A) (A) (A) (A) (A) (A)
                 (A) (A) (A) (A) (A) (A) (A) (A) (A) (A) (A) (A)
                 (A) (A) (A) (A) (A) (A) (A) (A) (A) (A) (A) (A)
                 (A) (A) (A) (A) (A) (A) (A) (A) (A) (A) (A) (A)
                 (A) (A) (A) (A) (A) (A) (A) (A) (A) (A) (A) (A)
                 (A) (A) (A) (A) (A) (A) (A) (A) (A) (A) (A) (A)
                 (A) (A) (A) (A) (A) (A) (A) (A) (A) (A) (A) (A)
                 (A) (A) (A) (A) (A) (A) (A) (A) (A) (A) (A) (A)
                 (A) (A) (A) (A) (A) (A) (A) (A) (A) (A) (A) (A)
                 (A) (A) (A) (A) (A) (A) (A) (A) (A) (A) (A) (A)
                 (A)
 The electronic state is 1-A.
 Alpha  occ. eigenvalues --  -19.67573 -19.65274 -19.61896 -10.68290 -10.61838
 Alpha  occ. eigenvalues --  -10.59127 -10.56760 -10.56260 -10.56207 -10.55614
 Alpha  occ. eigenvalues --  -10.55346  -1.23998  -1.19021  -1.13641  -0.97408
 Alpha  occ. eigenvalues --   -0.87920  -0.85691  -0.79309  -0.75651  -0.69608
 Alpha  occ. eigenvalues --   -0.67882  -0.62043  -0.59028  -0.58072  -0.56661
 Alpha  occ. eigenvalues --   -0.54736  -0.54456  -0.52736  -0.51766  -0.50074
 Alpha  occ. eigenvalues --   -0.48712  -0.45123  -0.44579  -0.43334  -0.41886
 Alpha  occ. eigenvalues --   -0.39857  -0.37066  -0.35861  -0.32366  -0.30735
 Alpha virt. eigenvalues --   -0.01841   0.01034   0.06485   0.07427   0.07927
 Alpha virt. eigenvalues --    0.08960   0.11074   0.11721   0.12480   0.13539
 Alpha virt. eigenvalues --    0.14309   0.16897   0.17380   0.18180   0.19311
 Alpha virt. eigenvalues --    0.20773   0.22324   0.22765   0.23930   0.24554
 Alpha virt. eigenvalues --    0.24811   0.25501   0.26981   0.27283   0.29051
 Alpha virt. eigenvalues --    0.30021   0.31776   0.32495   0.33534   0.34764
 Alpha virt. eigenvalues --    0.35452   0.35789   0.36926   0.37837   0.38309
 Alpha virt. eigenvalues --    0.39906   0.40775   0.41134   0.42302   0.42570
 Alpha virt. eigenvalues --    0.43162   0.44967   0.45760   0.46426   0.47259
 Alpha virt. eigenvalues --    0.48121   0.49280   0.49716   0.51057   0.52185
 Alpha virt. eigenvalues --    0.52513   0.52888   0.54412   0.54766   0.55312
 Alpha virt. eigenvalues --    0.56752   0.57297   0.58793   0.60893   0.62223
 Alpha virt. eigenvalues --    0.62526   0.63929   0.66846   0.68985   0.69680
 Alpha virt. eigenvalues --    0.71016   0.71282   0.73132   0.74105   0.75456
 Alpha virt. eigenvalues --    0.77035   0.77514   0.78846   0.79724   0.82761
 Alpha virt. eigenvalues --    0.84707   0.85490   0.86478   0.88943   0.89849
 Alpha virt. eigenvalues --    0.90759   0.91550   0.92187   0.95755   0.96186
 Alpha virt. eigenvalues --    0.97638   0.98601   0.99629   1.03010   1.03868
 Alpha virt. eigenvalues --    1.05504   1.06571   1.09098   1.10615   1.12501
 Alpha virt. eigenvalues --    1.14518   1.15219   1.18091   1.19187   1.22488
 Alpha virt. eigenvalues --    1.23729   1.25176   1.26362   1.28214   1.29970
 Alpha virt. eigenvalues --    1.32081   1.33248   1.35250   1.35685   1.39503
 Alpha virt. eigenvalues --    1.44188   1.45389   1.48894   1.49357   1.51453
 Alpha virt. eigenvalues --    1.52901   1.54232   1.55060   1.55248   1.55587
 Alpha virt. eigenvalues --    1.56269   1.57317   1.59155   1.59602   1.62358
 Alpha virt. eigenvalues --    1.63554   1.65170   1.66559   1.68338   1.69997
 Alpha virt. eigenvalues --    1.71649   1.72914   1.74558   1.74607   1.75939
 Alpha virt. eigenvalues --    1.78062   1.81848   1.82508   1.86016   1.86804
 Alpha virt. eigenvalues --    1.88948   1.90621   1.93879   1.94676   1.96419
 Alpha virt. eigenvalues --    1.97906   1.99513   2.00038   2.03124   2.05451
 Alpha virt. eigenvalues --    2.06849   2.08809   2.10311   2.11658   2.13101
 Alpha virt. eigenvalues --    2.14858   2.15549   2.17960   2.18052   2.19800
 Alpha virt. eigenvalues --    2.22134   2.25188   2.25725   2.28133   2.29339
 Alpha virt. eigenvalues --    2.30599   2.33478   2.33887   2.36534   2.37990
 Alpha virt. eigenvalues --    2.39339   2.42258   2.44375   2.49134   2.49535
 Alpha virt. eigenvalues --    2.50874   2.52055   2.53786   2.56304   2.57742
 Alpha virt. eigenvalues --    2.58780   2.59788   2.62718   2.63634   2.64479
 Alpha virt. eigenvalues --    2.66768   2.67183   2.68451   2.70952   2.72020
 Alpha virt. eigenvalues --    2.72271   2.73553   2.77921   2.78533   2.79308
 Alpha virt. eigenvalues --    2.80832   2.81891   2.82793   2.84648   2.86328
 Alpha virt. eigenvalues --    2.87018   2.87977   2.89312   2.91263   2.94100
 Alpha virt. eigenvalues --    2.96904   2.97122   2.99036   3.00180   3.01879
 Alpha virt. eigenvalues --    3.02915   3.05713   3.06105   3.08720   3.09141
 Alpha virt. eigenvalues --    3.11180   3.12527   3.14265   3.15157   3.15483
 Alpha virt. eigenvalues --    3.17220   3.18452   3.20144   3.21061   3.22171
 Alpha virt. eigenvalues --    3.23925   3.24800   3.26582   3.26793   3.28975
 Alpha virt. eigenvalues --    3.30264   3.31501   3.32505   3.33994   3.35176
 Alpha virt. eigenvalues --    3.35779   3.36879   3.37621   3.38664   3.40162
 Alpha virt. eigenvalues --    3.43638   3.44468   3.47012   3.48204   3.49895
 Alpha virt. eigenvalues --    3.50778   3.52540   3.53228   3.55084   3.56149
 Alpha virt. eigenvalues --    3.57059   3.58410   3.63461   3.65438   3.66785
 Alpha virt. eigenvalues --    3.68640   3.71082   3.76213   3.77672   3.80677
 Alpha virt. eigenvalues --    3.83458   3.87241   3.88021   3.91779   3.92218
 Alpha virt. eigenvalues --    3.96862   4.02140   4.05713   4.09463   4.12205
 Alpha virt. eigenvalues --    4.13344   4.14586   4.15672   4.18363   4.19200
 Alpha virt. eigenvalues --    4.20625   4.21955   4.23059   4.28659   4.30125
 Alpha virt. eigenvalues --    4.33614   4.37881   4.40150   4.42192   4.46930
 Alpha virt. eigenvalues --    4.53787   4.55676   4.58408   4.60460   4.62684
 Alpha virt. eigenvalues --    4.65616   4.72913   4.81319   4.84646   4.89071
 Alpha virt. eigenvalues --    4.99617   5.03636   5.08168   5.17838   5.21057
 Alpha virt. eigenvalues --    5.22433   5.23538   5.28025   5.34131   5.40737
 Alpha virt. eigenvalues --    5.42208   5.46628   5.49515   5.51741   5.53863
 Alpha virt. eigenvalues --    5.63092   5.76728   5.80340   5.87215   5.91506
 Alpha virt. eigenvalues --    5.95477   6.07456   6.14448   6.21596   6.24299
 Alpha virt. eigenvalues --    6.30979   6.34782   6.36846   6.48561   6.52748
 Alpha virt. eigenvalues --    6.69496   6.69988   6.71387   6.78833   6.80470
 Alpha virt. eigenvalues --    6.83585   6.91598   6.99859   7.07118   7.12557
 Alpha virt. eigenvalues --    7.18594   7.22374   7.32273  22.17111  22.44224
 Alpha virt. eigenvalues --   22.67367  22.74409  22.90957  22.92923  23.33078
 Alpha virt. eigenvalues --   23.53442  43.93661  44.00966  44.34510
          Condensed to atoms (all electrons):
               1          2          3          4          5          6
     1  C    4.904399   0.221603  -0.081898  -0.008242   0.000156  -0.000203
     2  O    0.221603   8.011025   0.277383  -0.052927   0.010286  -0.000855
     3  C   -0.081898   0.277383   5.134289   0.419286   0.033406  -0.102506
     4  C   -0.008242  -0.052927   0.419286   5.052457   0.409749  -0.005641
     5  C    0.000156   0.010286   0.033406   0.409749   4.973442   0.473914
     6  C   -0.000203  -0.000855  -0.102506  -0.005641   0.473914   4.947647
     7  C    0.003130   0.012187   0.089129  -0.130095   0.023663   0.459373
     8  C    0.000972  -0.066724   0.179650   0.076484  -0.117575   0.003075
     9  C   -0.006502   0.013295  -0.075743   0.017326  -0.008927   0.017601
    10  O   -0.000102  -0.000436  -0.001201  -0.000607   0.000234   0.001149
    11  O   -0.001675  -0.009887   0.003882  -0.000162  -0.000042   0.000018
    12  H    0.419438  -0.042930  -0.001896  -0.007044  -0.001295  -0.000034
    13  H    0.401543  -0.028539   0.005489   0.000193   0.000202  -0.000040
    14  H    0.402862  -0.041541  -0.002985   0.009220  -0.001738   0.000722
    15  H   -0.001294   0.002467  -0.048890   0.406418  -0.024893   0.004520
    16  H    0.000077  -0.000239   0.004022  -0.024348   0.400915  -0.031591
    17  H   -0.000007   0.000011  -0.000051   0.005303  -0.036566   0.412951
    18  H    0.000053  -0.000128   0.012218  -0.001811   0.005112  -0.037426
    19  H   -0.000055   0.000619   0.000110   0.000124  -0.000013   0.000032
               7          8          9         10         11         12
     1  C    0.003130   0.000972  -0.006502  -0.000102  -0.001675   0.419438
     2  O    0.012187  -0.066724   0.013295  -0.000436  -0.009887  -0.042930
     3  C    0.089129   0.179650  -0.075743  -0.001201   0.003882  -0.001896
     4  C   -0.130095   0.076484   0.017326  -0.000607  -0.000162  -0.007044
     5  C    0.023663  -0.117575  -0.008927   0.000234  -0.000042  -0.001295
     6  C    0.459373   0.003075   0.017601   0.001149   0.000018  -0.000034
     7  C    5.136074   0.279908  -0.094776   0.016664   0.004743   0.000171
     8  C    0.279908   5.572623   0.250805  -0.120265  -0.127024   0.000906
     9  C   -0.094776   0.250805   4.549276   0.679466   0.386065   0.000894
    10  O    0.016664  -0.120265   0.679466   7.851020  -0.094994   0.000001
    11  O    0.004743  -0.127024   0.386065  -0.094994   7.947142   0.000307
    12  H    0.000171   0.000906   0.000894   0.000001   0.000307   0.576853
    13  H    0.000105  -0.001104  -0.001071   0.000003   0.000700  -0.026744
    14  H   -0.003491   0.009231   0.001118   0.000032   0.001750  -0.047214
    15  H   -0.002375   0.013875   0.000284   0.000005  -0.000032  -0.005222
    16  H    0.003195   0.000066   0.000089  -0.000001  -0.000001   0.000077
    17  H   -0.035273   0.006617  -0.000288  -0.000058   0.000004   0.000001
    18  H    0.401292  -0.024081  -0.009824   0.009001   0.000007  -0.000007
    19  H   -0.001065   0.021722  -0.030365   0.006978   0.288505  -0.000004
              13         14         15         16         17         18
     1  C    0.401543   0.402862  -0.001294   0.000077  -0.000007   0.000053
     2  O   -0.028539  -0.041541   0.002467  -0.000239   0.000011  -0.000128
     3  C    0.005489  -0.002985  -0.048890   0.004022  -0.000051   0.012218
     4  C    0.000193   0.009220   0.406418  -0.024348   0.005303  -0.001811
     5  C    0.000202  -0.001738  -0.024893   0.400915  -0.036566   0.005112
     6  C   -0.000040   0.000722   0.004520  -0.031591   0.412951  -0.037426
     7  C    0.000105  -0.003491  -0.002375   0.003195  -0.035273   0.401292
     8  C   -0.001104   0.009231   0.013875   0.000066   0.006617  -0.024081
     9  C   -0.001071   0.001118   0.000284   0.000089  -0.000288  -0.009824
    10  O    0.000003   0.000032   0.000005  -0.000001  -0.000058   0.009001
    11  O    0.000700   0.001750  -0.000032  -0.000001   0.000004   0.000007
    12  H   -0.026744  -0.047214  -0.005222   0.000077   0.000001  -0.000007
    13  H    0.524297  -0.023515  -0.000277  -0.000001  -0.000000   0.000000
    14  H   -0.023515   0.538961   0.002112  -0.000035   0.000002  -0.000002
    15  H   -0.000277   0.002112   0.497547  -0.003576  -0.000230   0.000040
    16  H   -0.000001  -0.000035  -0.003576   0.504530  -0.003575  -0.000246
    17  H   -0.000000   0.000002  -0.000230  -0.003575   0.506008  -0.003318
    18  H    0.000000  -0.000002   0.000040  -0.000246  -0.003318   0.475968
    19  H    0.000005  -0.000038  -0.000001   0.000000  -0.000001  -0.000056
              19
     1  C   -0.000055
     2  O    0.000619
     3  C    0.000110
     4  C    0.000124
     5  C   -0.000013
     6  C    0.000032
     7  C   -0.001065
     8  C    0.021722
     9  C   -0.030365
    10  O    0.006978
    11  O    0.288505
    12  H   -0.000004
    13  H    0.000005
    14  H   -0.000038
    15  H   -0.000001
    16  H    0.000000
    17  H   -0.000001
    18  H   -0.000056
    19  H    0.374698
 Mulliken charges:
               1
     1  C   -0.254255
     2  O   -0.304670
     3  C    0.156307
     4  C   -0.165683
     5  C   -0.140034
     6  C   -0.142708
     7  C   -0.162563
     8  C    0.040840
     9  C    0.311277
    10  O   -0.346889
    11  O   -0.399305
    12  H    0.133742
    13  H    0.148752
    14  H    0.154548
    15  H    0.159522
    16  H    0.150642
    17  H    0.148468
    18  H    0.173206
    19  H    0.338804
 Sum of Mulliken charges =  -0.00000
 Mulliken charges with hydrogens summed into heavy atoms:
               1
     1  C    0.182786
     2  O   -0.304670
     3  C    0.156307
     4  C   -0.006161
     5  C    0.010609
     6  C    0.005760
     7  C    0.010642
     8  C    0.040840
     9  C    0.311277
    10  O   -0.346889
    11  O   -0.060501
 Electronic spatial extent (au):  <R**2>=           1653.1982
 Charge=             -0.0000 electrons
 Dipole moment (field-independent basis, Debye):
    X=             -1.6786    Y=              1.9804    Z=              1.7367  Tot=              3.1234
 Quadrupole moment (field-independent basis, Debye-Ang):
   XX=            -55.0208   YY=            -61.1116   ZZ=            -67.4884
   XY=              4.7486   XZ=              2.5745   YZ=             -1.0169
 Traceless Quadrupole moment (field-independent basis, Debye-Ang):
   XX=              6.1861   YY=              0.0954   ZZ=             -6.2815
   XY=              4.7486   XZ=              2.5745   YZ=             -1.0169
 Octapole moment (field-independent basis, Debye-Ang**2):
  XXX=             24.1878  YYY=             23.4848  ZZZ=             -1.2504  XYY=            -11.8309
  XXY=             11.3659  XXZ=              6.2763  XZZ=             10.7822  YZZ=              1.9780
  YYZ=             11.0402  XYZ=             -0.8637
 Hexadecapole moment (field-independent basis, Debye-Ang**3):
 XXXX=           -907.5433 YYYY=           -866.0438 ZZZZ=           -123.1152 XXXY=             23.3209
 XXXZ=             22.8374 YYYX=             38.2214 YYYZ=             -8.5334 ZZZX=              2.9426
 ZZZY=              2.6535 XXYY=           -350.0543 XXZZ=           -217.5854 YYZZ=           -184.3417
 XXYZ=            -18.4908 YYXZ=              8.3617 ZZXY=             -4.6178
 N-N= 5.982300829574D+02 E-N=-2.447469145769D+03  KE= 5.326736015884D+02
   1 Symmetry operations used in ECPInt.
 ECPInt:  NShTT=   11781 NPrTT=   36312 LenC2=   11317 LenP2D=   26879.
 LDataN:  DoStor=T MaxTD1= 7 Len=  274
 Calling FoFJK, ICntrl=      2127 FMM=F ISym2X=0 I1Cent= 0 IOpClX= 0 NMat=1 NMatS=1 NMatT=0.
 ***** Axes restored to original set *****
 -------------------------------------------------------------------
 Center     Atomic                   Forces (Hartrees/Bohr)
 Number     Number              X              Y              Z
 -------------------------------------------------------------------
      1        6           0.004669807    0.009267009    0.001594628
      2        8           0.006632237   -0.008648639   -0.008533215
      3        6          -0.006039076   -0.002603641    0.009824420
      4        6          -0.004360878   -0.006919231   -0.004130082
      5        6           0.001326380    0.006829100   -0.002454979
      6        6          -0.000187978    0.004249021   -0.004244439
      7        6           0.002151725   -0.004758500    0.009331411
      8        6          -0.004268913   -0.010098280    0.004436802
      9        6          -0.014511090    0.005740287   -0.019901241
     10        8           0.021168108   -0.005728127    0.016163362
     11        8          -0.008553552    0.007833433   -0.005995561
     12        1          -0.000949725   -0.001723944   -0.002395908
     13        1          -0.004213852   -0.002282824    0.000701481
     14        1          -0.003505614    0.000067440    0.002807804
     15        1          -0.001141955    0.002293557   -0.003665328
     16        1          -0.000102741    0.003069563   -0.002075770
     17        1           0.002020072    0.003600796   -0.000020963
     18        1           0.003216357    0.004085178    0.002870752
     19        1           0.006650687   -0.004272198    0.005686827
 -------------------------------------------------------------------
 Cartesian Forces:  Max     0.021168108 RMS     0.006827004

 GradGradGradGradGradGradGradGradGradGradGradGradGradGradGradGradGradGrad
 Berny optimization.
 FormGI is forming the generalized inverse of G from B-inverse, IUseBI=4.
 Internal  Forces:  Max     0.026944999 RMS     0.004830242
 Search for a local minimum.
 Step number   1 out of a maximum of   93
 All quantities printed in internal units (Hartrees-Bohrs-Radians)
 Mixed Optimization -- RFO/linear search
 Second derivative matrix not updated -- first step.
 ITU=  0
     Eigenvalues ---    0.01070   0.01320   0.01528   0.01762   0.02073
     Eigenvalues ---    0.02083   0.02095   0.02102   0.02117   0.02120
     Eigenvalues ---    0.02151   0.02152   0.02160   0.02429   0.09953
     Eigenvalues ---    0.10484   0.15994   0.15997   0.15999   0.16000
     Eigenvalues ---    0.16000   0.16000   0.16000   0.16000   0.21999
     Eigenvalues ---    0.22486   0.24464   0.24875   0.24951   0.24998
     Eigenvalues ---    0.25000   0.25000   0.34113   0.34272   0.34349
     Eigenvalues ---    0.34911   0.34995   0.35111   0.35115   0.35209
     Eigenvalues ---    0.41265   0.41625   0.42028   0.45399   0.45901
     Eigenvalues ---    0.46054   0.46464   0.50890   0.51576   0.56259
     Eigenvalues ---    0.96173
 RFO step:  Lambda=-5.91470073D-03 EMin= 1.06973444D-02
 Linear search not attempted -- first point.
 Iteration  1 RMS(Cart)=  0.07540233 RMS(Int)=  0.00246119
 Iteration  2 RMS(Cart)=  0.00325079 RMS(Int)=  0.00055079
 Iteration  3 RMS(Cart)=  0.00000776 RMS(Int)=  0.00055076
 Iteration  4 RMS(Cart)=  0.00000000 RMS(Int)=  0.00055076
 Variable       Old X    -DE/DX   Delta X   Delta X   Delta X     New X
                                 (Linear)    (Quad)   (Total)
    R1        2.69870  -0.00454   0.00000  -0.01085  -0.01085   2.68785
    R2        2.06873  -0.00154   0.00000  -0.00442  -0.00442   2.06431
    R3        2.06745  -0.00367   0.00000  -0.01050  -0.01050   2.05695
    R4        2.07139  -0.00331   0.00000  -0.00954  -0.00954   2.06185
    R5        2.58978  -0.00284   0.00000  -0.00552  -0.00552   2.58426
    R6        2.64529  -0.00926   0.00000  -0.01999  -0.01999   2.62531
    R7        2.64599  -0.00678   0.00000  -0.01480  -0.01481   2.63118
    R8        2.63817  -0.00976   0.00000  -0.02068  -0.02067   2.61750
    R9        2.05336  -0.00332   0.00000  -0.00927  -0.00927   2.04409
   R10        2.63390  -0.00448   0.00000  -0.00937  -0.00937   2.62453
   R11        2.05495  -0.00366   0.00000  -0.01024  -0.01024   2.04471
   R12        2.63803  -0.01174   0.00000  -0.02507  -0.02508   2.61295
   R13        2.05489  -0.00409   0.00000  -0.01147  -0.01147   2.04342
   R14        2.65165  -0.00951   0.00000  -0.02097  -0.02098   2.63067
   R15        2.05682  -0.00474   0.00000  -0.01333  -0.01333   2.04349
   R16        2.79119   0.00456   0.00000   0.01285   0.01285   2.80404
   R17        2.30212  -0.02694   0.00000  -0.02785  -0.02785   2.27427
   R18        2.54030   0.00036   0.00000   0.00062   0.00062   2.54092
   R19        1.85008  -0.00880   0.00000  -0.01687  -0.01687   1.83321
    A1        1.93298   0.00119   0.00000   0.00702   0.00695   1.93993
    A2        1.88105  -0.00323   0.00000  -0.01697  -0.01708   1.86397
    A3        1.95164  -0.00406   0.00000  -0.02700  -0.02715   1.92449
    A4        1.88395   0.00304   0.00000   0.02344   0.02342   1.90737
    A5        1.92662  -0.00014   0.00000  -0.00529  -0.00540   1.92122
    A6        1.88510   0.00346   0.00000   0.02081   0.02061   1.90571
    A7        1.93902   0.01454   0.00000   0.05683   0.05683   1.99584
    A8        2.07883   0.00521   0.00000   0.02160   0.02143   2.10026
    A9        2.10839  -0.00487   0.00000  -0.01800  -0.01821   2.09018
   A10        2.09173  -0.00025   0.00000  -0.00034  -0.00058   2.09115
   A11        2.09853  -0.00058   0.00000  -0.00237  -0.00239   2.09614
   A12        2.09946  -0.00278   0.00000  -0.01737  -0.01737   2.08209
   A13        2.08489   0.00336   0.00000   0.01969   0.01970   2.10459
   A14        2.09555   0.00094   0.00000   0.00454   0.00452   2.10008
   A15        2.09324  -0.00109   0.00000  -0.00605  -0.00604   2.08720
   A16        2.09422   0.00015   0.00000   0.00149   0.00150   2.09572
   A17        2.09307  -0.00138   0.00000  -0.00610  -0.00614   2.08693
   A18        2.09611   0.00115   0.00000   0.00586   0.00588   2.10199
   A19        2.09393   0.00023   0.00000   0.00029   0.00031   2.09424
   A20        2.10010   0.00108   0.00000   0.00422   0.00414   2.10424
   A21        2.08700   0.00310   0.00000   0.01981   0.01980   2.10680
   A22        2.09608  -0.00417   0.00000  -0.02402  -0.02402   2.07206
   A23        2.08711   0.00019   0.00000   0.00016   0.00007   2.08718
   A24        2.15381  -0.00218   0.00000  -0.00812  -0.00812   2.14569
   A25        2.04219   0.00199   0.00000   0.00813   0.00813   2.05032
   A26        2.18698  -0.00573   0.00000  -0.01935  -0.02198   2.16501
   A27        1.97669   0.00307   0.00000   0.01522   0.01256   1.98925
   A28        2.11605   0.00288   0.00000   0.01462   0.01193   2.12799
   A29        1.81179   0.00771   0.00000   0.04646   0.04646   1.85825
    D1       -1.34020   0.00258   0.00000   0.06843   0.06835  -1.27184
    D2        2.88581   0.00017   0.00000   0.04630   0.04645   2.93226
    D3        0.81654   0.00034   0.00000   0.04725   0.04717   0.86372
    D4        1.24779   0.00113   0.00000   0.04233   0.04234   1.29013
    D5       -1.99271   0.00215   0.00000   0.08036   0.08035  -1.91236
    D6        3.06676   0.00013   0.00000   0.01389   0.01427   3.08103
    D7       -0.04816   0.00021   0.00000   0.01620   0.01648  -0.03167
    D8        0.02311  -0.00060   0.00000  -0.02273  -0.02275   0.00036
    D9       -3.09181  -0.00053   0.00000  -0.02042  -0.02053  -3.11234
   D10       -3.04973  -0.00035   0.00000  -0.00403  -0.00364  -3.05336
   D11        0.07758   0.00003   0.00000   0.00980   0.01006   0.08764
   D12       -0.00776   0.00098   0.00000   0.03550   0.03542   0.02766
   D13        3.11955   0.00136   0.00000   0.04933   0.04911  -3.11453
   D14       -0.01972   0.00005   0.00000   0.00334   0.00346  -0.01626
   D15       -3.14119   0.00013   0.00000   0.00438   0.00439  -3.13681
   D16        3.09542  -0.00012   0.00000   0.00050   0.00064   3.09607
   D17       -0.02605  -0.00004   0.00000   0.00153   0.00157  -0.02448
   D18        0.00092   0.00010   0.00000   0.00295   0.00290   0.00382
   D19       -3.12780  -0.00001   0.00000  -0.00149  -0.00160  -3.12941
   D20        3.12238   0.00001   0.00000   0.00183   0.00188   3.12426
   D21       -0.00634  -0.00010   0.00000  -0.00261  -0.00262  -0.00896
   D22        0.01443   0.00031   0.00000   0.01021   0.01017   0.02460
   D23       -3.12625  -0.00015   0.00000  -0.00499  -0.00516  -3.13140
   D24       -3.14001   0.00042   0.00000   0.01468   0.01469  -3.12532
   D25        0.00249  -0.00003   0.00000  -0.00051  -0.00063   0.00186
   D26       -0.01097  -0.00086   0.00000  -0.02948  -0.02938  -0.04035
   D27       -3.13918  -0.00118   0.00000  -0.04231  -0.04221   3.10180
   D28        3.12971  -0.00040   0.00000  -0.01418  -0.01433   3.11538
   D29        0.00150  -0.00072   0.00000  -0.02701  -0.02716  -0.02566
   D30       -2.54665   0.00058   0.00000   0.01604   0.01555  -2.53110
   D31        0.68369  -0.00243   0.00000  -0.11951  -0.11894   0.56475
   D32        0.58100   0.00094   0.00000   0.02948   0.02891   0.60991
   D33       -2.47185  -0.00208   0.00000  -0.10606  -0.10557  -2.57742
   D34        3.12679   0.00096   0.00000   0.05600   0.05697  -3.09942
   D35        0.06990  -0.00142   0.00000  -0.07141  -0.07238  -0.00248
         Item               Value     Threshold  Converged?
 Maximum Force            0.026945     0.000450     NO 
 RMS     Force            0.004830     0.000300     NO 
 Maximum Displacement     0.243368     0.001800     NO 
 RMS     Displacement     0.075068     0.001200     NO 
 Predicted change in Energy=-3.185048D-03
 GradGradGradGradGradGradGradGradGradGradGradGradGradGradGradGradGradGrad

                          Input orientation:                          
 ---------------------------------------------------------------------
 Center     Atomic      Atomic             Coordinates (Angstroms)
 Number     Number       Type             X           Y           Z
 ---------------------------------------------------------------------
      1          6           0        2.068154    1.420413    0.575291
      2          8           0        0.659434    1.422528    0.771689
      3          6           0        0.058640    0.212530    0.559350
      4          6           0        0.199624   -0.813068    1.485792
      5          6           0       -0.469000   -2.012100    1.301860
      6          6           0       -1.298729   -2.190855    0.202551
      7          6           0       -1.450584   -1.164796   -0.711804
      8          6           0       -0.757076    0.031957   -0.554503
      9          6           0       -0.931145    1.067000   -1.603383
     10          8           0       -1.961000    1.259633   -2.195570
     11          8           0        0.159364    1.826585   -1.807753
     12          1           0        2.578657    0.899019    1.388215
     13          1           0        2.385315    2.461571    0.560837
     14          1           0        2.315721    0.956796   -0.380866
     15          1           0        0.813669   -0.654110    2.361991
     16          1           0       -0.356751   -2.803699    2.030916
     17          1           0       -1.830335   -3.122120    0.063190
     18          1           0       -2.099217   -1.280668   -1.569247
     19          1           0       -0.084740    2.483385   -2.478654
 ---------------------------------------------------------------------
                    Distance matrix (angstroms):
                    1          2          3          4          5
     1  C    0.000000
     2  O    1.422347   0.000000
     3  C    2.344650   1.367529   0.000000
     4  C    3.051041   2.391497   1.389252   0.000000
     5  C    4.329804   3.653918   2.403894   1.385124   0.000000
     6  C    4.951373   4.149079   2.783166   2.406256   1.388843
     7  C    4.552080   3.653378   2.406370   2.770618   2.395052
     8  C    3.344574   2.387252   1.392361   2.406688   2.776192
     9  C    3.723885   2.880505   2.527293   3.788970   4.258506
    10  O    4.892608   3.962049   3.572808   4.745188   5.016206
    11  O    3.080155   2.658354   2.866791   4.220997   4.979963
    12  H    1.092387   2.082687   2.740213   2.932671   4.215482
    13  H    1.088489   2.025520   3.235985   4.044260   5.358167
    14  H    1.091085   2.070888   2.555847   3.330870   4.404610
    15  H    3.011591   2.620167   2.137908   1.081686   2.147849
    16  H    5.083516   4.525404   3.381671   2.137599   1.082013
    17  H    6.007917   5.230176   3.864491   3.387662   2.149344
    18  H    5.409424   4.516349   3.378892   3.851829   3.381695
    19  H    3.884771   3.499134   3.795630   5.163748   5.886369
                    6          7          8          9         10
     6  C    0.000000
     7  C    1.382715   0.000000
     8  C    2.409857   1.392089   0.000000
     9  C    3.743011   2.458789   1.483834   0.000000
    10  O    4.253875   2.887896   2.376915   1.203493   0.000000
    11  O    4.723047   3.569509   2.373012   1.344599   2.228852
    12  H    5.097768   4.990410   3.956396   4.614823   5.795002
    13  H    5.945217   5.429942   4.125728   4.198522   5.285158
    14  H    4.828285   4.335404   3.213653   3.471143   4.655664
    15  H    3.389247   3.851734   3.382879   4.661630   5.668560
    16  H    2.146117   3.377127   3.858186   5.340447   6.078443
    17  H    1.081333   2.139145   3.388455   4.597253   4.931412
    18  H    2.146739   1.081370   2.134018   2.622423   2.620022
    19  H    5.523690   4.277443   3.188086   1.867792   2.257888
                   11         12         13         14         15
    11  O    0.000000
    12  H    4.114312   0.000000
    13  H    3.311839   1.778624   0.000000
    14  H    2.728079   1.789447   1.776512   0.000000
    15  H    4.895787   2.544727   3.927047   3.517733   0.000000
    16  H    6.036661   4.768627   6.115809   5.205778   2.469864
    17  H    5.652345   6.112647   7.014054   5.833054   4.285594
    18  H    3.848778   5.948119   6.217124   5.090204   4.932760
    19  H    0.970094   4.955459   3.916651   3.534601   5.838053
                   16         17         18         19
    16  H    0.000000
    17  H    2.478868   0.000000
    18  H    4.279835   2.475498   0.000000
    19  H    6.954385   6.397637   4.365001   0.000000
 Stoichiometry    C8H8O3
 Framework group  C1[X(C8H8O3)]
 Deg. of freedom    51
 Full point group                 C1      NOp   1
 Largest Abelian subgroup         C1      NOp   1
 Largest concise Abelian subgroup C1      NOp   1
                         Standard orientation:                         
 ---------------------------------------------------------------------
 Center     Atomic      Atomic             Coordinates (Angstroms)
 Number     Number       Type             X           Y           Z
 ---------------------------------------------------------------------
      1          6           0        0.795449    2.605356    0.392782
      2          8           0        0.551010    1.632270   -0.615396
      3          6           0       -0.375400    0.686291   -0.273311
      4          6           0       -1.726427    1.007958   -0.237546
      5          6           0       -2.666480    0.029063    0.039280
      6          6           0       -2.268060   -1.282358    0.263606
      7          6           0       -0.924556   -1.605448    0.213492
      8          6           0        0.031126   -0.623081   -0.030513
      9          6           0        1.456206   -1.036315   -0.018251
     10          8           0        1.851367   -2.104510   -0.407100
     11          8           0        2.297625   -0.083523    0.420093
     12          1           0       -0.043500    3.299197    0.482555
     13          1           0        1.685390    3.154529    0.090750
     14          1           0        0.982682    2.118061    1.350880
     15          1           0       -2.035029    2.021781   -0.454279
     16          1           0       -3.716870    0.287858    0.060649
     17          1           0       -3.001340   -2.050145    0.468749
     18          1           0       -0.594673   -2.622372    0.375984
     19          1           0        3.192170   -0.451612    0.346714
 ---------------------------------------------------------------------
 Rotational constants (GHZ):           1.4848963           1.1663488           0.6871431
 Standard basis: def2TZVP (5D, 7F)
 There are   444 symmetry adapted cartesian basis functions of A   symmetry.
 There are   389 symmetry adapted basis functions of A   symmetry.
   389 basis functions,   625 primitive gaussians,   444 cartesian basis functions
    40 alpha electrons       40 beta electrons
       nuclear repulsion energy       601.7815422771 Hartrees.
 NAtoms=   19 NActive=   19 NUniq=   19 SFac= 1.00D+00 NAtFMM=   60 NAOKFM=F Big=F
 Integral buffers will be    131072 words long.
 Raffenetti 2 integral format.
 Two-electron integral symmetry is turned on.
 One-electron integrals computed using PRISM.
   1 Symmetry operations used in ECPInt.
 ECPInt:  NShTT=   11781 NPrTT=   36312 LenC2=   11332 LenP2D=   26936.
 LDataN:  DoStor=T MaxTD1= 6 Len=  172
 NBasis=   389 RedAO= T EigKep=  8.05D-06  NBF=   389
 NBsUse=   389 1.00D-06 EigRej= -1.00D+00 NBFU=   389
 Initial guess from the checkpoint file:  "/tmp/Gau-1609983.chk"
 B after Tr=    -0.000000    0.000000   -0.000000
         Rot=    0.997506    0.000703   -0.002704    0.070525 Ang=   8.09 deg.
 ExpMin= 9.52D-02 ExpMax= 2.70D+04 ExpMxC= 9.22D+02 IAcc=3 IRadAn=         5 AccDes= 0.00D+00
 Harris functional with IExCor= 1009 and IRadAn=       5 diagonalized for initial guess.
 HarFok:  IExCor= 1009 AccDes= 0.00D+00 IRadAn=         5 IDoV= 1 UseB2=F ITyADJ=14
 ICtDFT=  3500011 ScaDFX=  1.000000  1.000000  1.000000  1.000000
 FoFCou: FMM=F IPFlag=           0 FMFlag=      100000 FMFlg1=           0
         NFxFlg=           0 DoJE=T BraDBF=F KetDBF=T FulRan=T
         wScrn=  0.000000 ICntrl=       500 IOpCl=  0 I1Cent=   200000004 NGrid=           0
         NMat0=    1 NMatS0=      1 NMatT0=    0 NMatD0=    1 NMtDS0=    0 NMtDT0=    0
 Petite list used in FoFCou.
 Requested convergence on RMS density matrix=1.00D-08 within 128 cycles.
 Requested convergence on MAX density matrix=1.00D-06.
 Requested convergence on             energy=1.00D-06.
 No special actions if energy rises.
 Integral accuracy reduced to 1.0D-05 until final iterations.
 Initial convergence to 1.0D-05 achieved.  Increase integral accuracy.
 SCF Done:  E(RM062X) =  -535.334561491     A.U. after   14 cycles
            NFock= 14  Conv=0.62D-08     -V/T= 2.0045
   1 Symmetry operations used in ECPInt.
 ECPInt:  NShTT=   11781 NPrTT=   36312 LenC2=   11332 LenP2D=   26936.
 LDataN:  DoStor=T MaxTD1= 7 Len=  274
 Calling FoFJK, ICntrl=      2127 FMM=F ISym2X=0 I1Cent= 0 IOpClX= 0 NMat=1 NMatS=1 NMatT=0.
 ***** Axes restored to original set *****
 -------------------------------------------------------------------
 Center     Atomic                   Forces (Hartrees/Bohr)
 Number     Number              X              Y              Z
 -------------------------------------------------------------------
      1        6          -0.001648191    0.001602901   -0.000090695
      2        8           0.001100047   -0.003697452    0.001574589
      3        6           0.003541199    0.003954085    0.001675504
      4        6          -0.000699317   -0.001155550    0.001091093
      5        6           0.000164043    0.000434700    0.000333494
      6        6          -0.001000046   -0.000342058   -0.000318569
      7        6          -0.000071968   -0.001341377    0.000571425
      8        6           0.001099445   -0.003537668   -0.003787854
      9        6          -0.007415567    0.012871692    0.004427502
     10        8           0.004647150   -0.005168851   -0.001626836
     11        8          -0.000093184   -0.001966061   -0.004647471
     12        1          -0.000096694   -0.001001780   -0.000192115
     13        1          -0.000774178   -0.000493907    0.000489170
     14        1           0.000381919   -0.000153740   -0.000233322
     15        1           0.000556051    0.000947746   -0.000036041
     16        1           0.000225165   -0.000254516    0.000081183
     17        1           0.000020874   -0.000107695    0.000200099
     18        1          -0.000244693    0.000913181   -0.000653470
     19        1           0.000307948   -0.001503649    0.001142314
 -------------------------------------------------------------------
 Cartesian Forces:  Max     0.012871692 RMS     0.002694462

 GradGradGradGradGradGradGradGradGradGradGradGradGradGradGradGradGradGrad
 Berny optimization.
 Using GEDIIS/GDIIS optimizer.
 FormGI is forming the generalized inverse of G from B-inverse, IUseBI=4.
 Internal  Forces:  Max     0.005061053 RMS     0.001752990
 Search for a local minimum.
 Step number   2 out of a maximum of   93
 All quantities printed in internal units (Hartrees-Bohrs-Radians)
 Mixed Optimization -- RFO/linear search
 Update second derivatives using D2CorX and points    1    2
 DE= -2.37D-03 DEPred=-3.19D-03 R= 7.43D-01
 TightC=F SS=  1.41D+00  RLast= 2.77D-01 DXNew= 5.0454D-01 8.3045D-01
 Trust test= 7.43D-01 RLast= 2.77D-01 DXMaxT set to 5.05D-01
 ITU=  1  0
 Use linear search instead of GDIIS.
     Eigenvalues ---    0.01049   0.01250   0.01748   0.01838   0.02076
     Eigenvalues ---    0.02085   0.02096   0.02110   0.02118   0.02151
     Eigenvalues ---    0.02152   0.02159   0.02427   0.02847   0.10049
     Eigenvalues ---    0.10594   0.14623   0.15995   0.15997   0.15999
     Eigenvalues ---    0.16000   0.16000   0.16000   0.16162   0.21784
     Eigenvalues ---    0.22317   0.22990   0.24474   0.24974   0.24989
     Eigenvalues ---    0.25000   0.27635   0.33769   0.34180   0.34287
     Eigenvalues ---    0.34525   0.35042   0.35113   0.35177   0.35453
     Eigenvalues ---    0.40840   0.41617   0.42136   0.44762   0.45877
     Eigenvalues ---    0.46285   0.47414   0.50950   0.51433   0.56328
     Eigenvalues ---    0.91171
 RFO step:  Lambda=-3.47728049D-03 EMin= 1.04936947D-02
 Quartic linear search produced a step of -0.17032.
 Iteration  1 RMS(Cart)=  0.08282809 RMS(Int)=  0.00525672
 Iteration  2 RMS(Cart)=  0.00615134 RMS(Int)=  0.00189048
 Iteration  3 RMS(Cart)=  0.00002686 RMS(Int)=  0.00189037
 Iteration  4 RMS(Cart)=  0.00000007 RMS(Int)=  0.00189037
 Variable       Old X    -DE/DX   Delta X   Delta X   Delta X     New X
                                 (Linear)    (Quad)   (Total)
    R1        2.68785  -0.00211   0.00185  -0.01299  -0.01115   2.67670
    R2        2.06431   0.00029   0.00075  -0.00287  -0.00212   2.06219
    R3        2.05695  -0.00071   0.00179  -0.01017  -0.00838   2.04856
    R4        2.06185   0.00036   0.00162  -0.00685  -0.00522   2.05663
    R5        2.58426  -0.00353   0.00094  -0.01019  -0.00925   2.57500
    R6        2.62531   0.00074   0.00340  -0.01471  -0.01131   2.61399
    R7        2.63118   0.00473   0.00252  -0.00315  -0.00064   2.63054
    R8        2.61750  -0.00003   0.00352  -0.01690  -0.01337   2.60413
    R9        2.04409   0.00043   0.00158  -0.00649  -0.00491   2.03918
   R10        2.62453   0.00066   0.00160  -0.00666  -0.00505   2.61949
   R11        2.04471   0.00026   0.00174  -0.00765  -0.00591   2.03880
   R12        2.61295   0.00044   0.00427  -0.01962  -0.01534   2.59761
   R13        2.04342   0.00006   0.00195  -0.00913  -0.00717   2.03625
   R14        2.63067   0.00105   0.00357  -0.01490  -0.01133   2.61934
   R15        2.04349   0.00057   0.00227  -0.00943  -0.00716   2.03633
   R16        2.80404   0.00375  -0.00219   0.01922   0.01704   2.82108
   R17        2.27427  -0.00400   0.00474  -0.02601  -0.02127   2.25300
   R18        2.54092  -0.00125  -0.00011  -0.00133  -0.00144   2.53949
   R19        1.83321  -0.00189   0.00287  -0.01666  -0.01379   1.81942
    A1        1.93993  -0.00034  -0.00118   0.00350   0.00229   1.94222
    A2        1.86397  -0.00083   0.00291  -0.01769  -0.01481   1.84917
    A3        1.92449   0.00058   0.00462  -0.01898  -0.01439   1.91009
    A4        1.90737   0.00062  -0.00399   0.02193   0.01794   1.92531
    A5        1.92122  -0.00045   0.00092  -0.00731  -0.00643   1.91479
    A6        1.90571   0.00042  -0.00351   0.01922   0.01566   1.92137
    A7        1.99584   0.00061  -0.00968   0.04781   0.03814   2.03398
    A8        2.10026  -0.00358  -0.00365   0.00471   0.00112   2.10138
    A9        2.09018   0.00405   0.00310  -0.00212   0.00105   2.09123
   A10        2.09115  -0.00049   0.00010  -0.00194  -0.00187   2.08928
   A11        2.09614   0.00073   0.00041   0.00064   0.00101   2.09715
   A12        2.08209  -0.00139   0.00296  -0.02045  -0.01747   2.06462
   A13        2.10459   0.00066  -0.00335   0.01971   0.01637   2.12096
   A14        2.10008   0.00019  -0.00077   0.00345   0.00266   2.10274
   A15        2.08720  -0.00013   0.00103  -0.00495  -0.00392   2.08328
   A16        2.09572  -0.00006  -0.00026   0.00148   0.00122   2.09694
   A17        2.08693  -0.00005   0.00105  -0.00602  -0.00498   2.08195
   A18        2.10199  -0.00019  -0.00100   0.00415   0.00314   2.10514
   A19        2.09424   0.00024  -0.00005   0.00191   0.00186   2.09609
   A20        2.10424   0.00107  -0.00070   0.00723   0.00650   2.11074
   A21        2.10680   0.00047  -0.00337   0.01906   0.01571   2.12251
   A22        2.07206  -0.00154   0.00409  -0.02636  -0.02225   2.04981
   A23        2.08718  -0.00145  -0.00001  -0.00409  -0.00415   2.08303
   A24        2.14569   0.00506   0.00138   0.00972   0.01113   2.15682
   A25        2.05032  -0.00361  -0.00138  -0.00563  -0.00699   2.04333
   A26        2.16501  -0.00204   0.00374  -0.02230  -0.02803   2.13698
   A27        1.98925   0.00210  -0.00214   0.01927   0.00746   1.99671
   A28        2.12799   0.00024  -0.00203   0.01280   0.00072   2.12870
   A29        1.85825  -0.00045  -0.00791   0.03500   0.02709   1.88534
    D1       -1.27184   0.00099  -0.01164   0.09354   0.08187  -1.18998
    D2        2.93226   0.00093  -0.00791   0.07584   0.06797   3.00023
    D3        0.86372   0.00059  -0.00803   0.07350   0.06546   0.92917
    D4        1.29013   0.00085  -0.00721   0.06056   0.05335   1.34347
    D5       -1.91236   0.00035  -0.01368   0.07295   0.05927  -1.85309
    D6        3.08103  -0.00042  -0.00243  -0.00724  -0.00976   3.07126
    D7       -0.03167  -0.00040  -0.00281  -0.00369  -0.00659  -0.03826
    D8        0.00036  -0.00008   0.00387  -0.01964  -0.01578  -0.01542
    D9       -3.11234  -0.00006   0.00350  -0.01609  -0.01261  -3.12495
   D10       -3.05336   0.00069   0.00062   0.01866   0.01918  -3.03418
   D11        0.08764   0.00036  -0.00171   0.01586   0.01407   0.10171
   D12        0.02766   0.00009  -0.00603   0.03122   0.02517   0.05282
   D13       -3.11453  -0.00025  -0.00836   0.02843   0.02005  -3.09447
   D14       -0.01626  -0.00006  -0.00059  -0.00015  -0.00074  -0.01700
   D15       -3.13681  -0.00005  -0.00075   0.00156   0.00084  -3.13596
   D16        3.09607  -0.00012  -0.00011  -0.00442  -0.00460   3.09147
   D17       -0.02448  -0.00011  -0.00027  -0.00271  -0.00301  -0.02750
   D18        0.00382   0.00017  -0.00049   0.00805   0.00759   0.01141
   D19       -3.12941   0.00010   0.00027   0.00243   0.00273  -3.12667
   D20        3.12426   0.00016  -0.00032   0.00626   0.00593   3.13020
   D21       -0.00896   0.00009   0.00045   0.00063   0.00107  -0.00789
   D22        0.02460  -0.00011  -0.00173   0.00405   0.00235   0.02695
   D23       -3.13140   0.00008   0.00088  -0.00144  -0.00056  -3.13197
   D24       -3.12532  -0.00004  -0.00250   0.00966   0.00719  -3.11813
   D25        0.00186   0.00015   0.00011   0.00417   0.00428   0.00614
   D26       -0.04035   0.00000   0.00500  -0.02368  -0.01868  -0.05903
   D27        3.10180   0.00032   0.00719  -0.02104  -0.01391   3.08790
   D28        3.11538  -0.00020   0.00244  -0.01866  -0.01619   3.09919
   D29       -0.02566   0.00011   0.00463  -0.01602  -0.01142  -0.03707
   D30       -2.53110  -0.00364  -0.00265  -0.15141  -0.15253  -2.68363
   D31        0.56475   0.00393   0.02026   0.08843   0.10715   0.67190
   D32        0.60991  -0.00397  -0.00492  -0.15415  -0.15753   0.45238
   D33       -2.57742   0.00361   0.01798   0.08569   0.10215  -2.47527
   D34       -3.09942  -0.00385  -0.00970  -0.12796  -0.13882   3.04494
   D35       -0.00248   0.00348   0.01233   0.10515   0.11864   0.11616
         Item               Value     Threshold  Converged?
 Maximum Force            0.005061     0.000450     NO 
 RMS     Force            0.001753     0.000300     NO 
 Maximum Displacement     0.329783     0.001800     NO 
 RMS     Displacement     0.083698     0.001200     NO 
 Predicted change in Energy=-2.053831D-03
 GradGradGradGradGradGradGradGradGradGradGradGradGradGradGradGradGradGrad

                          Input orientation:                          
 ---------------------------------------------------------------------
 Center     Atomic      Atomic             Coordinates (Angstroms)
 Number     Number       Type             X           Y           Z
 ---------------------------------------------------------------------
      1          6           0        2.056422    1.467468    0.582651
      2          8           0        0.665869    1.396168    0.842656
      3          6           0        0.062239    0.198352    0.602580
      4          6           0        0.208902   -0.850260    1.492706
      5          6           0       -0.469961   -2.031951    1.288332
      6          6           0       -1.320284   -2.175667    0.203081
      7          6           0       -1.469908   -1.130392   -0.676992
      8          6           0       -0.759836    0.048336   -0.510707
      9          6           0       -0.934886    1.100165   -1.555510
     10          8           0       -1.920509    1.182535   -2.221236
     11          8           0        0.188548    1.771037   -1.861659
     12          1           0        2.623028    0.857232    1.287939
     13          1           0        2.325948    2.512203    0.687797
     14          1           0        2.252588    1.131310   -0.433697
     15          1           0        0.839309   -0.703839    2.356173
     16          1           0       -0.350204   -2.839645    1.993518
     17          1           0       -1.862701   -3.093844    0.048750
     18          1           0       -2.127484   -1.198254   -1.527974
     19          1           0       -0.007081    2.359047   -2.598510
 ---------------------------------------------------------------------
                    Distance matrix (angstroms):
                    1          2          3          4          5
     1  C    0.000000
     2  O    1.416448   0.000000
     3  C    2.363857   1.362633   0.000000
     4  C    3.100548   2.382818   1.383265   0.000000
     5  C    4.373389   3.638782   2.393271   1.378048   0.000000
     6  C    4.981832   4.136649   2.776137   2.399635   1.386172
     7  C    4.557476   3.640657   2.397987   2.757620   2.382269
     8  C    3.337765   2.383459   1.392020   2.399915   2.765532
     9  C    3.695208   2.898488   2.542611   3.795264   4.256025
    10  O    4.874316   4.015274   3.588014   4.739200   4.975348
    11  O    3.091239   2.771585   2.926050   4.257157   4.981847
    12  H    1.091266   2.078269   2.731571   2.964028   4.232489
    13  H    1.084054   2.006335   3.238140   4.054124   5.369087
    14  H    1.088322   2.053510   2.596518   3.437194   4.514851
    15  H    3.056357   2.594386   2.119640   1.079086   2.149035
    16  H    5.131629   4.505441   3.366637   2.126280   1.078887
    17  H    6.037396   5.213843   3.853658   3.377902   2.145671
    18  H    5.391278   4.489290   3.359263   3.834619   3.372538
    19  H    3.895221   3.636156   3.862692   5.204263   5.882404
                    6          7          8          9         10
     6  C    0.000000
     7  C    1.374597   0.000000
     8  C    2.402038   1.386093   0.000000
     9  C    3.737947   2.456304   1.492849   0.000000
    10  O    4.185106   2.817333   2.357855   1.192237   0.000000
    11  O    4.702787   3.545731   2.385834   1.343838   2.218953
    12  H    5.091670   4.956182   3.915765   4.561027   5.750119
    13  H    5.958698   5.435042   4.126635   4.202299   5.316285
    14  H    4.909887   4.362507   3.202102   3.379263   4.540116
    15  H    3.386136   3.835951   3.367793   4.658696   5.668127
    16  H    2.141865   3.362574   3.844395   5.334749   6.033900
    17  H    1.077536   2.129820   3.376774   4.585216   4.841859
    18  H    2.145568   1.077581   2.111700   2.589551   2.488294
    19  H    5.489722   4.243617   3.203896   1.879749   2.277657
                   11         12         13         14         15
    11  O    0.000000
    12  H    4.084324   0.000000
    13  H    3.408450   1.785317   0.000000
    14  H    2.590094   1.782239   1.780449   0.000000
    15  H    4.933417   2.599946   3.916184   3.626086   0.000000
    16  H    6.034156   4.796337   6.124457   5.332390   2.471463
    17  H    5.614656   6.104782   7.027157   5.917794   4.282193
    18  H    3.780481   5.892516   6.205658   5.080289   4.912524
    19  H    0.962796   4.927212   4.033150   3.361526   5.886130
                   16         17         18         19
    16  H    0.000000
    17  H    2.476769   0.000000
    18  H    4.272446   2.479805   0.000000
    19  H    6.944844   6.339191   4.277446   0.000000
 Stoichiometry    C8H8O3
 Framework group  C1[X(C8H8O3)]
 Deg. of freedom    51
 Full point group                 C1      NOp   1
 Largest Abelian subgroup         C1      NOp   1
 Largest concise Abelian subgroup C1      NOp   1
                         Standard orientation:                         
 ---------------------------------------------------------------------
 Center     Atomic      Atomic             Coordinates (Angstroms)
 Number     Number       Type             X           Y           Z
 ---------------------------------------------------------------------
      1          6           0        0.868130    2.598585    0.368525
      2          8           0        0.507635    1.665110   -0.633969
      3          6           0       -0.396426    0.709329   -0.279111
      4          6           0       -1.741441    1.018450   -0.185293
      5          6           0       -2.661108    0.030531    0.092636
      6          6           0       -2.252440   -1.283309    0.260835
      7          6           0       -0.916209   -1.589925    0.160889
      8          6           0        0.026256   -0.600902   -0.073306
      9          6           0        1.459073   -1.019379   -0.095900
     10          8           0        1.797077   -2.128543   -0.373276
     11          8           0        2.304024   -0.137251    0.464288
     12          1           0        0.031757    3.253093    0.619447
     13          1           0        1.687724    3.176365   -0.043310
     14          1           0        1.196827    2.065438    1.258557
     15          1           0       -2.045612    2.038150   -0.364509
     16          1           0       -3.707527    0.285027    0.157724
     17          1           0       -2.971230   -2.059765    0.464649
     18          1           0       -0.558275   -2.599754    0.276247
     19          1           0        3.181431   -0.533369    0.479193
 ---------------------------------------------------------------------
 Rotational constants (GHZ):           1.4759277           1.1722502           0.6872516
 Standard basis: def2TZVP (5D, 7F)
 There are   444 symmetry adapted cartesian basis functions of A   symmetry.
 There are   389 symmetry adapted basis functions of A   symmetry.
   389 basis functions,   625 primitive gaussians,   444 cartesian basis functions
    40 alpha electrons       40 beta electrons
       nuclear repulsion energy       602.3901462428 Hartrees.
 NAtoms=   19 NActive=   19 NUniq=   19 SFac= 1.00D+00 NAtFMM=   60 NAOKFM=F Big=F
 Integral buffers will be    131072 words long.
 Raffenetti 2 integral format.
 Two-electron integral symmetry is turned on.
 One-electron integrals computed using PRISM.
   1 Symmetry operations used in ECPInt.
 ECPInt:  NShTT=   11781 NPrTT=   36312 LenC2=   11332 LenP2D=   26940.
 LDataN:  DoStor=T MaxTD1= 6 Len=  172
 NBasis=   389 RedAO= T EigKep=  7.97D-06  NBF=   389
 NBsUse=   389 1.00D-06 EigRej= -1.00D+00 NBFU=   389
 Initial guess from the checkpoint file:  "/tmp/Gau-1609983.chk"
 B after Tr=     0.000000   -0.000000    0.000000
         Rot=    0.999980   -0.002460   -0.004265    0.003988 Ang=  -0.73 deg.
 ExpMin= 9.52D-02 ExpMax= 2.70D+04 ExpMxC= 9.22D+02 IAcc=3 IRadAn=         5 AccDes= 0.00D+00
 Harris functional with IExCor= 1009 and IRadAn=       5 diagonalized for initial guess.
 HarFok:  IExCor= 1009 AccDes= 0.00D+00 IRadAn=         5 IDoV= 1 UseB2=F ITyADJ=14
 ICtDFT=  3500011 ScaDFX=  1.000000  1.000000  1.000000  1.000000
 FoFCou: FMM=F IPFlag=           0 FMFlag=      100000 FMFlg1=           0
         NFxFlg=           0 DoJE=T BraDBF=F KetDBF=T FulRan=T
         wScrn=  0.000000 ICntrl=       500 IOpCl=  0 I1Cent=   200000004 NGrid=           0
         NMat0=    1 NMatS0=      1 NMatT0=    0 NMatD0=    1 NMtDS0=    0 NMtDT0=    0
 Petite list used in FoFCou.
 Requested convergence on RMS density matrix=1.00D-08 within 128 cycles.
 Requested convergence on MAX density matrix=1.00D-06.
 Requested convergence on             energy=1.00D-06.
 No special actions if energy rises.
 Integral accuracy reduced to 1.0D-05 until final iterations.
 Initial convergence to 1.0D-05 achieved.  Increase integral accuracy.
 SCF Done:  E(RM062X) =  -535.333227302     A.U. after   13 cycles
            NFock= 13  Conv=0.90D-08     -V/T= 2.0042
   1 Symmetry operations used in ECPInt.
 ECPInt:  NShTT=   11781 NPrTT=   36312 LenC2=   11332 LenP2D=   26940.
 LDataN:  DoStor=T MaxTD1= 7 Len=  274
 Calling FoFJK, ICntrl=      2127 FMM=F ISym2X=0 I1Cent= 0 IOpClX= 0 NMat=1 NMatS=1 NMatT=0.
 ***** Axes restored to original set *****
 -------------------------------------------------------------------
 Center     Atomic                   Forces (Hartrees/Bohr)
 Number     Number              X              Y              Z
 -------------------------------------------------------------------
      1        6          -0.002691943   -0.003769223   -0.001523272
      2        8          -0.004556524    0.003023875    0.002768764
      3        6           0.004378872    0.004005390   -0.004706705
      4        6           0.002731016    0.002425101    0.003588640
      5        6          -0.000963627   -0.004269861    0.001965274
      6        6           0.000226865   -0.003261799    0.002443635
      7        6          -0.002452846    0.002199005   -0.006037208
      8        6           0.002063883    0.010233284    0.004977945
      9        6           0.012882663   -0.018278109   -0.008436711
     10        8          -0.015260526    0.008773422   -0.004234601
     11        8           0.003925886    0.001835792    0.011816958
     12        1           0.000625502   -0.000299816    0.001244718
     13        1           0.002070334    0.001330332    0.000395770
     14        1           0.002383685    0.000451723   -0.002095121
     15        1           0.001384261   -0.000498324    0.002227587
     16        1           0.000174986   -0.002233109    0.001436473
     17        1          -0.001331462   -0.002381930    0.000055612
     18        1          -0.002322400   -0.001354465   -0.002310404
     19        1          -0.003268626    0.002068713   -0.003577356
 -------------------------------------------------------------------
 Cartesian Forces:  Max     0.018278109 RMS     0.005136084

 GradGradGradGradGradGradGradGradGradGradGradGradGradGradGradGradGradGrad
 Berny optimization.
 Using GEDIIS/GDIIS optimizer.
 FormGI is forming the generalized inverse of G from B-inverse, IUseBI=4.
 Internal  Forces:  Max     0.015585540 RMS     0.003366921
 Search for a local minimum.
 Step number   3 out of a maximum of   93
 All quantities printed in internal units (Hartrees-Bohrs-Radians)
 Mixed Optimization -- RFO/linear search
 Update second derivatives using D2CorX and points    1    3    2
 DE=  1.33D-03 DEPred=-2.05D-03 R=-6.50D-01
 Trust test=-6.50D-01 RLast= 3.69D-01 DXMaxT set to 2.52D-01
 ITU= -1  1  0
 Use linear search instead of GDIIS.
     Eigenvalues ---    0.01055   0.01246   0.01763   0.02057   0.02080
     Eigenvalues ---    0.02096   0.02109   0.02119   0.02138   0.02151
     Eigenvalues ---    0.02152   0.02162   0.02427   0.06880   0.10163
     Eigenvalues ---    0.10694   0.15255   0.15994   0.15997   0.15999
     Eigenvalues ---    0.16000   0.16000   0.16007   0.16193   0.21997
     Eigenvalues ---    0.22510   0.23966   0.24465   0.24785   0.24979
     Eigenvalues ---    0.25411   0.26555   0.33998   0.34158   0.34282
     Eigenvalues ---    0.34498   0.35031   0.35113   0.35167   0.35326
     Eigenvalues ---    0.41074   0.41565   0.42111   0.45380   0.45922
     Eigenvalues ---    0.46374   0.47334   0.50393   0.51465   0.56286
     Eigenvalues ---    0.93902
 RFO step:  Lambda=-5.31859890D-04 EMin= 1.05458818D-02
 Quartic linear search produced a step of -0.63284.
 Iteration  1 RMS(Cart)=  0.05000145 RMS(Int)=  0.00152054
 Iteration  2 RMS(Cart)=  0.00206632 RMS(Int)=  0.00049336
 Iteration  3 RMS(Cart)=  0.00000195 RMS(Int)=  0.00049335
[...]
 .00123673,-0.00033389,-0.00173601,0.01229609,-0.02086404,0.13581368,-0
 .21435340,0.24342820,-0.07341975,0.59494934,-0.00099753,0.00153790,-0.
 00081469,0.00688484,0.00273016,-0.00417790,0.02256479,-0.02869725,0.05
 276311,-0.14299385,-0.09651599,-0.05664012,0.34919914,-0.00075971,-0.0
 0021197,-0.00011697,0.00003742,0.00283900,0.00308716,0.00574614,-0.051
 44986,0.04966751,-0.13370449,-0.28966523,-0.04264962,0.15650128,0.6491
 7795,-0.00189113,0.00008983,-0.00009675,-0.00116156,0.00866272,-0.0024
 4817,0.02777297,-0.00272979,0.04979578,-0.02645277,0.01909961,-0.12201
 333,0.20926420,-0.13752969,0.58063991,0.00122267,-0.00046229,0.0001611
 1,-0.00219047,-0.00251066,0.00075223,-0.01519362,0.01554610,-0.0252800
 5,-0.01692331,-0.04192511,-0.00836000,-0.16016062,-0.01767824,-0.13669
 385,0.36590999,0.00104317,0.00025402,-0.00022268,-0.00149932,-0.001599
 70,-0.00160965,0.01414724,-0.01144618,0.02691422,-0.01413266,0.0211268
 1,-0.03289185,-0.05550541,-0.12701905,-0.03984024,0.19611114,0.6685053
 6,0.00116350,-0.00054949,0.00040111,-0.00138987,-0.00396693,0.00111572
 ,-0.02403534,0.02861355,-0.06654027,-0.02909773,-0.07699371,0.02072370
 ,-0.10726613,0.02105525,-0.24896656,0.21328891,-0.09684747,0.54095888,
 0.00119193,0.00044875,0.00007759,0.00224558,-0.00334753,-0.00495562,-0
 .01904758,-0.01132882,-0.02846758,-0.00809844,-0.01597040,0.00800964,0
 .01481395,0.02412774,-0.00749682,-0.09377287,0.01202841,-0.05322731,0.
 37682429,-0.00041134,-0.00123367,0.00024893,-0.00090343,0.00043229,0.0
 0519663,-0.04196988,0.02501823,-0.08247425,-0.01475244,-0.06849767,0.0
 2409034,0.05216990,0.04975038,0.05136528,-0.02600525,-0.24621701,0.093
 62080,0.14880452,0.60487939,-0.00020976,-0.00048844,-0.00171763,-0.006
 06193,0.00220573,-0.00249756,-0.00465434,-0.03356056,0.02191302,0.0068
 9802,0.02358701,-0.01198565,-0.03048318,0.00482771,-0.04374975,-0.0225
 0195,0.15309972,-0.21632854,0.24216541,-0.11573883,0.60614783,0.003378
 51,-0.00037364,-0.00171726,-0.01264612,-0.01380840,-0.01911159,-0.1467
 8590,-0.04322453,-0.08975858,0.01507890,0.04615672,-0.02724039,-0.0330
 4744,-0.02477576,-0.02480327,0.02445272,-0.02376710,0.04439177,-0.1421
 0916,-0.08322941,-0.05146074,0.37778354,0.00256763,-0.00007852,-0.0044
 9615,-0.02869259,-0.00976477,-0.03043015,-0.00809116,-0.12199807,0.028
 40983,0.01702598,0.04406548,0.00472701,-0.02538400,-0.02703692,-0.0249
 7276,0.00302561,-0.04632811,0.04936522,-0.11726645,-0.25746663,-0.0389
 4640,0.17017895,0.58067931,0.00386924,0.00203941,-0.00131278,-0.011339
 30,-0.01644122,0.00098217,-0.11284859,-0.02120822,-0.23732470,-0.00843
 855,0.04720307,-0.03585147,-0.02215443,-0.02196521,-0.02456404,0.02072
 669,0.00516038,0.03818173,-0.02532403,0.01488397,-0.11269453,0.2136831
 9,-0.08728279,0.54383601,-0.00033707,-0.00038265,-0.00280457,-0.003675
 39,-0.00387209,0.00566318,0.00397286,0.02092017,-0.01139997,0.00245648
 ,-0.00248864,-0.00592696,-0.00257117,-0.00084605,-0.00170847,0.0027225
 3,-0.00805916,-0.00175196,0.00852658,-0.00362239,0.01298324,-0.0858597
 5,-0.00295156,-0.00775589,0.72014985,0.00395892,0.00027843,-0.00320755
 ,-0.00576439,-0.01381407,0.00134932,0.01577075,0.02451422,0.00449640,-
 0.00412133,0.00295296,-0.00189187,-0.00041785,0.00070629,-0.00170301,-
 0.00628467,-0.00149566,-0.00270846,-0.00297717,-0.03056914,0.02344622,
 0.00196975,-0.14719510,0.05258880,0.11919412,0.49182441,-0.00471500,0.
 00023253,0.00165717,0.01018783,0.00633724,0.00168683,-0.01118511,0.008
 51863,-0.02051352,-0.00520110,0.00009529,-0.00104595,-0.00174105,-0.00
 347933,-0.00161244,-0.00238625,-0.00419065,0.00727816,0.01174634,0.015
 10941,0.00516291,-0.01467530,0.05113686,-0.14707886,0.32447027,-0.1485
 7778,0.63928164,0.00048796,0.00010996,0.00078171,-0.00017547,0.0008709
 3,-0.00130062,0.00370708,0.00141025,0.00139036,-0.00097714,0.00087029,
 -0.00047050,0.00024646,-0.00002147,0.00038483,0.00017459,0.00170415,-0
 .00056387,-0.00359149,-0.00708738,-0.00006831,-0.00534865,0.00840327,-
 0.03132762,-0.46675573,-0.00480766,-0.32636335,0.55087009,-0.00134463,
 -0.00003081,0.00095898,0.00191668,0.00353047,-0.00057694,-0.00453504,-
 0.00844518,0.00031375,0.00146451,-0.00031122,0.00165477,0.00066359,0.0
 0011240,0.00118191,0.00089783,0.00177897,-0.00002527,0.00056754,-0.003
 21041,0.00130013,0.01866412,0.01136209,0.02688498,-0.00916886,-0.10601
 540,0.01475446,0.04029149,0.08965141,0.00178240,-0.00004374,-0.0002659
 5,-0.00323007,-0.00253729,-0.00022247,0.00480819,0.00928759,0.00365360
 ,0.00055882,0.00023080,-0.00227679,-0.00027239,0.00032347,-0.00040063,
 0.00049300,0.00030119,-0.00128097,-0.00476556,-0.00462989,-0.00160562,
 -0.04016315,0.01713943,-0.02990386,-0.32286243,0.01785946,-0.37410671,
 0.40150745,-0.01662611,0.39012208,-0.00361945,0.00100561,0.00151909,0.
 00329431,0.00479440,-0.00208531,-0.00416357,-0.00541487,-0.00144855,0.
 00013328,0.00021511,0.00033459,0.00002821,-0.00052720,0.00011840,0.000
 56100,0.00047225,0.00107563,0.00149826,0.00085058,-0.00060806,0.005161
 67,-0.00819101,0.00264483,-0.18508651,-0.08813187,-0.01481042,-0.07715
 685,-0.05767697,-0.03488399,0.33021286,-0.00195728,-0.00031218,0.00139
 705,0.00454207,0.00597584,0.00310352,-0.00524108,-0.00725820,-0.002798
 32,0.00078419,0.00075188,-0.00019461,-0.00074682,-0.00104372,-0.000335
 94,0.00091941,-0.00171958,0.00107709,0.00252667,0.00107970,0.00440042,
 -0.02490054,-0.02488101,0.01258352,-0.10821205,-0.19012330,0.02842273,
 -0.05069016,0.00818586,-0.01977402,0.10537182,0.39781753,0.00210016,0.
 00031511,-0.00161211,-0.00542165,0.00327432,-0.00984349,0.00043134,-0.
 00016849,0.00070148,0.00041702,-0.00027172,0.00014698,0.00034741,0.000
 49138,0.00021781,0.00058719,0.00176428,0.00017060,-0.00285985,0.001178
 86,-0.00487488,0.01928991,0.02625031,0.00337657,0.00401308,0.04559877,
 -0.10641012,-0.04050705,-0.02635959,0.02191152,0.13817443,-0.25570552,
 0.39816488,-0.09852075,0.07786383,-0.06256390,-0.03889570,0.01950257,-
 0.01182705,0.00307394,0.00756458,0.00025230,0.00041818,-0.00012662,-0.
 00019209,-0.00024551,-0.00063089,-0.00010287,0.00021067,-0.00026939,0.
 00056155,0.00014624,0.00073723,-0.00035660,-0.00052014,-0.00154511,-0.
 00088441,0.00011531,-0.00013684,0.00051889,-0.00004955,0.00008111,-0.0
 0012838,0.00030086,0.00010564,-0.00014464,0.12373715,0.08333216,-0.182
 72830,0.09830452,0.00247380,0.00413865,-0.00204538,-0.00176042,0.00108
 960,-0.00197213,0.00057224,0.00077682,0.00058065,-0.00002313,0.0001490
 0,-0.00014874,0.00010634,0.00007343,-0.00006806,-0.00008999,-0.0000725
 2,-0.00003873,0.00049425,-0.00017342,0.00000882,-0.00028080,-0.0000790
 1,-0.00018816,0.00017220,0.00000376,0.00014303,-0.00006008,0.00023762,
 -0.00005618,-0.09449867,0.18980837,-0.06452755,0.09949705,-0.12952702,
 0.00618998,-0.00760706,0.00835212,0.00002256,-0.00013791,0.00029041,0.
 00008403,-0.00074235,-0.00003473,-0.00004274,-0.00020358,-0.00016567,-
 0.00004806,-0.00007674,0.00010143,0.00008180,0.00008242,0.00006422,-0.
 00024364,0.00005751,-0.00000130,0.00099621,0.00127456,-0.00040074,-0.0
 0049437,-0.00037446,-0.00010012,-0.00114700,-0.00056563,0.00015380,0.0
 6787490,-0.10810291,0.13050929,-0.07138638,-0.07031114,-0.02081447,-0.
 02546041,-0.03639468,-0.00650657,-0.00436804,0.00216993,0.00137050,-0.
 00032220,-0.00076989,-0.00023743,0.00035914,-0.00013306,0.00002969,-0.
 00015704,-0.00009864,-0.00010491,0.00008121,-0.00016735,-0.00031512,-0
 .00046009,-0.00072048,-0.00016013,-0.00045202,-0.00082503,0.00074451,0
 .00004132,0.00025645,-0.00026323,0.00040119,0.00056960,-0.00017280,0.0
 0696914,0.01295584,0.00480573,0.09246749,-0.08313209,-0.28358165,-0.06
 476209,-0.00124702,0.00209972,0.00058381,0.00029691,0.00188763,0.00043
 571,-0.00025178,0.00006206,-0.00009343,0.00009905,0.00028623,0.0001075
 1,-0.00012695,0.00003747,-0.00026792,-0.00007251,-0.00029599,0.0001077
 0,0.00009801,0.00030096,0.00027498,-0.00007349,-0.00039175,0.00030351,
 -0.00001466,0.00012161,-0.00013892,0.00004572,0.00024787,-0.00017424,-
 0.00630528,-0.01787053,-0.00666032,0.09054406,0.29944311,-0.02532946,-
 0.06828922,-0.07078939,0.00514168,0.00878043,0.00300904,0.00164594,0.0
 0038800,0.00051718,0.00014545,0.00040319,0.00006314,-0.00021407,-0.000
 22385,-0.00020442,0.00011272,-0.00009108,0.00025376,0.00008772,0.00030
 421,0.00006859,0.00012551,0.00016562,-0.00008696,0.00009003,-0.0002610
 7,0.00007768,0.00007636,0.00005020,-0.00000473,0.00010872,0.00060003,-
 0.00000685,0.00618195,0.01684179,0.00531258,0.02195512,0.07058374,0.06
 715637,-0.04848254,0.00073516,0.01753917,-0.02562868,0.00219376,0.0377
 1275,0.00356043,0.00634627,0.00356876,-0.00018635,-0.00183172,-0.00046
 638,0.00055381,0.00034215,0.00047960,-0.00033771,0.00014488,-0.0005692
 8,-0.00024105,-0.00058788,0.00012441,0.00026884,0.00045406,-0.00064160
 ,-0.00178892,-0.00173180,0.00069889,0.00064613,0.00050867,0.00006109,-
 0.00017919,0.00092839,-0.00087776,0.00384884,-0.00314350,-0.01370173,0
 .00259461,0.00006307,-0.00987888,0.06529202,0.00342633,-0.06071773,-0.
 03993684,-0.00072961,0.00288698,0.00029383,0.00021198,0.00048210,0.002
 02558,0.00031625,-0.00011047,0.00009524,-0.00000599,-0.00006843,0.0000
 2039,0.00004133,0.00006904,-0.00000585,0.00012307,-0.00017121,0.000036
 60,0.00036959,0.00026591,-0.00027425,0.00080593,0.00163059,-0.00061772
 ,-0.00048993,-0.00044501,-0.00000783,-0.00066561,-0.00106559,0.0004761
 1,-0.00203757,0.00448509,0.02340041,0.00311385,-0.00222377,-0.02918046
 ,-0.00459135,0.05485976,0.02533318,-0.04054601,-0.30655554,0.01136665,
 0.00055877,-0.00380292,-0.00108740,-0.00220194,0.00100752,0.00013254,0
 .00075462,-0.00040605,-0.00015488,-0.00021448,-0.00013484,0.00013721,0
 .00005903,0.00024097,0.00026335,0.00014615,0.00006450,0.00053151,0.000
 64273,0.00004807,0.00004778,0.00031823,-0.00041407,-0.00009867,-0.0001
 6956,0.00009970,-0.00202046,0.00041362,-0.00065584,0.00016245,-0.00346
 434,-0.01450583,-0.00052671,-0.00012764,-0.00538561,-0.03400031,0.0436
 6910,0.33036232,0.00031114,-0.00038077,0.00028493,-0.00278268,0.001067
 11,0.00236470,0.00309467,-0.00215508,-0.00254398,-0.13147970,-0.029705
 88,-0.13770900,-0.00487633,-0.00078281,-0.01228985,0.00402378,-0.00491
 130,-0.00185842,-0.00031273,0.00035916,0.00063560,0.00371459,-0.000936
 83,-0.00207422,0.00022737,-0.00038852,-0.00000357,-0.00018095,0.000088
 96,0.00006563,0.00001664,0.00005894,-0.00000048,-0.00039927,-0.0001428
 1,0.00016109,-0.00014973,0.00011966,-0.00011321,-0.00004434,0.00002391
 ,-0.00003524,0.13185100,-0.00030281,-0.00013619,0.00044498,0.00156222,
 0.00147169,-0.00261529,0.01212296,0.00736879,0.01928241,-0.03100082,-0
 .06200838,-0.03274869,-0.01445836,0.00121876,-0.02315845,-0.00447490,-
 0.00329220,0.00102892,-0.00012639,-0.00154958,0.00037514,-0.00130757,-
 0.00236017,0.00410915,0.00052697,0.00102860,0.00046228,0.00035798,-0.0
 0043363,0.00043488,-0.00009238,-0.00021027,-0.00000448,-0.00013809,0.0
 0004133,0.00022847,0.00004476,-0.00003908,-0.00000547,0.00006282,0.000
 06585,-0.00004078,0.03603707,0.05851938,-0.00023044,0.00057642,-0.0003
 8346,0.00246992,-0.00169735,0.00096078,-0.01461968,-0.00646425,-0.0139
 3341,-0.13807254,-0.03146345,-0.24601429,-0.00042104,0.00104611,0.0014
 8840,-0.00210584,0.00072179,0.00302265,0.00088124,0.00033313,0.0002340
 4,-0.00129756,0.00462201,-0.00068316,-0.00086295,-0.00125403,0.0003674
 6,-0.00015018,0.00045566,-0.00067778,0.00030314,0.00036446,-0.00006712
 ,0.00060948,0.00014861,-0.00010117,0.00024504,-0.00014896,0.00008395,0
 .00001738,-0.00007353,0.00007491,0.15143201,0.03394861,0.25634745,0.00
 015916,-0.00011650,0.00004505,-0.00069710,-0.00088556,0.00059823,0.003
 93576,-0.00425058,-0.00380975,0.00579416,-0.01187870,0.01143950,-0.049
 51295,0.01018722,-0.02288139,0.00343554,0.01393092,-0.01214800,0.00217
 287,-0.00269986,-0.00570140,-0.00079407,-0.00038273,0.00022396,-0.0008
 8071,0.00044143,0.00029827,0.00020788,0.00008892,-0.00004185,0.0000636
 4,-0.00001213,-0.00002642,-0.00004792,-0.00003494,0.00001218,-0.000046
 90,0.,0.00002840,-0.00006541,-0.00003500,0.00001912,-0.00239416,0.0017
 8920,0.00165257,0.04072091,0.00057678,-0.00007327,-0.00012124,-0.00028
 616,-0.00178220,0.00086713,-0.00480906,-0.00107549,-0.00050522,0.00311
 448,-0.01456190,0.01998483,0.01006978,-0.20633543,0.14443713,-0.001094
 73,0.00714149,-0.00396440,-0.00234658,0.00240355,0.00000485,-0.0004869
 0,-0.00032556,-0.00105107,0.00023494,-0.00025359,-0.00024998,0.0000572
 3,0.00001148,0.00012307,0.00005144,0.00006010,0.00004704,-0.00004792,0
 .00010455,-0.00000710,-0.00007486,-0.00000951,-0.00000012,-0.00005312,
 0.00002472,0.00002805,0.00146614,0.00033124,-0.00113259,-0.00793252,0.
 21421759,-0.00001215,0.00003026,-0.00004496,0.00038444,-0.00023400,0.0
 0017058,-0.00342451,-0.00031451,0.00305101,-0.00070186,-0.00417814,0.0
 0666885,-0.02315075,0.14468987,-0.18908593,-0.00011619,0.01973642,-0.0
 1129920,-0.00576744,-0.00020019,-0.00182064,-0.00025834,-0.00118236,-0
 .00023687,0.00025480,-0.00029896,-0.00040192,0.00006915,0.00018410,0.0
 0011928,0.00010158,0.00013847,-0.00002030,0.00000178,0.00005137,0.0000
 0232,0.00001027,0.00000796,-0.00001862,0.00001702,0.00002196,-0.000018
 34,0.00208123,-0.00052778,-0.00050462,0.02860579,-0.15771102,0.1942312
 1,-0.00004063,-0.00005327,-0.00004213,-0.00063318,0.00023508,0.0006219
 7,-0.00024787,0.00065493,-0.00059090,0.00282598,-0.00143523,-0.0055694
 6,-0.00543092,-0.01563419,-0.00029978,-0.11753421,-0.13002410,-0.02765
 190,0.00451521,0.00353755,0.00018302,0.00511012,-0.00105323,-0.0027579
 7,0.00039249,0.00015922,-0.00025067,0.00002226,-0.00001539,0.00003238,
 -0.00010820,0.00008529,-0.00000582,0.00000053,0.00000185,-0.00001198,-
 0.00003647,0.00000191,0.00000652,-0.00000941,-0.00001357,0.00000226,-0
 .00019870,-0.00082424,-0.00003759,-0.00193219,0.00155097,0.00172773,0.
 11567246,0.00008551,0.00005388,-0.00002360,0.00024704,-0.00010504,-0.0
 0029050,0.00062028,0.00022424,0.00063118,-0.00184310,0.00250214,0.0006
 2519,-0.00019457,0.00070884,0.00096175,-0.12973598,-0.26696114,-0.0278
 2760,-0.01193681,-0.01518389,-0.00502497,-0.00075062,-0.00052138,0.004
 65593,-0.00094129,-0.00011002,-0.00097663,0.00024578,-0.00010264,0.000
 36339,0.00000395,-0.00048785,0.00042528,0.00000129,0.00000300,-0.00000
 167,0.00001494,-0.00000735,-0.00000064,0.00001886,-0.00000165,0.000009
 55,-0.00003151,-0.00002276,0.00014883,0.00110755,-0.00007993,-0.001108
 60,0.14155553,0.27997257,0.00006324,0.00006768,-0.00002460,0.00049894,
 -0.00033790,-0.00000784,-0.00051927,0.00060299,-0.00148067,-0.00530451
 ,0.00096892,-0.00204162,-0.01211862,-0.02308830,0.00109329,-0.02760382
 ,-0.02792942,-0.05843516,0.01184433,0.01912792,0.00660161,-0.00327892,
 0.00438566,-0.00064340,0.00058293,0.00054353,0.00098420,-0.00018633,-0
 .00007934,-0.00018437,0.00011926,0.00033515,-0.00041205,0.00005691,-0.
 00000120,0.00000443,0.00002729,-0.00001414,0.00000482,-0.00001809,-0.0
 0000011,0.00001604,-0.00062562,-0.00104634,-0.00001718,0.00207802,-0.0
 0043441,-0.00016306,0.03253088,0.02835548,0.05523549,0.00025035,0.0000
 3874,-0.00022894,-0.00077708,-0.00051546,-0.00064249,0.00352645,-0.003
 80223,-0.00109534,-0.00028200,0.00003880,0.00077936,0.00511001,-0.0015
 6269,-0.00222603,0.00395319,-0.00109102,-0.00053328,-0.14530014,-0.024
 15564,-0.14155941,-0.00487644,-0.00258092,-0.01298431,-0.00413332,0.00
 178671,-0.00062086,0.00095851,0.00164122,0.00025346,0.00014677,-0.0003
 2510,0.00026087,-0.00009390,-0.00004126,0.00002776,-0.00003972,0.00001
 645,-0.00001317,-0.00002433,-0.00000112,0.00004057,-0.00042533,0.00022
 672,0.00019974,-0.00013614,0.00001090,0.00018596,-0.00236576,0.0015906
 0,0.00176995,0.14451330,0.00040704,-0.00015299,-0.00030042,-0.00140657
 ,-0.00064601,-0.00135142,-0.00342865,-0.00300408,0.00200910,-0.0000919
 3,-0.00120320,0.00005701,-0.00169705,-0.00211904,0.00457694,0.01357745
 ,0.00749585,0.01875071,-0.02309261,-0.05910598,-0.02050205,-0.01594334
 ,0.00140028,-0.02208825,-0.00201935,-0.00119729,-0.00323768,0.00149399
 ,-0.00007739,0.00183634,0.00145122,0.00105447,0.00007549,-0.00005467,0
 .00002967,0.00002221,-0.00010661,-0.00001636,0.00003248,-0.00004138,0.
 00007530,0.00006717,0.00023190,-0.00002090,-0.00014006,0.00072440,0.00
 017257,0.00088995,0.00120937,0.00016967,-0.00148343,0.02889479,0.05728
 686,0.00004510,-0.00006078,0.00003321,0.00004451,0.00022703,0.00001556
 ,-0.00204747,0.00077813,0.00280254,0.00082443,0.00051534,0.00007402,-0
 .00259109,0.00447711,0.00024124,-0.01168058,-0.00398094,-0.00992048,-0
 .14213766,-0.02300609,-0.24253289,-0.00316146,0.00008034,-0.00000232,0
 .00167769,-0.00010712,-0.00132471,0.00084701,0.00173384,-0.00067085,-0
 .00025230,-0.00005412,0.00011953,0.00000886,0.00004250,-0.00002736,-0.
 00001675,-0.00000630,0.00001106,0.00001052,0.00001521,-0.00001162,0.00
 023168,-0.00016165,-0.00020757,-0.00036931,-0.00032202,-0.00064351,0.0
 0214168,-0.00093320,-0.00050176,0.15645357,0.02068525,0.25241369,0.000
 54050,0.00012040,-0.00010797,-0.00043804,0.00001803,-0.00032442,-0.000
 16499,0.00019422,-0.00002835,-0.00008529,0.00004634,0.00010412,0.00007
 598,0.00011460,-0.00004190,-0.00039681,-0.00022406,-0.00028335,0.00045
 736,-0.00086669,0.00099108,-0.00250113,-0.00385944,-0.00245687,0.01297
 713,-0.02769377,0.03328768,-0.00312645,0.00560980,-0.00295137,-0.07150
 490,0.07619315,-0.11560495,-0.00004813,-0.00003308,-0.00003918,-0.0000
 3509,-0.00006108,-0.00015732,0.00022325,0.00013752,-0.00011294,0.00000
 473,-0.00000512,-0.00001269,0.00001764,-0.00000080,-0.00000852,-0.0000
 0150,-0.00005744,0.00008341,-0.00000440,-0.00010801,-0.00002844,0.0640
 1014,0.00051346,0.00009431,0.00019940,-0.00071772,0.00060911,-0.001317
 92,0.00022875,-0.00061048,0.00010968,0.00024553,0.00007980,-0.00023414
 ,-0.00012524,0.00000083,-0.00008445,0.00007356,-0.00040380,-0.00028638
 ,-0.00007145,0.00001015,0.00090876,-0.00536356,0.00005562,-0.00008202,
 0.00123628,-0.03169118,0.03614501,0.00712374,0.00431364,-0.00428483,0.
 04649790,-0.18830917,0.20284327,-0.00006521,-0.00001711,-0.00008289,-0
 .00006770,-0.00005066,-0.00009776,0.00018267,-0.00004147,0.00009773,-0
 .00001733,0.00002752,0.00000859,-0.00004114,0.00002958,0.00000521,0.00
 006153,-0.00005067,0.00002727,-0.00016948,-0.00014144,0.00007747,-0.04
 952459,0.21609542,0.00028476,0.00002784,0.00001568,-0.00040032,0.00019
 593,-0.00117302,-0.00022804,-0.00070319,0.00016995,0.00004524,0.000039
 34,-0.00013555,-0.00013164,-0.00019452,-0.00003390,0.00051753,-0.00007
 632,0.00032247,-0.00015556,0.00036121,-0.00044900,-0.00085171,0.000328
 10,0.00395972,0.00429400,0.01253457,-0.00318701,-0.00352601,-0.0052615
 3,-0.00420535,-0.08724356,0.22659211,-0.30106041,-0.00002912,-0.000035
 44,0.00007335,-0.00007003,-0.00001094,-0.00006161,-0.00007557,0.000042
 16,-0.00002337,-0.00000328,-0.00000592,0.00001012,-0.00002298,0.000007
 07,0.00001474,-0.00002825,0.00001084,-0.00002816,-0.00006741,0.0001006
 7,0.00013224,0.08769197,-0.23395199,0.30565910\\0.00003460,-0.00000613
 ,0.00000751,-0.00000511,0.00002982,-0.00000636,-0.00003330,-0.00007071
 ,0.00000677,0.00001161,0.00000916,-0.00000584,0.00000495,0.00000797,0.
 00000216,-0.00000355,0.00001085,-0.00001355,-0.00000753,-0.00001931,0.
 00002102,-0.00001937,0.00003175,-0.00002470,0.00006541,0.00000691,0.00
 005341,-0.00000736,-0.00000642,-0.00001763,-0.00002780,0.00000013,-0.0
 0002468,-0.00000447,0.00000672,-0.00000157,-0.00000019,-0.00000147,-0.
 00000264,-0.00000907,-0.00000027,0.00000507,-0.00000680,-0.00000634,-0
 .00000322,-0.00000393,0.00000507,-0.00000171,-0.00000104,0.00000674,-0
 .00000093,0.00000589,0.00000193,0.00000478,0.00000705,-0.00000639,0.00
 000209\\\@
 The archive entry for this job was punched.


 THE DIFFICULTY IN SCIENCE IS OFTEN NOT SO MUCH HOW
 TO MAKE A DISCOVERY BUT RATHER TO KNOW ONE HAS MADE IT.

                                                   -- J. D. BERNAL
 Job cpu time:       0 days  2 hours 18 minutes 17.9 seconds.
 Elapsed time:       0 days  0 hours 17 minutes 26.6 seconds.
 File lengths (MBytes):  RWF=    247 Int=      0 D2E=      0 Chk=     13 Scr=      1
 Normal termination of Gaussian 16 at Mon Jan 29 10:16:15 2024.
