 Entering Gaussian System, Link 0=/usr/local/Gaussian/G16C/g16/g16
 Input=arbr41_wb97xd_red.com
 Output=arbr41_wb97xd_red.log
 Initial command:
 /usr/local/Gaussian/G16C/g16/l1.exe "/home/rpaton/arbr500/midi/fukui/Gau-2439094.inp" -scrdir="/home/rpaton/arbr500/midi/fukui/"
 Entering Link 1 = /usr/local/Gaussian/G16C/g16/l1.exe PID=   2439095.
  
 Copyright (c) 1988-2019, Gaussian, Inc.  All Rights Reserved.
  
 This is part of the Gaussian(R) 16 program.  It is based on
 the Gaussian(R) 09 system (copyright 2009, Gaussian, Inc.),
 the Gaussian(R) 03 system (copyright 2003, Gaussian, Inc.),
 the Gaussian(R) 98 system (copyright 1998, Gaussian, Inc.),
 the Gaussian(R) 94 system (copyright 1995, Gaussian, Inc.),
 the Gaussian 92(TM) system (copyright 1992, Gaussian, Inc.),
 the Gaussian 90(TM) system (copyright 1990, Gaussian, Inc.),
 the Gaussian 88(TM) system (copyright 1988, Gaussian, Inc.),
 the Gaussian 86(TM) system (copyright 1986, Carnegie Mellon
 University), and the Gaussian 82(TM) system (copyright 1983,
 Carnegie Mellon University). Gaussian is a federally registered
 trademark of Gaussian, Inc.
  
 This software contains proprietary and confidential information,
 including trade secrets, belonging to Gaussian, Inc.
  
 This software is provided under written license and may be
 used, copied, transmitted, or stored only in accord with that
 written license.
  
 The following legend is applicable only to US Government
 contracts under FAR:
  
                    RESTRICTED RIGHTS LEGEND
  
 Use, reproduction and disclosure by the US Government is
 subject to restrictions as set forth in subparagraphs (a)
 and (c) of the Commercial Computer Software - Restricted
 Rights clause in FAR 52.227-19.
  
 Gaussian, Inc.
 340 Quinnipiac St., Bldg. 40, Wallingford CT 06492
  
  
 ---------------------------------------------------------------
 Warning -- This program may not be used in any manner that
 competes with the business of Gaussian, Inc. or will provide
 assistance to any competitor of Gaussian, Inc.  The licensee
 of this program is prohibited from giving any competitor of
 Gaussian, Inc. access to this program.  By using this program,
 the user acknowledges that Gaussian, Inc. is engaged in the
 business of creating and licensing software in the field of
 computational chemistry and represents and warrants to the
 licensee that it is not a competitor of Gaussian, Inc. and that
 it will not use this program in any manner prohibited above.
 ---------------------------------------------------------------
  

 Cite this work as:
 Gaussian 16, Revision C.01,
 M. J. Frisch, G. W. Trucks, H. B. Schlegel, G. E. Scuseria, 
 M. A. Robb, J. R. Cheeseman, G. Scalmani, V. Barone, 
 G. A. Petersson, H. Nakatsuji, X. Li, M. Caricato, A. V. Marenich, 
 J. Bloino, B. G. Janesko, R. Gomperts, B. Mennucci, H. P. Hratchian, 
 J. V. Ortiz, A. F. Izmaylov, J. L. Sonnenberg, D. Williams-Young, 
 F. Ding, F. Lipparini, F. Egidi, J. Goings, B. Peng, A. Petrone, 
 T. Henderson, D. Ranasinghe, V. G. Zakrzewski, J. Gao, N. Rega, 
 G. Zheng, W. Liang, M. Hada, M. Ehara, K. Toyota, R. Fukuda, 
 J. Hasegawa, M. Ishida, T. Nakajima, Y. Honda, O. Kitao, H. Nakai, 
 T. Vreven, K. Throssell, J. A. Montgomery, Jr., J. E. Peralta, 
 F. Ogliaro, M. J. Bearpark, J. J. Heyd, E. N. Brothers, K. N. Kudin, 
 V. N. Staroverov, T. A. Keith, R. Kobayashi, J. Normand, 
 K. Raghavachari, A. P. Rendell, J. C. Burant, S. S. Iyengar, 
 J. Tomasi, M. Cossi, J. M. Millam, M. Klene, C. Adamo, R. Cammi, 
 J. W. Ochterski, R. L. Martin, K. Morokuma, O. Farkas, 
 J. B. Foresman, and D. J. Fox, Gaussian, Inc., Wallingford CT, 2019.
 
 ******************************************
 Gaussian 16:  ES64L-G16RevC.01  3-Jul-2019
                30-Sep-2024 
 ******************************************
 %chk=arbr41_wb97xd_red.chk
 %mem=48GB
 %nprocshared=24
 Will use up to   24 processors via shared memory.
 -----------------------------------
 # pop=(nbo6,hirshfeld) wb97xd/midix
 -----------------------------------
 1/38=1,172=1/1;
 2/12=2,17=6,18=5,40=1/2;
 3/5=20,11=2,25=1,30=1,74=-58/1,2,3;
 4//1;
 5/5=2,38=5/2;
 6/7=2,8=2,9=2,10=2,28=1,40=1,79=1,113=1,114=1,124=3103,126=1/1,12;
 99/5=1,9=1/99;
 ----------------------------------------
 arbr41_wb97xd_redcreated by GaussianPrep
 ----------------------------------------
 Symbolic Z-matrix:
 Charge = -1 Multiplicity = 2
 N                    -3.15654  -2.39342  -1.1888 
 C                    -2.81158  -1.67244  -0.35636 
 C                    -2.38186  -0.75436   0.70933 
 C                    -3.3763    0.45117   0.84964 
 C                    -2.81336   1.53637  -0.11255 
 C                    -1.33058   1.23265  -0.13144 
 C                    -0.2772    2.03482  -0.54125 
 C                     1.02372   1.53889  -0.48104 
 C                     1.2554    0.24744  -0.0188 
 Br                    3.0322   -0.41258   0.06255 
 C                     0.20471  -0.56906   0.38881 
 C                    -1.07974  -0.05636   0.32972 
 H                    -2.2969   -1.31396   1.64848 
 H                    -4.40841   0.16701   0.62458 
 H                    -3.3272    0.81278   1.8841 
 H                    -3.24191   1.42097  -1.11925 
 H                    -3.03821   2.5513    0.23476 
 H                    -0.45423   3.04422  -0.90501 
 H                     1.8607    2.15645  -0.79178 
 H                     0.39581  -1.57926   0.74015 
 
                          Input orientation:                          
 ---------------------------------------------------------------------
 Center     Atomic      Atomic             Coordinates (Angstroms)
 Number     Number       Type             X           Y           Z
 ---------------------------------------------------------------------
      1          7           0       -3.156538   -2.393419   -1.188800
      2          6           0       -2.811580   -1.672441   -0.356364
      3          6           0       -2.381864   -0.754359    0.709332
      4          6           0       -3.376296    0.451172    0.849638
      5          6           0       -2.813360    1.536368   -0.112546
      6          6           0       -1.330577    1.232653   -0.131437
      7          6           0       -0.277196    2.034815   -0.541246
      8          6           0        1.023723    1.538888   -0.481040
      9          6           0        1.255398    0.247443   -0.018799
     10         35           0        3.032195   -0.412580    0.062547
     11          6           0        0.204706   -0.569058    0.388814
     12          6           0       -1.079735   -0.056355    0.329720
     13          1           0       -2.296904   -1.313963    1.648479
     14          1           0       -4.408408    0.167013    0.624584
     15          1           0       -3.327200    0.812779    1.884096
     16          1           0       -3.241911    1.420965   -1.119251
     17          1           0       -3.038212    2.551299    0.234760
     18          1           0       -0.454234    3.044216   -0.905006
     19          1           0        1.860699    2.156445   -0.791779
     20          1           0        0.395805   -1.579264    0.740151
 ---------------------------------------------------------------------
                    Distance matrix (angstroms):
                    1          2          3          4          5
     1  N    0.000000
     2  C    1.154017   0.000000
     3  C    2.624794   1.470795   0.000000
     4  C    3.506454   2.506607   1.569040   0.000000
     5  C    4.088926   3.218059   2.471660   1.555746   0.000000
     6  C    4.195301   3.268567   2.400065   2.399622   1.513686
     7  C    5.321578   4.494556   3.711208   3.747920   2.619993
     8  C    5.782607   5.003771   4.274809   4.723769   3.854737
     9  C    5.273351   4.510013   3.842324   4.716808   4.269064
    10  Br   6.617402   5.992699   5.463257   6.514164   6.164379
    11  C    4.137042   3.297078   2.612932   3.751907   3.713880
    12  C    3.475756   2.466117   1.525403   2.408753   2.395375
    13  H    3.155051   2.100665   1.096527   2.217867   3.390033
    14  H    3.378069   2.625968   2.227777   1.093915   2.227706
    15  H    4.444268   3.385534   2.174776   1.096938   2.184992
    16  H    3.815973   3.215018   2.969079   2.198882   1.100195
    17  H    5.146918   4.270921   3.403437   2.214251   1.096022
    18  H    6.078722   5.301409   4.555328   4.282651   2.909824
    19  H    6.784656   6.056414   5.359613   5.747027   4.763684
    20  H    4.123450   3.390921   2.897734   4.285254   4.553350
                    6          7          8          9         10
     6  C    0.000000
     7  C    1.386008   0.000000
     8  C    2.399736   1.393542   0.000000
     9  C    2.769584   2.411741   1.391104   0.000000
    10  Br   4.666712   4.160093   2.852661   1.897170   0.000000
    11  C    2.423617   2.806670   2.422988   1.391681   2.850549
    12  C    1.391808   2.403257   2.761642   2.380463   4.135970
    13  H    3.253789   4.482012   4.868282   4.223346   5.632670
    14  H    3.343681   4.681320   5.710735   5.700799   7.484276
    15  H    2.867956   4.083893   5.005161   4.994078   6.727663
    16  H    2.159730   3.082278   4.314725   4.776394   6.642510
    17  H    2.188366   2.914129   4.246959   4.879255   6.757520
    18  H    2.155956   1.087453   2.151771   3.395607   5.004077
    19  H    3.387283   2.155958   1.085571   2.146666   2.949943
    20  H    3.412761   3.893132   3.407119   2.156795   2.961562
                   11         12         13         14         15
    11  C    0.000000
    12  C    1.384249   0.000000
    13  H    2.898222   2.191393   0.000000
    14  H    4.677415   3.349164   2.774905   0.000000
    15  H    4.076727   2.867504   2.374880   1.781122   0.000000
    16  H    4.256010   2.992824   4.004148   2.444191   3.065495
    17  H    4.502985   3.262592   4.181912   2.777448   2.413768
    18  H    3.894088   3.395488   5.376750   5.123811   4.583921
    19  H    3.400659   3.847128   5.940055   6.727973   5.989995
    20  H    1.086496   2.159843   2.854142   5.113052   4.570694
                   16         17         18         19         20
    16  H    0.000000
    17  H    1.775526   0.000000
    18  H    3.232953   2.866876   0.000000
    19  H    5.165733   5.020859   2.481909   0.000000
    20  H    5.068701   5.395317   4.980530   4.295142   0.000000
 Stoichiometry    C10H8BrN(1-,2)
 Framework group  C1[X(C10H8BrN)]
 Deg. of freedom    54
 Full point group                 C1      NOp   1
 Largest Abelian subgroup         C1      NOp   1
 Largest concise Abelian subgroup C1      NOp   1
                         Standard orientation:                         
 ---------------------------------------------------------------------
 Center     Atomic      Atomic             Coordinates (Angstroms)
 Number     Number       Type             X           Y           Z
 ---------------------------------------------------------------------
      1          7           0       -3.156538   -2.393419   -1.188800
      2          6           0       -2.811580   -1.672441   -0.356364
      3          6           0       -2.381864   -0.754359    0.709332
      4          6           0       -3.376296    0.451172    0.849638
      5          6           0       -2.813360    1.536368   -0.112546
      6          6           0       -1.330577    1.232653   -0.131437
      7          6           0       -0.277196    2.034815   -0.541246
      8          6           0        1.023723    1.538888   -0.481040
      9          6           0        1.255398    0.247443   -0.018799
     10         35           0        3.032195   -0.412580    0.062547
     11          6           0        0.204706   -0.569058    0.388814
     12          6           0       -1.079735   -0.056355    0.329720
     13          1           0       -2.296904   -1.313963    1.648479
     14          1           0       -4.408408    0.167013    0.624584
     15          1           0       -3.327200    0.812779    1.884096
     16          1           0       -3.241911    1.420965   -1.119251
     17          1           0       -3.038212    2.551299    0.234760
     18          1           0       -0.454234    3.044216   -0.905006
     19          1           0        1.860699    2.156445   -0.791779
     20          1           0        0.395805   -1.579264    0.740151
 ---------------------------------------------------------------------
 Rotational constants (GHZ):           1.4487551           0.3519482           0.3020488
 Standard basis: MIDIx (5D, 7F)
 There are   150 symmetry adapted cartesian basis functions of A   symmetry.
 There are   147 symmetry adapted basis functions of A   symmetry.
   147 basis functions,   258 primitive gaussians,   150 cartesian basis functions
    56 alpha electrons       55 beta electrons
       nuclear repulsion energy       870.6474095107 Hartrees.
 NAtoms=   20 NActive=   20 NUniq=   20 SFac= 1.00D+00 NAtFMM=   60 NAOKFM=F Big=F
 Integral buffers will be    131072 words long.
 Raffenetti 2 integral format.
 Two-electron integral symmetry is turned on.
 Nuclear repulsion after empirical dispersion term =      870.6341628392 Hartrees.
 One-electron integrals computed using PRISM.
 NBasis=   147 RedAO= T EigKep=  1.14D-03  NBF=   147
 NBsUse=   147 1.00D-06 EigRej= -1.00D+00 NBFU=   147
 ExpMin= 1.47D-01 ExpMax= 6.10D+03 ExpMxC= 6.10D+03 IAcc=3 IRadAn=         5 AccDes= 0.00D+00
 Harris functional with IExCor= 4639 and IRadAn=       5 diagonalized for initial guess.
 HarFok:  IExCor= 4639 AccDes= 0.00D+00 IRadAn=         5 IDoV= 1 UseB2=F ITyADJ=14
 ICtDFT=  3500011 ScaDFX=  1.000000  1.000000  1.000000  1.000000
 FoFCou: FMM=F IPFlag=           0 FMFlag=      100000 FMFlg1=           0
         NFxFlg=           0 DoJE=T BraDBF=F KetDBF=T FulRan=T
         wScrn=  0.000000 ICntrl=       500 IOpCl=  0 I1Cent=   200000004 NGrid=           0
         NMat0=    1 NMatS0=      1 NMatT0=    0 NMatD0=    1 NMtDS0=    0 NMtDT0=    0
 Petite list used in FoFCou.
 Initial guess <Sx>= 0.0000 <Sy>= 0.0000 <Sz>= 0.5000 <S**2>= 0.7500 S= 0.5000
 Requested convergence on RMS density matrix=1.00D-08 within 128 cycles.
 Requested convergence on MAX density matrix=1.00D-06.
 Requested convergence on             energy=1.00D-06.
 No special actions if energy rises.
 Integral accuracy reduced to 1.0D-05 until final iterations.
 Initial convergence to 1.0D-05 achieved.  Increase integral accuracy.
 SCF Done:  E(UwB97XD) =  -2999.91510215     A.U. after   39 cycles
            NFock= 39  Conv=0.65D-08     -V/T= 2.0021
 <Sx>= 0.0000 <Sy>= 0.0000 <Sz>= 0.5000 <S**2>= 0.7621 S= 0.5060
 <L.S>= 0.000000000000E+00
 Annihilation of the first spin contaminant:
 S**2 before annihilation     0.7621,   after     0.7501

 **********************************************************************

            Population analysis using the SCF Density.

 **********************************************************************

 Orbital symmetries:
 Alpha Orbitals:
       Occupied  (A) (A) (A) (A) (A) (A) (A) (A) (A) (A) (A) (A)
                 (A) (A) (A) (A) (A) (A) (A) (A) (A) (A) (A) (A)
                 (A) (A) (A) (A) (A) (A) (A) (A) (A) (A) (A) (A)
                 (A) (A) (A) (A) (A) (A) (A) (A) (A) (A) (A) (A)
                 (A) (A) (A) (A) (A) (A) (A) (A)
       Virtual   (A) (A) (A) (A) (A) (A) (A) (A) (A) (A) (A) (A)
                 (A) (A) (A) (A) (A) (A) (A) (A) (A) (A) (A) (A)
                 (A) (A) (A) (A) (A) (A) (A) (A) (A) (A) (A) (A)
                 (A) (A) (A) (A) (A) (A) (A) (A) (A) (A) (A) (A)
                 (A) (A) (A) (A) (A) (A) (A) (A) (A) (A) (A) (A)
                 (A) (A) (A) (A) (A) (A) (A) (A) (A) (A) (A) (A)
                 (A) (A) (A) (A) (A) (A) (A) (A) (A) (A) (A) (A)
                 (A) (A) (A) (A) (A) (A) (A)
 Beta  Orbitals:
       Occupied  (A) (A) (A) (A) (A) (A) (A) (A) (A) (A) (A) (A)
                 (A) (A) (A) (A) (A) (A) (A) (A) (A) (A) (A) (A)
                 (A) (A) (A) (A) (A) (A) (A) (A) (A) (A) (A) (A)
                 (A) (A) (A) (A) (A) (A) (A) (A) (A) (A) (A) (A)
                 (A) (A) (A) (A) (A) (A) (A)
       Virtual   (A) (A) (A) (A) (A) (A) (A) (A) (A) (A) (A) (A)
                 (A) (A) (A) (A) (A) (A) (A) (A) (A) (A) (A) (A)
                 (A) (A) (A) (A) (A) (A) (A) (A) (A) (A) (A) (A)
                 (A) (A) (A) (A) (A) (A) (A) (A) (A) (A) (A) (A)
                 (A) (A) (A) (A) (A) (A) (A) (A) (A) (A) (A) (A)
                 (A) (A) (A) (A) (A) (A) (A) (A) (A) (A) (A) (A)
                 (A) (A) (A) (A) (A) (A) (A) (A) (A) (A) (A) (A)
                 (A) (A) (A) (A) (A) (A) (A) (A)
 The electronic state is 2-A.
 Alpha  occ. eigenvalues -- -479.99303 -62.42711 -56.01575 -56.01201 -56.01183
 Alpha  occ. eigenvalues --  -14.20668 -10.13737 -10.12081 -10.11804 -10.10917
 Alpha  occ. eigenvalues --  -10.10258 -10.06912 -10.05328 -10.04399 -10.03144
 Alpha  occ. eigenvalues --  -10.02931  -8.73551  -6.51922  -6.50661  -6.50660
 Alpha  occ. eigenvalues --   -2.62255  -2.61806  -2.61778  -2.60750  -2.60745
 Alpha  occ. eigenvalues --   -0.86930  -0.82758  -0.78356  -0.72949  -0.70587
 Alpha  occ. eigenvalues --   -0.66024  -0.64137  -0.56757  -0.54157  -0.49768
 Alpha  occ. eigenvalues --   -0.46349  -0.43903  -0.39779  -0.38987  -0.37388
 Alpha  occ. eigenvalues --   -0.34377  -0.33873  -0.32897  -0.32052  -0.31294
 Alpha  occ. eigenvalues --   -0.30062  -0.28972  -0.27666  -0.26258  -0.25276
 Alpha  occ. eigenvalues --   -0.24302  -0.22743  -0.21095  -0.16358  -0.14483
 Alpha  occ. eigenvalues --    0.04918
 Alpha virt. eigenvalues --    0.23913   0.25090   0.25973   0.28086   0.30745
 Alpha virt. eigenvalues --    0.33203   0.34337   0.36171   0.36718   0.37472
 Alpha virt. eigenvalues --    0.39681   0.40852   0.42272   0.42527   0.44645
 Alpha virt. eigenvalues --    0.46355   0.51905   0.53657   0.58272   0.58312
 Alpha virt. eigenvalues --    0.61886   0.62456   0.66058   0.72023   0.73705
 Alpha virt. eigenvalues --    0.75594   0.76854   0.78823   0.79128   0.79609
 Alpha virt. eigenvalues --    0.80558   0.82353   0.84764   0.86582   0.86879
 Alpha virt. eigenvalues --    0.88816   0.91994   0.92710   0.93552   0.96660
 Alpha virt. eigenvalues --    0.98055   1.00786   1.01547   1.03459   1.05493
 Alpha virt. eigenvalues --    1.06324   1.08732   1.10763   1.11756   1.12451
 Alpha virt. eigenvalues --    1.13167   1.13373   1.14241   1.14792   1.15841
 Alpha virt. eigenvalues --    1.16182   1.17434   1.18715   1.19619   1.20975
 Alpha virt. eigenvalues --    1.22110   1.22432   1.23094   1.26035   1.27100
 Alpha virt. eigenvalues --    1.28882   1.30181   1.32951   1.33571   1.38941
 Alpha virt. eigenvalues --    1.40290   1.44075   1.45124   1.50948   1.53936
 Alpha virt. eigenvalues --    1.56017   1.59884   1.65198   1.76521   1.77163
 Alpha virt. eigenvalues --    1.79199   1.81750   1.87987   1.99460   2.03851
 Alpha virt. eigenvalues --    2.06719   2.06914   2.15698   2.24244   2.29825
 Alpha virt. eigenvalues --    3.31259
  Beta  occ. eigenvalues -- -479.99303 -62.42712 -56.01574 -56.01202 -56.01185
  Beta  occ. eigenvalues --  -14.20630 -10.13764 -10.12042 -10.11806 -10.11028
  Beta  occ. eigenvalues --  -10.10254 -10.07028 -10.05082 -10.04148 -10.02652
  Beta  occ. eigenvalues --  -10.02493  -8.73552  -6.51921  -6.50663  -6.50662
  Beta  occ. eigenvalues --   -2.62255  -2.61806  -2.61779  -2.60751  -2.60746
  Beta  occ. eigenvalues --   -0.86820  -0.82423  -0.78068  -0.72689  -0.70317
  Beta  occ. eigenvalues --   -0.65276  -0.63595  -0.56596  -0.53099  -0.49489
  Beta  occ. eigenvalues --   -0.46127  -0.43566  -0.39694  -0.38767  -0.36984
  Beta  occ. eigenvalues --   -0.34178  -0.33529  -0.32678  -0.31887  -0.31123
  Beta  occ. eigenvalues --   -0.29931  -0.28143  -0.27421  -0.26147  -0.25040
  Beta  occ. eigenvalues --   -0.24076  -0.22058  -0.21035  -0.13272  -0.12465
  Beta virt. eigenvalues --    0.24054   0.24906   0.25392   0.26521   0.29212
  Beta virt. eigenvalues --    0.30898   0.33604   0.34479   0.36391   0.36934
  Beta virt. eigenvalues --    0.39143   0.39932   0.41200   0.42549   0.42945
  Beta virt. eigenvalues --    0.44893   0.47711   0.52180   0.54093   0.58438
  Beta virt. eigenvalues --    0.58666   0.62550   0.62760   0.66376   0.72150
  Beta virt. eigenvalues --    0.74242   0.75774   0.77276   0.78991   0.79159
  Beta virt. eigenvalues --    0.79584   0.80617   0.82473   0.84954   0.86653
  Beta virt. eigenvalues --    0.86878   0.89008   0.92104   0.92898   0.93685
  Beta virt. eigenvalues --    0.96851   0.98212   1.00854   1.02122   1.03695
  Beta virt. eigenvalues --    1.06345   1.06659   1.09222   1.10840   1.12087
  Beta virt. eigenvalues --    1.13277   1.13362   1.13699   1.14684   1.15351
  Beta virt. eigenvalues --    1.16332   1.17145   1.17683   1.19129   1.19963
  Beta virt. eigenvalues --    1.21221   1.22289   1.22768   1.23675   1.26328
  Beta virt. eigenvalues --    1.27379   1.28991   1.30511   1.33238   1.33902
  Beta virt. eigenvalues --    1.39328   1.40558   1.44249   1.45322   1.51108
  Beta virt. eigenvalues --    1.54119   1.56142   1.60025   1.65334   1.76719
  Beta virt. eigenvalues --    1.77380   1.79484   1.81928   1.88292   1.99665
  Beta virt. eigenvalues --    2.03947   2.06847   2.07045   2.15880   2.24334
  Beta virt. eigenvalues --    2.29957   3.31328
          Condensed to atoms (all electrons):
               1          2          3          4          5          6
     1  N    7.001893   0.631651  -0.043406  -0.003458  -0.000154  -0.000246
     2  C    0.631651   5.371840  -0.115259  -0.063473  -0.003996   0.000343
     3  C   -0.043406  -0.115259   5.589154   0.316563  -0.090427  -0.053148
     4  C   -0.003458  -0.063473   0.316563   5.237991   0.302572  -0.071592
     5  C   -0.000154  -0.003996  -0.090427   0.302572   5.180867   0.296980
     6  C   -0.000246   0.000343  -0.053148  -0.071592   0.296980   5.041105
     7  C    0.000005   0.000162   0.000281   0.001496   0.004345   0.460168
     8  C   -0.000000  -0.000055   0.001107  -0.000082   0.000305  -0.017733
     9  C    0.000001   0.000051   0.000848  -0.000143   0.000981  -0.053555
    10  Br   0.000000   0.000001  -0.000047   0.000000   0.000004   0.000480
    11  C    0.000003   0.001640  -0.003962   0.001230   0.000221  -0.014723
    12  C   -0.006113  -0.071048   0.325522  -0.070775  -0.043430   0.524719
    13  H   -0.001711  -0.062380   0.407379  -0.037388   0.008190  -0.000432
    14  H    0.000690   0.005627  -0.041785   0.387568  -0.039231   0.005398
    15  H    0.000132   0.008056  -0.047910   0.384252  -0.028144   0.001189
    16  H    0.000733   0.007214  -0.010796  -0.024242   0.367720  -0.027106
    17  H   -0.000013  -0.000968   0.010539  -0.044145   0.392987  -0.032496
    18  H   -0.000000   0.000001  -0.000109   0.000016  -0.007031  -0.030404
    19  H   -0.000000  -0.000000   0.000009   0.000001  -0.000044   0.003943
    20  H    0.000016   0.000726  -0.007618   0.000047  -0.000089   0.003145
               7          8          9         10         11         12
     1  N    0.000005  -0.000000   0.000001   0.000000   0.000003  -0.006113
     2  C    0.000162  -0.000055   0.000051   0.000001   0.001640  -0.071048
     3  C    0.000281   0.001107   0.000848  -0.000047  -0.003962   0.325522
     4  C    0.001496  -0.000082  -0.000143   0.000000   0.001230  -0.070775
     5  C    0.004345   0.000305   0.000981   0.000004   0.000221  -0.043430
     6  C    0.460168  -0.017733  -0.053555   0.000480  -0.014723   0.524719
     7  C    5.111222   0.377607  -0.029134   0.001661  -0.013078  -0.048226
     8  C    0.377607   5.083390   0.523108  -0.039046  -0.061279  -0.030382
     9  C   -0.029134   0.523108   5.032849   0.187094   0.456508  -0.005292
    10  Br   0.001661  -0.039046   0.187094  35.094361  -0.038021   0.002102
    11  C   -0.013078  -0.061279   0.456508  -0.038021   5.124284   0.343312
    12  C   -0.048226  -0.030382  -0.005292   0.002102   0.343312   5.192820
    13  H    0.000014  -0.000031   0.000011   0.000001   0.002900  -0.041655
    14  H   -0.000024   0.000002   0.000002  -0.000000  -0.000046   0.006023
    15  H   -0.000048  -0.000005  -0.000003  -0.000000   0.000030   0.000825
    16  H   -0.001323  -0.000037  -0.000009  -0.000000   0.000097  -0.002237
    17  H   -0.001297  -0.000010  -0.000003  -0.000000  -0.000038  -0.000033
    18  H    0.405139  -0.028669   0.003771  -0.000081   0.000134   0.003647
    19  H   -0.024451   0.400788  -0.030120  -0.001002   0.002999   0.000261
    20  H    0.000143   0.002947  -0.025213  -0.001471   0.399543  -0.022592
              13         14         15         16         17         18
     1  N   -0.001711   0.000690   0.000132   0.000733  -0.000013  -0.000000
     2  C   -0.062380   0.005627   0.008056   0.007214  -0.000968   0.000001
     3  C    0.407379  -0.041785  -0.047910  -0.010796   0.010539  -0.000109
     4  C   -0.037388   0.387568   0.384252  -0.024242  -0.044145   0.000016
     5  C    0.008190  -0.039231  -0.028144   0.367720   0.392987  -0.007031
     6  C   -0.000432   0.005398   0.001189  -0.027106  -0.032496  -0.030404
     7  C    0.000014  -0.000024  -0.000048  -0.001323  -0.001297   0.405139
     8  C   -0.000031   0.000002  -0.000005  -0.000037  -0.000010  -0.028669
     9  C    0.000011   0.000002  -0.000003  -0.000009  -0.000003   0.003771
    10  Br   0.000001  -0.000000  -0.000000  -0.000000  -0.000000  -0.000081
    11  C    0.002900  -0.000046   0.000030   0.000097  -0.000038   0.000134
    12  C   -0.041655   0.006023   0.000825  -0.002237  -0.000033   0.003647
    13  H    0.540511  -0.001857  -0.001179  -0.000390   0.000060   0.000003
    14  H   -0.001857   0.545183  -0.028368  -0.001808  -0.000161  -0.000001
    15  H   -0.001179  -0.028368   0.534181   0.003671  -0.004973   0.000003
    16  H   -0.000390  -0.001808   0.003671   0.546206  -0.035653   0.000506
    17  H    0.000060  -0.000161  -0.004973  -0.035653   0.556274   0.002160
    18  H    0.000003  -0.000001   0.000003   0.000506   0.002160   0.556508
    19  H   -0.000000  -0.000000  -0.000000   0.000001  -0.000000  -0.005621
    20  H    0.001953  -0.000002   0.000003   0.000002   0.000003   0.000008
              19         20
     1  N   -0.000000   0.000016
     2  C   -0.000000   0.000726
     3  C    0.000009  -0.007618
     4  C    0.000001   0.000047
     5  C   -0.000044  -0.000089
     6  C    0.003943   0.003145
     7  C   -0.024451   0.000143
     8  C    0.400788   0.002947
     9  C   -0.030120  -0.025213
    10  Br  -0.001002  -0.001471
    11  C    0.002999   0.399543
    12  C    0.000261  -0.022592
    13  H   -0.000000   0.001953
    14  H   -0.000000  -0.000002
    15  H   -0.000000   0.000003
    16  H    0.000001   0.000002
    17  H   -0.000000   0.000003
    18  H   -0.005621   0.000008
    19  H    0.530612  -0.000099
    20  H   -0.000099   0.527822
          Atomic-Atomic Spin Densities.
               1          2          3          4          5          6
     1  N    0.039441  -0.004371  -0.012434   0.000731  -0.000395   0.000043
     2  C   -0.004371   0.161062  -0.127861   0.018378  -0.010378   0.002071
     3  C   -0.012434  -0.127861   0.135129  -0.037138   0.031413  -0.012065
     4  C    0.000731   0.018378  -0.037138   0.033130  -0.030306   0.012584
     5  C   -0.000395  -0.010378   0.031413  -0.030306   0.042970  -0.004486
     6  C    0.000043   0.002071  -0.012065   0.012584  -0.004486  -0.124292
     7  C    0.000007   0.000313  -0.000749  -0.000474  -0.003297  -0.019210
     8  C   -0.000001  -0.000042   0.000036   0.000047   0.000084  -0.003172
     9  C   -0.000002  -0.000067   0.000229  -0.000000   0.000016   0.005423
    10  Br  -0.000000  -0.000001   0.000005  -0.000000   0.000000  -0.000026
    11  C    0.000484   0.006331  -0.012415  -0.000409  -0.000090  -0.008630
    12  C   -0.001502  -0.005503   0.010327   0.016927  -0.006556   0.031338
    13  H   -0.001045  -0.037264   0.028565  -0.008903   0.002711  -0.001392
    14  H    0.000342   0.006865  -0.010550   0.004198  -0.006098   0.000514
    15  H   -0.000015  -0.001354   0.003422  -0.004710   0.003022  -0.001354
    16  H    0.000229   0.002010  -0.005456   0.007383  -0.013150   0.003173
    17  H   -0.000005  -0.000362   0.002016  -0.007719   0.003299  -0.002981
    18  H   -0.000000  -0.000001   0.000012  -0.000025   0.000268  -0.002347
    19  H   -0.000000  -0.000000   0.000001  -0.000000   0.000005   0.000050
    20  H   -0.000005  -0.000176   0.000649  -0.000027   0.000013  -0.000035
               7          8          9         10         11         12
     1  N    0.000007  -0.000001  -0.000002  -0.000000   0.000484  -0.001502
     2  C    0.000313  -0.000042  -0.000067  -0.000001   0.006331  -0.005503
     3  C   -0.000749   0.000036   0.000229   0.000005  -0.012415   0.010327
     4  C   -0.000474   0.000047  -0.000000  -0.000000  -0.000409   0.016927
     5  C   -0.003297   0.000084   0.000016   0.000000  -0.000090  -0.006556
     6  C   -0.019210  -0.003172   0.005423  -0.000026  -0.008630   0.031338
     7  C    0.586097  -0.154552  -0.012524   0.000182   0.016203  -0.026754
     8  C   -0.154552   0.337976   0.046344  -0.002308  -0.028255   0.012761
     9  C   -0.012524   0.046344  -0.115161   0.006532  -0.041420  -0.001572
    10  Br   0.000182  -0.002308   0.006532  -0.004736  -0.000614   0.000103
    11  C    0.016203  -0.028255  -0.041420  -0.000614   0.665755  -0.157422
    12  C   -0.026754   0.012761  -0.001572   0.000103  -0.157422   0.346169
    13  H    0.000065  -0.000024  -0.000031   0.000002   0.004024  -0.021729
    14  H    0.000000   0.000000   0.000000  -0.000000  -0.000006   0.001024
    15  H    0.000143  -0.000009  -0.000002   0.000000   0.000145  -0.002851
    16  H    0.002160  -0.000070  -0.000011  -0.000000   0.000147  -0.000906
    17  H    0.001640  -0.000082  -0.000002   0.000000   0.000035  -0.001332
    18  H    0.002716  -0.002009   0.000014   0.000001  -0.000042   0.000007
    19  H   -0.001503   0.001664  -0.001620   0.000346   0.000092  -0.000039
    20  H   -0.000045   0.000031  -0.002424   0.000524   0.002608  -0.002888
              13         14         15         16         17         18
     1  N   -0.001045   0.000342  -0.000015   0.000229  -0.000005  -0.000000
     2  C   -0.037264   0.006865  -0.001354   0.002010  -0.000362  -0.000001
     3  C    0.028565  -0.010550   0.003422  -0.005456   0.002016   0.000012
     4  C   -0.008903   0.004198  -0.004710   0.007383  -0.007719  -0.000025
     5  C    0.002711  -0.006098   0.003022  -0.013150   0.003299   0.000268
     6  C   -0.001392   0.000514  -0.001354   0.003173  -0.002981  -0.002347
     7  C    0.000065   0.000000   0.000143   0.002160   0.001640   0.002716
     8  C   -0.000024   0.000000  -0.000009  -0.000070  -0.000082  -0.002009
     9  C   -0.000031   0.000000  -0.000002  -0.000011  -0.000002   0.000014
    10  Br   0.000002  -0.000000   0.000000  -0.000000   0.000000   0.000001
    11  C    0.004024  -0.000006   0.000145   0.000147   0.000035  -0.000042
    12  C   -0.021729   0.001024  -0.002851  -0.000906  -0.001332   0.000007
    13  H    0.057875  -0.002248   0.002101  -0.000242   0.000173   0.000000
    14  H   -0.002248   0.012741  -0.002411   0.001860  -0.001288  -0.000000
    15  H    0.002101  -0.002411   0.003439  -0.000439   0.001277   0.000001
    16  H   -0.000242   0.001860  -0.000439   0.008548  -0.004360  -0.000041
    17  H    0.000173  -0.001288   0.001277  -0.004360   0.013172   0.000049
    18  H    0.000000  -0.000000   0.000001  -0.000041   0.000049  -0.022517
    19  H    0.000000  -0.000000   0.000000  -0.000001   0.000001   0.000331
    20  H    0.000168  -0.000001   0.000002  -0.000001   0.000000  -0.000000
              19         20
     1  N   -0.000000  -0.000005
     2  C   -0.000000  -0.000176
     3  C    0.000001   0.000649
     4  C   -0.000000  -0.000027
     5  C    0.000005   0.000013
     6  C    0.000050  -0.000035
     7  C   -0.001503  -0.000045
     8  C    0.001664   0.000031
     9  C   -0.001620  -0.002424
    10  Br   0.000346   0.000524
    11  C    0.000092   0.002608
    12  C   -0.000039  -0.002888
    13  H    0.000000   0.000168
    14  H   -0.000000  -0.000001
    15  H    0.000000   0.000002
    16  H   -0.000001  -0.000001
    17  H    0.000001   0.000000
    18  H    0.000331  -0.000000
    19  H   -0.012971   0.000002
    20  H    0.000002  -0.024594
 Mulliken charges and spin densities:
               1          2
     1  N   -0.580022   0.021502
     2  C    0.289866   0.009652
     3  C   -0.236935  -0.006864
     4  C   -0.316440   0.003667
     5  C   -0.342625   0.009044
     6  C   -0.036034  -0.124795
     7  C   -0.244663   0.390417
     8  C   -0.211925   0.208421
     9  C   -0.061752  -0.116276
    10  Br  -0.206035   0.000010
    11  C   -0.201757   0.446521
    12  C   -0.057445   0.189601
    13  H    0.186001   0.022807
    14  H    0.162791   0.004942
    15  H    0.178287   0.000407
    16  H    0.177454   0.000833
    17  H    0.157766   0.003531
    18  H    0.100019  -0.023581
    19  H    0.122723  -0.013643
    20  H    0.120726  -0.026198
 Sum of Mulliken charges =  -1.00000   1.00000
 Mulliken charges and spin densities with hydrogens summed into heavy atoms:
               1          2
     1  N   -0.580022   0.021502
     2  C    0.289866   0.009652
     3  C   -0.050934   0.015943
     4  C    0.024639   0.009016
     5  C   -0.007405   0.013409
     6  C   -0.036034  -0.124795
     7  C   -0.144643   0.366836
     8  C   -0.089201   0.194778
     9  C   -0.061752  -0.116276
    10  Br  -0.206035   0.000010
    11  C   -0.081032   0.420323
    12  C   -0.057445   0.189601
 Electronic spatial extent (au):  <R**2>=           3345.3285
 Charge=             -1.0000 electrons
 Dipole moment (field-independent basis, Debye):
    X=              0.9902    Y=              1.1997    Z=              2.4666  Tot=              2.9161
 Quadrupole moment (field-independent basis, Debye-Ang):
   XX=           -107.9554   YY=            -99.0781   ZZ=            -90.7158
   XY=            -10.0935   XZ=             -7.6259   YZ=             -6.0147
 Traceless Quadrupole moment (field-independent basis, Debye-Ang):
   XX=             -8.7056   YY=              0.1717   ZZ=              8.5339
   XY=            -10.0935   XZ=             -7.6259   YZ=             -6.0147
 Octapole moment (field-independent basis, Debye-Ang**2):
  XXX=            133.5995  YYY=             -2.2549  ZZZ=              8.6855  XYY=             67.4995
  XXY=             31.2228  XXZ=             22.1592  XZZ=             41.3074  YZZ=             -1.4252
  YYZ=             16.3461  XYZ=             18.0068
 Hexadecapole moment (field-independent basis, Debye-Ang**3):
 XXXX=          -3149.6239 YYYY=           -973.1411 ZZZZ=           -261.5604 XXXY=           -167.5635
 XXXZ=            -59.3109 YYYX=           -122.9344 YYYZ=            -43.0725 ZZZX=             -7.9644
 ZZZY=             -5.9520 XXYY=           -749.7343 XXZZ=           -568.8975 YYZZ=           -214.7260
 XXYZ=            -62.8496 YYXZ=            -50.1721 ZZXY=            -38.3138
 N-N= 8.706341628392D+02 E-N=-8.898866662226D+03  KE= 2.993745822310D+03
 There are a total of      454818 grid points.
 ElSum from          density=      110.9999785091
 ElSum from atomic densities=      109.9998928938
 Hirshfeld populations at iteration   1 (CA, CB, DipXYZ):
               1          2          3          4          5
     1  N    3.645628   3.628204   0.040907   0.066866   0.067933
     2  C    2.987560   2.968273   0.065751   0.109082   0.114539
     3  C    3.008133   2.988231  -0.024219  -0.024783  -0.029262
     4  C    3.025572   3.019058   0.024393   0.002169  -0.018590
     5  C    3.028240   3.023460   0.004821  -0.012912   0.014822
     6  C    3.019023   3.017876  -0.067049   0.030388  -0.017861
     7  C    3.206040   2.955623   0.018007  -0.003022  -0.002289
     8  C    3.148934   2.985199  -0.023875   0.027731  -0.010222
     9  C    3.015218   3.008034   0.066957  -0.035497   0.005075
    10  Br  17.575702  17.576555  -0.094856   0.028440  -0.006627
    11  C    3.224409   2.944512  -0.030169   0.012185  -0.006762
    12  C    3.118423   2.963997  -0.026196  -0.060022   0.001667
    13  H    0.496674   0.479705   0.012961  -0.067250   0.117794
    14  H    0.495579   0.492159  -0.127406  -0.029633  -0.025172
    15  H    0.491483   0.488979   0.005666   0.047850   0.131305
    16  H    0.491945   0.490887  -0.053328  -0.010822  -0.124456
    17  H    0.494111   0.491765  -0.027585   0.122778   0.041162
    18  H    0.511870   0.493918  -0.016983   0.129528  -0.048469
    19  H    0.504225   0.493034   0.096216   0.096342  -0.045195
    20  H    0.511220   0.490523   0.010807  -0.136102   0.046637
       Tot  55.999989  54.999990  -0.145179   0.293318   0.206030

 Dip from Atomic Chgs              0.534696   0.178694   0.764381
         Total Dipole              0.389517   0.472012   0.970411

 Hirshfeld charges, spin densities, dipoles, and CM5 charges using IRadAn=      5:
              Q-H        S-H        Dx         Dy         Dz        Q-CM5   
     1  N   -0.273831   0.017424   0.040907   0.066866   0.067933  -0.398181
     2  C    0.044167   0.019287   0.065751   0.109082   0.114539   0.157116
     3  C    0.003637   0.019902  -0.024219  -0.024783  -0.029262  -0.047556
     4  C   -0.044630   0.006515   0.024393   0.002169  -0.018590  -0.147561
     5  C   -0.051700   0.004780   0.004821  -0.012912   0.014822  -0.152025
     6  C   -0.036898   0.001147  -0.067049   0.030388  -0.017861  -0.048121
     7  C   -0.161663   0.250417   0.018007  -0.003022  -0.002289  -0.214171
     8  C   -0.134133   0.163735  -0.023875   0.027731  -0.010222  -0.187411
     9  C   -0.023252   0.007185   0.066957  -0.035497   0.005075  -0.044423
    10  Br  -0.152257  -0.000853  -0.094856   0.028440  -0.006627  -0.137376
    11  C   -0.168921   0.279897  -0.030169   0.012185  -0.006762  -0.219184
    12  C   -0.082420   0.154427  -0.026196  -0.060022   0.001667  -0.090245
    13  H    0.023621   0.016968   0.012961  -0.067250   0.117794   0.082497
    14  H    0.012262   0.003421  -0.127406  -0.029633  -0.025172   0.067271
    15  H    0.019539   0.002504   0.005666   0.047850   0.131305   0.074388
    16  H    0.017168   0.001058  -0.053328  -0.010822  -0.124456   0.071917
    17  H    0.014124   0.002346  -0.027585   0.122778   0.041162   0.068270
    18  H   -0.005789   0.017952  -0.016983   0.129528  -0.048469   0.050093
    19  H    0.002741   0.011192   0.096216   0.096342  -0.045195   0.059337
    20  H   -0.001742   0.020697   0.010807  -0.136102   0.046637   0.055387
       Tot  -0.999979   0.999999  -0.145179   0.293318   0.206030  -0.999979
 Hirshfeld charges and spin densities with hydrogens summed into heavy atoms:
              Q-H        S-H       Q-CM5   
     1  N   -0.273831   0.017424  -0.398181
     2  C    0.044167   0.019287   0.157116
     3  C    0.027257   0.036870   0.034941
     4  C   -0.012829   0.012439  -0.005903
     5  C   -0.020409   0.008183  -0.011838
     6  C   -0.036898   0.001147  -0.048121
     7  C   -0.167452   0.268369  -0.164078
     8  C   -0.131392   0.174927  -0.128074
     9  C   -0.023252   0.007185  -0.044423
    10  Br  -0.152257  -0.000853  -0.137376
    11  C   -0.170663   0.300594  -0.163797
    12  C   -0.082420   0.154427  -0.090245
 
 EQQ= 0.960698931738E-01 EQD=-0.409970100425E-01 EDD=-0.303209284302E-04
 EQQ+QD+DD= 0.550425622029E-01
 
                          Isotropic Fermi Contact Couplings
        Atom                 a.u.       MegaHertz       Gauss      10(-4) cm-1
     1  N(14)              0.00453       1.46252       0.52186       0.48784
     2  C(13)              0.02313      26.00469       9.27912       8.67423
     3  C(13)             -0.00730      -8.21199      -2.93024      -2.73923
     4  C(13)             -0.00040      -0.44907      -0.16024      -0.14979
     5  C(13)              0.00062       0.70232       0.25060       0.23427
     6  C(13)             -0.01838     -20.66245      -7.37288      -6.89225
     7  C(13)              0.03380      37.99281      13.55678      12.67304
     8  C(13)              0.01567      17.61954       6.28709       5.87725
     9  C(13)             -0.02077     -23.35411      -8.33333      -7.79009
    10  Br(79)            -0.00225      -2.53224      -0.90357      -0.84466
    11  C(13)              0.03880      43.62142      15.56521      14.55054
    12  C(13)              0.01552      17.44755       6.22572       5.81988
    13  H(1)               0.00561      25.07677       8.94802       8.36471
    14  H(1)               0.00078       3.48213       1.24251       1.16151
    15  H(1)               0.00054       2.42256       0.86443       0.80808
    16  H(1)              -0.00055      -2.44050      -0.87083      -0.81406
    17  H(1)               0.00005       0.20949       0.07475       0.06988
    18  H(1)              -0.00456     -20.37575      -7.27058      -6.79662
    19  H(1)              -0.00278     -12.44298      -4.43996      -4.15053
    20  H(1)              -0.00520     -23.25647      -8.29849      -7.75752
 --------------------------------------------------------
       Center         ----  Spin Dipole Couplings  ----
                      3XX-RR        3YY-RR        3ZZ-RR
 --------------------------------------------------------
     1   Atom       -0.010752     -0.015898      0.026650
     2   Atom       -0.007250     -0.012080      0.019330
     3   Atom        0.004023     -0.002473     -0.001550
     4   Atom        0.004393     -0.001654     -0.002739
     5   Atom        0.003433      0.000679     -0.004112
     6   Atom        0.031607      0.025601     -0.057208
     7   Atom       -0.184086     -0.113970      0.298056
     8   Atom       -0.102947     -0.070532      0.173479
     9   Atom        0.030100      0.022046     -0.052145
    10   Atom        0.030826      0.002517     -0.033343
    11   Atom       -0.208267     -0.122020      0.330286
    12   Atom       -0.102737     -0.081829      0.184566
    13   Atom        0.002349     -0.000512     -0.001836
    14   Atom        0.002799     -0.001328     -0.001472
    15   Atom        0.003087     -0.001695     -0.001392
    16   Atom        0.002981     -0.001046     -0.001935
    17   Atom        0.002953     -0.000470     -0.002483
    18   Atom       -0.026609      0.026211      0.000397
    19   Atom        0.006966     -0.004493     -0.002473
    20   Atom       -0.029343      0.028192      0.001151
 --------------------------------------------------------
                        XY            XZ            YZ
 --------------------------------------------------------
     1   Atom        0.013481     -0.023733     -0.016069
     2   Atom       -0.001076      0.000799      0.007993
     3   Atom        0.004399     -0.000436      0.000365
     4   Atom       -0.001327     -0.001721      0.000827
     5   Atom       -0.002162     -0.000042     -0.000228
     6   Atom        0.002207     -0.012458     -0.036030
     7   Atom        0.012587      0.046939      0.177380
     8   Atom        0.010016      0.025477      0.109391
     9   Atom        0.003415     -0.007644     -0.034576
    10   Atom       -0.014707     -0.008285     -0.012075
    11   Atom        0.015239      0.050354      0.209192
    12   Atom        0.001695      0.009423      0.097899
    13   Atom        0.004138     -0.004199     -0.002002
    14   Atom       -0.000320     -0.000390      0.000112
    15   Atom       -0.001156     -0.003037      0.000753
    16   Atom       -0.001029      0.001787     -0.001167
    17   Atom       -0.001934     -0.000888      0.000131
    18   Atom       -0.009017      0.005718     -0.009786
    19   Atom        0.017152     -0.007639     -0.001383
    20   Atom       -0.011194      0.006504     -0.010888
 --------------------------------------------------------


 ---------------------------------------------------------------------------------
              Anisotropic Spin Dipole Couplings in Principal Axis System
 ---------------------------------------------------------------------------------

       Atom             a.u.   MegaHertz   Gauss  10(-4) cm-1        Axes

              Baa    -0.0274    -1.055    -0.376    -0.352  0.7164 -0.6890  0.1098
     1 N(14)  Bbb    -0.0176    -0.681    -0.243    -0.227  0.5451  0.6510  0.5282
              Bcc     0.0450     1.736     0.619     0.579 -0.4354 -0.3185  0.8420
 
              Baa    -0.0142    -1.908    -0.681    -0.636  0.1744  0.9569 -0.2322
     2 C(13)  Bbb    -0.0070    -0.945    -0.337    -0.315  0.9845 -0.1739  0.0229
              Bcc     0.0213     2.852     1.018     0.951  0.0185  0.2325  0.9724
 
              Baa    -0.0048    -0.641    -0.229    -0.214 -0.4477  0.8798 -0.1598
     3 C(13)  Bbb    -0.0015    -0.197    -0.070    -0.066 -0.0464  0.1557  0.9867
              Bcc     0.0062     0.839     0.299     0.280  0.8930  0.4492 -0.0289
 
              Baa    -0.0033    -0.445    -0.159    -0.149  0.1480 -0.3429  0.9276
     4 C(13)  Bbb    -0.0018    -0.240    -0.086    -0.080  0.2780  0.9146  0.2938
              Bcc     0.0051     0.686     0.245     0.229  0.9491 -0.2144 -0.2307
 
              Baa    -0.0041    -0.554    -0.198    -0.185  0.0218  0.0571  0.9981
     5 C(13)  Bbb    -0.0005    -0.066    -0.024    -0.022  0.4809  0.8747 -0.0606
              Bcc     0.0046     0.620     0.221     0.207  0.8765 -0.4813  0.0084
 
              Baa    -0.0718    -9.640    -3.440    -3.216  0.1051  0.3428  0.9335
     6 C(13)  Bbb     0.0288     3.862     1.378     1.288  0.8445 -0.5264  0.0982
              Bcc     0.0431     5.778     2.062     1.927  0.5251  0.7781 -0.3448
 
              Baa    -0.1903   -25.533    -9.111    -8.517  0.9146  0.3438 -0.2128
     7 C(13)  Bbb    -0.1779   -23.867    -8.516    -7.961 -0.3948  0.8730 -0.2864
              Bcc     0.3681    49.401    17.627    16.478  0.0873  0.3460  0.9342
 
              Baa    -0.1124   -15.083    -5.382    -5.031 -0.0347  0.9344 -0.3545
     8 C(13)  Bbb    -0.1053   -14.127    -5.041    -4.712  0.9958  0.0022 -0.0919
              Bcc     0.2177    29.210    10.423     9.743  0.0851  0.3562  0.9305
 
              Baa    -0.0661    -8.873    -3.166    -2.960  0.0610  0.3624  0.9300
     9 C(13)  Bbb     0.0265     3.563     1.271     1.188  0.8349 -0.5291  0.1514
              Bcc     0.0396     5.310     1.895     1.771  0.5470  0.7673 -0.3348
 
              Baa    -0.0393    -5.265    -1.879    -1.756  0.1790  0.3308  0.9266
    10 Br(79) Bbb     0.0020     0.274     0.098     0.091  0.3346  0.8652 -0.3735
              Bcc     0.0372     4.991     1.781     1.665  0.9252 -0.3768 -0.0442
 
              Baa    -0.2143   -28.761   -10.263    -9.594  0.9253  0.3175 -0.2075
    11 C(13)  Bbb    -0.2023   -27.143    -9.685    -9.054 -0.3699  0.8761 -0.3092
              Bcc     0.4166    55.904    19.948    18.648  0.0836  0.3628  0.9281
 
              Baa    -0.1141   -15.311    -5.463    -5.107  0.1188  0.9424 -0.3127
    12 C(13)  Bbb    -0.1029   -13.803    -4.925    -4.604  0.9925 -0.1221  0.0090
              Bcc     0.2170    29.113    10.388     9.711  0.0296  0.3114  0.9498
 
              Baa    -0.0046    -2.432    -0.868    -0.811  0.6074 -0.2479  0.7547
    13 H(1)   Bbb    -0.0030    -1.595    -0.569    -0.532 -0.2637  0.8332  0.4860
              Bcc     0.0075     4.027     1.437     1.343  0.7493  0.4942 -0.4407
 
              Baa    -0.0015    -0.823    -0.294    -0.275  0.0528 -0.3993  0.9153
    14 H(1)   Bbb    -0.0013    -0.703    -0.251    -0.234  0.1083  0.9134  0.3923
              Bcc     0.0029     1.526     0.545     0.509  0.9927 -0.0784 -0.0915
 
              Baa    -0.0029    -1.573    -0.561    -0.525  0.4217 -0.1485  0.8945
    15 H(1)   Bbb    -0.0020    -1.044    -0.373    -0.348  0.2481  0.9677  0.0437
              Bcc     0.0049     2.618     0.934     0.873  0.8722 -0.2035 -0.4449
 
              Baa    -0.0029    -1.553    -0.554    -0.518 -0.1880  0.4443  0.8759
    16 H(1)   Bbb    -0.0010    -0.544    -0.194    -0.181  0.3780  0.8559 -0.3530
              Bcc     0.0039     2.097     0.748     0.699  0.9065 -0.2647  0.3289
 
              Baa    -0.0026    -1.411    -0.503    -0.471  0.1940  0.1138  0.9744
    17 H(1)   Bbb    -0.0013    -0.692    -0.247    -0.231  0.3759  0.9088 -0.1810
              Bcc     0.0039     2.102     0.750     0.701  0.9061 -0.4014 -0.1335
 
              Baa    -0.0287   -15.317    -5.465    -5.109  0.9799  0.1346 -0.1472
    18 H(1)   Bbb    -0.0027    -1.417    -0.506    -0.473  0.0928  0.3456  0.9338
              Bcc     0.0314    16.733     5.971     5.582 -0.1766  0.9287 -0.3261
 
              Baa    -0.0177    -9.419    -3.361    -3.142 -0.6036  0.7621 -0.2343
    19 H(1)   Bbb    -0.0037    -2.000    -0.714    -0.667  0.0905  0.3575  0.9295
              Bcc     0.0214    11.419     4.075     3.809  0.7921  0.5399 -0.2847
 
              Baa    -0.0321   -17.108    -6.105    -5.707  0.9777  0.1563 -0.1402
    20 H(1)   Bbb    -0.0025    -1.336    -0.477    -0.446  0.0762  0.3579  0.9306
              Bcc     0.0346    18.444     6.581     6.152 -0.1956  0.9206 -0.3380
 

 ---------------------------------------------------------------------------------

 Running external command "gaunbo6 R"
         input file       "/home/rpaton/arbr500/midi/fukui/Gau-2439095.EIn"
         output file      "/home/rpaton/arbr500/midi/fukui/Gau-2439095.EOu"
         message file     "/home/rpaton/arbr500/midi/fukui/Gau-2439095.EMs"
         fchk file        "/home/rpaton/arbr500/midi/fukui/Gau-2439095.EFC"
         mat. el file     "/home/rpaton/arbr500/midi/fukui/Gau-2439095.EUF"

 Writing WrtUnf unformatted file "/home/rpaton/arbr500/midi/fukui/Gau-2439095.EUF"
 Gaussian matrix elements                                         Version   2 NLab=11 Len12L=8 Len4L=8
 Write SHELL TO ATOM MAP                   from file      0 offset           0 length                  83 to matrix element file.
 Write SHELL TYPES                         from file      0 offset           0 length                  83 to matrix element file.
 Write NUMBER OF PRIMITIVES PER SHELL      from file      0 offset           0 length                  83 to matrix element file.
 Write PRIMITIVE EXPONENTS                 from file      0 offset           0 length                 149 to matrix element file.
 Write CONTRACTION COEFFICIENTS            from file      0 offset           0 length                 149 to matrix element file.
 Write P(S=P) CONTRACTION COEFFICIENTS     from file      0 offset           0 length                 149 to matrix element file.
 Write COORDINATES OF EACH SHELL           from file      0 offset           0 length                 249 to matrix element file.
 Write BONDS PER ATOM                      from file      0 offset           0 length                  20 to matrix element file.
 Write BONDED ATOMS                        from file      0 offset           0 length                  42 to matrix element file.
 Write BOND TYPES                          from file      0 offset           0 length                  42 to matrix element file.
 Write ONIOM CHARGE/MULT                   from file      0 offset           0 length                  32 to matrix element file.
 Write ONIOM ATOM LAYERS                   from file      0 offset           0 length                  20 to matrix element file.
 Write ONIOM ATOM MODIFIERS                from file      0 offset           0 length                  20 to matrix element file.
 Write ONIOM ATOM TYPES                    from file      0 offset           0 length                  20 to matrix element file.
 Write ONIOM LINK ATOMS                    from file      0 offset           0 length                  20 to matrix element file.
 Write ONIOM LINK CHARGES                  from file      0 offset           0 length                  20 to matrix element file.
 Write ONIOM LINK DISTANCES                from file      0 offset           0 length                  80 to matrix element file.
 Write SYMINF INTS                         from file      0 offset           0 length                  26 to matrix element file.
 Write ROTTR TO SO                         from file      0 offset           0 length                  12 to matrix element file.
 Write GAUSSIAN SCALARS                    from file    501 offset           0 to matrix element file.
 Write OPTIMIZATION FLAGS                  from file      0 offset           0 length                  20 to matrix element file.
 Write INTEGER ISO                         from file      0 offset           0 length                  20 to matrix element file.
 Write INTEGER SPIN                        from file      0 offset           0 length                  20 to matrix element file.
 Write REAL ZEFFECTIVE                     from file      0 offset           0 length                  20 to matrix element file.
 Write REAL QUADRUPOLEMOMENT               from file      0 offset           0 length                  20 to matrix element file.
 Write REAL GFACTOR                        from file      0 offset           0 length                  20 to matrix element file.
 Write REAL ZNUCLEAR                       from file      0 offset           0 length                  20 to matrix element file.
 Write MULLIKEN CHARGES                    from file      0 offset           0 length                  20 to matrix element file.
 Write TYPE 6 CHARGES                      from file      0 offset           0 length                  20 to matrix element file.
 Write TYPE 7 CHARGES                      from file      0 offset           0 length                  20 to matrix element file.
 Write NUCLEAR GRADIENT                    from file  10584 offset           0 length                  60 to matrix element file.
 Array NUCLEAR FORCE CONSTANTS              on  file  10585 does not exist.
 Write ELECTRIC DIPOLE MOMENT              from file      0 offset           0 length                   3 to matrix element file.
 Write NON-ADIABATIC COUPLING              from file  10810 offset           0 length                  60 to matrix element file.
 Write FINITE EM FIELD                     from file  10521 offset           0 length                  35 to matrix element file.
 Write OVERLAP                             from file  10514 offset           0 length               10878 to matrix element file.
 Write CORE HAMILTONIAN ALPHA              from file  10515 offset           0 length               10878 to matrix element file.
 Write CORE HAMILTONIAN BETA               from file  10515 offset       10878 length               10878 to matrix element file.
 Write KINETIC ENERGY                      from file  10516 offset           0 length               10878 to matrix element file.
 Write ORTHOGONAL BASIS                    from file  10685 offset           0 length               21609 to matrix element file.
 Write DIPOLE INTEGRALS                    from file  10518 offset           0 length               32634 to matrix element file.
 Array DIP VEL INTEGRALS                    on  file  10572 does not exist.
 Array R X DEL INTEGRALS                    on  file  10572 does not exist.
 Write ALPHA ORBITAL ENERGIES              from file      0 offset           0 length                 147 to matrix element file.
 Write BETA ORBITAL ENERGIES               from file      0 offset           0 length                 147 to matrix element file.
 Write ALPHA MO COEFFICIENTS               from file  10524 offset           0 length               21609 to matrix element file.
 Write BETA MO COEFFICIENTS                from file  10526 offset           0 length               21609 to matrix element file.
 Write ALPHA DENSITY MATRIX                from file      0 offset           0 length               10878 to matrix element file.
 Write BETA DENSITY MATRIX                 from file      0 offset           0 length               10878 to matrix element file.
 Write ALPHA FOCK MATRIX                   from file  10536 offset           0 length               10878 to matrix element file.
 Write BETA FOCK MATRIX                    from file  10538 offset           0 length               10878 to matrix element file.
 Write ENERGY-WEIGHTED DENSITY             from file  10571 offset           0 length               10878 to matrix element file.
 Write ALPHA SCF DENSITY MATRIX            from file      0 offset           0 length               10878 to matrix element file.
 Write BETA SCF DENSITY MATRIX             from file      0 offset           0 length               10878 to matrix element file.
 No 2e integrals to process.
 Perform NBO analysis...

 *********************************** NBO 7.0 ***********************************
             N A T U R A L   A T O M I C   O R B I T A L   A N D
          N A T U R A L   B O N D   O R B I T A L   A N A L Y S I S
 **************************** Robert Paton (I101709) ***************************
  (c) Copyright 1996-2019 Board of Regents of the University of Wisconsin System
      on behalf of the Theoretical Chemistry Institute.  All rights reserved.

          Cite this program [NBO 7.0.5 (4-Jun-2019)] as:

          NBO 7.0.  E. D. Glendening, J. K. Badenhoop, A. E. Reed,
          J. E. Carpenter, J. A. Bohmann, C. M. Morales, P. Karafiloglou,
          C. R. Landis, and F. Weinhold, Theoretical Chemistry Institute,
          University of Wisconsin, Madison, WI (2018)

 Filename set to /home/rpaton/arbr500/midi/fukui/Gau-2439095

 Job title:  arbr41_wb97xd_redcreated by GaussianPrep


 NATURAL POPULATIONS:  Natural atomic orbital occupancies

  NAO Atom No lang   Type(AO)    Occupancy     Spin
 -----------------------------------------------------
   1    N  1  s      Cor( 1s)     1.99992     0.00000
   2    N  1  s      Val( 2s)     1.58837     0.00037
   3    N  1  s      Ryd( 3s)     0.00951     0.00026
   4    N  1  px     Val( 2p)     1.15243     0.00364
   5    N  1  px     Ryd( 3p)     0.00030     0.00004
   6    N  1  py     Val( 2p)     1.27571     0.00270
   7    N  1  py     Ryd( 3p)     0.00071     0.00008
   8    N  1  pz     Val( 2p)     1.34742     0.01157
   9    N  1  pz     Ryd( 3p)     0.00089     0.00001
  10    N  1  dxy    Ryd( 3d)     0.00194    -0.00001
  11    N  1  dxz    Ryd( 3d)     0.00251     0.00000
  12    N  1  dyz    Ryd( 3d)     0.00363     0.00001
  13    N  1  dx2y2  Ryd( 3d)     0.00192     0.00000
  14    N  1  dz2    Ryd( 3d)     0.00353     0.00000

  15    C  2  s      Cor( 1s)     1.99987     0.00000
  16    C  2  s      Val( 2s)     0.85489     0.00997
  17    C  2  s      Ryd( 3s)     0.01082     0.00191
  18    C  2  px     Val( 2p)     0.91370    -0.00013
  19    C  2  px     Ryd( 3p)     0.00363     0.00000
  20    C  2  py     Val( 2p)     0.93323    -0.00211
  21    C  2  py     Ryd( 3p)     0.00980     0.00001
  22    C  2  pz     Val( 2p)     0.95608     0.01019
  23    C  2  pz     Ryd( 3p)     0.01161     0.00010

  24    C  3  s      Cor( 1s)     1.99974     0.00000
  25    C  3  s      Val( 2s)     0.97675    -0.00210
  26    C  3  s      Ryd( 3s)     0.00122     0.00019
  27    C  3  px     Val( 2p)     1.09899    -0.00435
  28    C  3  px     Ryd( 3p)     0.00129     0.00000
  29    C  3  py     Val( 2p)     1.11204    -0.00216
  30    C  3  py     Ryd( 3p)     0.00326    -0.00001
  31    C  3  pz     Val( 2p)     1.18430     0.00094
  32    C  3  pz     Ryd( 3p)     0.00277     0.00022

  33    C  4  s      Cor( 1s)     1.99976     0.00000
  34    C  4  s      Val( 2s)     1.04265    -0.00005
  35    C  4  s      Ryd( 3s)     0.00076     0.00009
  36    C  4  px     Val( 2p)     1.17151     0.00014
  37    C  4  px     Ryd( 3p)     0.00256     0.00034
  38    C  4  py     Val( 2p)     1.04460     0.00082
  39    C  4  py     Ryd( 3p)     0.00116     0.00004
  40    C  4  pz     Val( 2p)     1.19809    -0.00021
  41    C  4  pz     Ryd( 3p)     0.00145     0.00003

  42    C  5  s      Cor( 1s)     1.99976     0.00000
  43    C  5  s      Val( 2s)     1.03131     0.00037
  44    C  5  s      Ryd( 3s)     0.00065     0.00008
  45    C  5  px     Val( 2p)     1.09646     0.00166
  46    C  5  px     Ryd( 3p)     0.00147     0.00000
  47    C  5  py     Val( 2p)     1.17623     0.00190
  48    C  5  py     Ryd( 3p)     0.00286     0.00025
  49    C  5  pz     Val( 2p)     1.18667     0.00080
  50    C  5  pz     Ryd( 3p)     0.00089     0.00000

  51    C  6  s      Cor( 1s)     1.99991     0.00000
  52    C  6  s      Val( 2s)     0.84181    -0.00561
  53    C  6  s      Ryd( 3s)     0.00113     0.00005
  54    C  6  px     Val( 2p)     1.06073    -0.00424
  55    C  6  px     Ryd( 3p)     0.00446     0.00004
  56    C  6  py     Val( 2p)     1.09023    -0.01232
  57    C  6  py     Ryd( 3p)     0.00402    -0.00003
  58    C  6  pz     Val( 2p)     1.01459    -0.04805
  59    C  6  pz     Ryd( 3p)     0.00184    -0.00004

  60    C  7  s      Cor( 1s)     1.99984     0.00000
  61    C  7  s      Val( 2s)     0.90531     0.01170
  62    C  7  s      Ryd( 3s)     0.00078     0.00000
  63    C  7  px     Val( 2p)     1.06714     0.00657
  64    C  7  px     Ryd( 3p)     0.00549     0.00002
  65    C  7  py     Val( 2p)     1.18409     0.04408
  66    C  7  py     Ryd( 3p)     0.00448     0.00047
  67    C  7  pz     Val( 2p)     1.23363     0.27196
  68    C  7  pz     Ryd( 3p)     0.00378     0.00288

  69    C  8  s      Cor( 1s)     1.99986     0.00000
  70    C  8  s      Val( 2s)     0.92312     0.00575
  71    C  8  s      Ryd( 3s)     0.00082    -0.00001
  72    C  8  px     Val( 2p)     1.15070     0.00157
  73    C  8  px     Ryd( 3p)     0.00579    -0.00002
  74    C  8  py     Val( 2p)     1.11325     0.02584
  75    C  8  py     Ryd( 3p)     0.00457     0.00026
  76    C  8  pz     Val( 2p)     1.14964     0.15866
  77    C  8  pz     Ryd( 3p)     0.00276     0.00167

  78    C  9  s      Cor( 1s)     1.99989     0.00000
  79    C  9  s      Val( 2s)     0.92752    -0.00641
  80    C  9  s      Ryd( 3s)     0.00048     0.00000
  81    C  9  px     Val( 2p)     0.95757    -0.00354
  82    C  9  px     Ryd( 3p)     0.00600     0.00008
  83    C  9  py     Val( 2p)     1.10410    -0.01259
  84    C  9  py     Ryd( 3p)     0.00576     0.00001
  85    C  9  pz     Val( 2p)     1.10409    -0.04250
  86    C  9  pz     Ryd( 3p)     0.00137     0.00012

  87   Br 10  s      Cor( 3s)     2.00000     0.00000
  88   Br 10  s      Cor( 1s)     2.00000     0.00000
  89   Br 10  s      Cor( 2s)     1.99999     0.00000
  90   Br 10  s      Val( 4s)     1.86186    -0.00009
  91   Br 10  s      Ryd( 5s)     0.00272    -0.00001
  92   Br 10  px     Cor( 3p)     2.00000     0.00000
  93   Br 10  px     Cor( 2p)     1.99999     0.00000
  94   Br 10  px     Val( 4p)     1.29880     0.00133
  95   Br 10  px     Ryd( 5p)     0.00288    -0.00001
  96   Br 10  py     Cor( 3p)     2.00000     0.00000
  97   Br 10  py     Cor( 2p)     1.99999     0.00000
  98   Br 10  py     Val( 4p)     1.88782    -0.00028
  99   Br 10  py     Ryd( 5p)     0.00142    -0.00001
 100   Br 10  pz     Cor( 3p)     2.00000     0.00000
 101   Br 10  pz     Cor( 2p)     2.00000     0.00000
 102   Br 10  pz     Val( 4p)     1.96268    -0.00242
 103   Br 10  pz     Ryd( 5p)     0.00078    -0.00003
 104   Br 10  dxy    Cor( 3d)     1.99960     0.00000
 105   Br 10  dxy    Ryd( 4d)     0.00254    -0.00002
 106   Br 10  dxz    Cor( 3d)     1.99987     0.00000
 107   Br 10  dxz    Ryd( 4d)     0.00213    -0.00013
 108   Br 10  dyz    Cor( 3d)     1.99996     0.00000
 109   Br 10  dyz    Ryd( 4d)     0.00053     0.00020
 110   Br 10  dx2y2  Cor( 3d)     1.99955     0.00000
 111   Br 10  dx2y2  Ryd( 4d)     0.00307     0.00004
 112   Br 10  dz2    Cor( 3d)     1.99981     0.00000
 113   Br 10  dz2    Ryd( 4d)     0.00163     0.00011

 114    C 11  s      Cor( 1s)     1.99984     0.00000
 115    C 11  s      Val( 2s)     0.90090     0.01326
 116    C 11  s      Ryd( 3s)     0.00105    -0.00002
 117    C 11  px     Val( 2p)     1.06552     0.00769
 118    C 11  px     Ryd( 3p)     0.00640     0.00002
 119    C 11  py     Val( 2p)     1.19837     0.05171
 120    C 11  py     Ryd( 3p)     0.00473     0.00045
 121    C 11  pz     Val( 2p)     1.24175     0.30799
 122    C 11  pz     Ryd( 3p)     0.00502     0.00412

 123    C 12  s      Cor( 1s)     1.99988     0.00000
 124    C 12  s      Val( 2s)     0.81877     0.00530
 125    C 12  s      Ryd( 3s)     0.00149     0.00020
 126    C 12  px     Val( 2p)     1.05580     0.00016
 127    C 12  px     Ryd( 3p)     0.00460     0.00000
 128    C 12  py     Val( 2p)     1.06883     0.01988
 129    C 12  py     Ryd( 3p)     0.00424     0.00016
 130    C 12  pz     Val( 2p)     1.16805     0.15301
 131    C 12  pz     Ryd( 3p)     0.00286     0.00103

 132    H 13  s      Val( 1s)     0.73158     0.01988
 133    H 13  s      Ryd( 2s)     0.00465     0.00309

 134    H 14  s      Val( 1s)     0.76091     0.00393
 135    H 14  s      Ryd( 2s)     0.00224     0.00087

 136    H 15  s      Val( 1s)     0.75151     0.00093
 137    H 15  s      Ryd( 2s)     0.00184     0.00006

 138    H 16  s      Val( 1s)     0.75262    -0.00002
 139    H 16  s      Ryd( 2s)     0.00244     0.00068

 140    H 17  s      Val( 1s)     0.76020     0.00237
 141    H 17  s      Ryd( 2s)     0.00243     0.00103

 142    H 18  s      Val( 1s)     0.79223    -0.01129
 143    H 18  s      Ryd( 2s)     0.00086     0.00000

 144    H 19  s      Val( 1s)     0.77878    -0.00665
 145    H 19  s      Ryd( 2s)     0.00124     0.00001

 146    H 20  s      Val( 1s)     0.77738    -0.01253
 147    H 20  s      Ryd( 2s)     0.00123     0.00005


 Summary of Natural Population Analysis:

                                     Natural Population                 Natural
             Natural    ---------------------------------------------    Spin
  Atom No    Charge        Core      Valence    Rydberg      Total      Density
 -------------------------------------------------------------------------------
    N  1   -0.38878      1.99992     5.36392    0.02494     7.38878     0.01868
    C  2    0.30637      1.99987     3.65790    0.03586     5.69363     0.01992
    C  3   -0.38036      1.99974     4.37207    0.00855     6.38036    -0.00726
    C  4   -0.46255      1.99976     4.45685    0.00593     6.46255     0.00120
    C  5   -0.49630      1.99976     4.49068    0.00586     6.49630     0.00505
    C  6   -0.01872      1.99991     4.00736    0.01144     6.01872    -0.07019
    C  7   -0.40452      1.99984     4.39016    0.01453     6.40452     0.33769
    C  8   -0.35052      1.99986     4.33671    0.01395     6.35052     0.19372
    C  9   -0.10678      1.99989     4.09329    0.01360     6.10678    -0.06483
   Br 10   -0.02762     27.99876     7.01116    0.01770    35.02762    -0.00133
    C 11   -0.42358      1.99984     4.40654    0.01720     6.42358     0.38521
    C 12   -0.12452      1.99988     4.11145    0.01319     6.12452     0.17974
    H 13    0.26377      0.00000     0.73158    0.00465     0.73623     0.02297
    H 14    0.23685      0.00000     0.76091    0.00224     0.76315     0.00479
    H 15    0.24665      0.00000     0.75151    0.00184     0.75335     0.00099
    H 16    0.24495      0.00000     0.75262    0.00244     0.75505     0.00066
    H 17    0.23737      0.00000     0.76020    0.00243     0.76263     0.00340
    H 18    0.20691      0.00000     0.79223    0.00086     0.79309    -0.01129
    H 19    0.21998      0.00000     0.77878    0.00124     0.78002    -0.00665
    H 20    0.22140      0.00000     0.77738    0.00123     0.77860    -0.01248
 ===============================================================================
 * Total * -1.00000     49.99703    60.80329    0.19967   111.00000     1.00000

                                 Natural Population
 ---------------------------------------------------------
   Core                      49.99703 ( 99.9941% of   50)
   Valence                   60.80329 ( 99.6775% of   61)
   Natural Minimal Basis    110.80033 ( 99.8201% of  111)
   Natural Rydberg Basis      0.19967 (  0.1799% of  111)
 ---------------------------------------------------------

    Atom No         Natural Electron Configuration
 ----------------------------------------------------------------------------
      N  1      [core]2s( 1.59)2p( 3.78)3s( 0.01)3d( 0.01)
      C  2      [core]2s( 0.85)2p( 2.80)3s( 0.01)3p( 0.03)
      C  3      [core]2s( 0.98)2p( 3.40)3p( 0.01)
      C  4      [core]2s( 1.04)2p( 3.41)3p( 0.01)
      C  5      [core]2s( 1.03)2p( 3.46)3p( 0.01)
      C  6      [core]2s( 0.84)2p( 3.17)3p( 0.01)
      C  7      [core]2s( 0.91)2p( 3.48)3p( 0.01)
      C  8      [core]2s( 0.92)2p( 3.41)3p( 0.01)
      C  9      [core]2s( 0.93)2p( 3.17)3p( 0.01)
     Br 10      [core]4s( 1.86)4p( 5.15)4d( 0.01)5p( 0.01)
      C 11      [core]2s( 0.90)2p( 3.51)3p( 0.02)
      C 12      [core]2s( 0.82)2p( 3.29)3p( 0.01)
      H 13            1s( 0.73)
      H 14            1s( 0.76)
      H 15            1s( 0.75)
      H 16            1s( 0.75)
      H 17            1s( 0.76)
      H 18            1s( 0.79)
      H 19            1s( 0.78)
      H 20            1s( 0.78)


 ***************************************************
 *******         Alpha spin orbitals         *******
 ***************************************************


 NATURAL POPULATIONS:  Natural atomic orbital occupancies

  NAO Atom No lang   Type(AO)    Occupancy      Energy
 -------------------------------------------------------
   1    N  1  s      Cor( 1s)     0.99996     -14.19126
   2    N  1  s      Val( 2s)     0.79437      -0.29709
   3    N  1  s      Ryd( 3s)     0.00488       1.39425
   4    N  1  px     Val( 2p)     0.57803      -0.01743
   5    N  1  px     Ryd( 3p)     0.00017       1.51652
   6    N  1  py     Val( 2p)     0.63921      -0.03188
   7    N  1  py     Ryd( 3p)     0.00040       1.59080
   8    N  1  pz     Val( 2p)     0.67950      -0.04203
   9    N  1  pz     Ryd( 3p)     0.00045       1.62257
  10    N  1  dxy    Ryd( 3d)     0.00097       2.21164
  11    N  1  dxz    Ryd( 3d)     0.00126       2.25758
  12    N  1  dyz    Ryd( 3d)     0.00182       2.67791
  13    N  1  dx2y2  Ryd( 3d)     0.00096       2.18448
  14    N  1  dz2    Ryd( 3d)     0.00176       2.24516

  15    C  2  s      Cor( 1s)     0.99994     -10.11767
  16    C  2  s      Val( 2s)     0.43243       0.08309
  17    C  2  s      Ryd( 3s)     0.00636       0.90586
  18    C  2  px     Val( 2p)     0.45679       0.07465
  19    C  2  px     Ryd( 3p)     0.00181       1.12255
  20    C  2  py     Val( 2p)     0.46556       0.14556
  21    C  2  py     Ryd( 3p)     0.00490       1.20559
  22    C  2  pz     Val( 2p)     0.48313       0.17544
  23    C  2  pz     Ryd( 3p)     0.00585       1.24318

  24    C  3  s      Cor( 1s)     0.99987     -10.13410
  25    C  3  s      Val( 2s)     0.48733       0.01656
  26    C  3  s      Ryd( 3s)     0.00071       1.41163
  27    C  3  px     Val( 2p)     0.54732       0.04313
  28    C  3  px     Ryd( 3p)     0.00065       1.18556
  29    C  3  py     Val( 2p)     0.55494       0.04389
  30    C  3  py     Ryd( 3p)     0.00163       1.25686
  31    C  3  pz     Val( 2p)     0.59262       0.02709
  32    C  3  pz     Ryd( 3p)     0.00150       1.29941

  33    C  4  s      Cor( 1s)     0.99988     -10.11523
  34    C  4  s      Val( 2s)     0.52130      -0.05309
  35    C  4  s      Ryd( 3s)     0.00043       1.35095
  36    C  4  px     Val( 2p)     0.58583       0.03047
  37    C  4  px     Ryd( 3p)     0.00145       1.22197
  38    C  4  py     Val( 2p)     0.52271       0.04494
  39    C  4  py     Ryd( 3p)     0.00060       1.11352
  40    C  4  pz     Val( 2p)     0.59894       0.02064
  41    C  4  pz     Ryd( 3p)     0.00074       1.19258

  42    C  5  s      Cor( 1s)     0.99988     -10.09934
  43    C  5  s      Val( 2s)     0.51584      -0.02125
  44    C  5  s      Ryd( 3s)     0.00036       1.35970
  45    C  5  px     Val( 2p)     0.54906       0.06242
  46    C  5  px     Ryd( 3p)     0.00073       1.08077
  47    C  5  py     Val( 2p)     0.58906       0.04172
  48    C  5  py     Ryd( 3p)     0.00155       1.21692
  49    C  5  pz     Val( 2p)     0.59374       0.03750
  50    C  5  pz     Ryd( 3p)     0.00045       1.19241

  51    C  6  s      Cor( 1s)     0.99995     -10.06636
  52    C  6  s      Val( 2s)     0.41810       0.16454
  53    C  6  s      Ryd( 3s)     0.00059       0.92482
  54    C  6  px     Val( 2p)     0.52825       0.15213
  55    C  6  px     Ryd( 3p)     0.00225       1.72502
  56    C  6  py     Val( 2p)     0.53896       0.14640
  57    C  6  py     Ryd( 3p)     0.00199       1.42246
  58    C  6  pz     Val( 2p)     0.48327       0.09092
  59    C  6  pz     Ryd( 3p)     0.00090       1.23376

  60    C  7  s      Cor( 1s)     0.99992     -10.02640
  61    C  7  s      Val( 2s)     0.45850       0.13782
  62    C  7  s      Ryd( 3s)     0.00039       0.91252
  63    C  7  px     Val( 2p)     0.53686       0.17610
  64    C  7  px     Ryd( 3p)     0.00275       1.21532
  65    C  7  py     Val( 2p)     0.61408       0.11458
  66    C  7  py     Ryd( 3p)     0.00247       1.52390
  67    C  7  pz     Val( 2p)     0.75280       0.01731
  68    C  7  pz     Ryd( 3p)     0.00333       1.17951

  69    C  8  s      Cor( 1s)     0.99993     -10.04114
  70    C  8  s      Val( 2s)     0.46444       0.11844
  71    C  8  s      Ryd( 3s)     0.00041       0.90939
  72    C  8  px     Val( 2p)     0.57613       0.13977
  73    C  8  px     Ryd( 3p)     0.00288       1.40946
  74    C  8  py     Val( 2p)     0.56955       0.12950
  75    C  8  py     Ryd( 3p)     0.00242       1.30273
  76    C  8  pz     Val( 2p)     0.65415       0.03733
  77    C  8  pz     Ryd( 3p)     0.00221       1.15789

  78    C  9  s      Cor( 1s)     0.99995     -10.10738
  79    C  9  s      Val( 2s)     0.46056       0.05582
  80    C  9  s      Ryd( 3s)     0.00024       0.89800
  81    C  9  px     Val( 2p)     0.47702       0.07887
  82    C  9  px     Ryd( 3p)     0.00304       1.50520
  83    C  9  py     Val( 2p)     0.54576       0.10930
  84    C  9  py     Ryd( 3p)     0.00289       1.29077
  85    C  9  pz     Val( 2p)     0.53079       0.04752
  86    C  9  pz     Ryd( 3p)     0.00074       1.15058

  87   Br 10  s      Cor( 3s)     1.00000     -22.43528
  88   Br 10  s      Cor( 1s)     1.00000    -449.11904
  89   Br 10  s      Cor( 2s)     1.00000     -79.60049
  90   Br 10  s      Val( 4s)     0.93089      -0.61629
  91   Br 10  s      Ryd( 5s)     0.00135       0.99110
  92   Br 10  px     Cor( 3p)     1.00000      -6.92343
  93   Br 10  px     Cor( 2p)     0.99999     -55.60903
  94   Br 10  px     Val( 4p)     0.65006      -0.10924
  95   Br 10  px     Ryd( 5p)     0.00144       0.87954
  96   Br 10  py     Cor( 3p)     1.00000      -6.91368
  97   Br 10  py     Cor( 2p)     1.00000     -55.60662
  98   Br 10  py     Val( 4p)     0.94377      -0.19895
  99   Br 10  py     Ryd( 5p)     0.00071       0.90007
 100   Br 10  pz     Cor( 3p)     1.00000      -6.91215
 101   Br 10  pz     Cor( 2p)     1.00000     -55.60620
 102   Br 10  pz     Val( 4p)     0.98013      -0.21087
 103   Br 10  pz     Ryd( 5p)     0.00037       0.87758
 104   Br 10  dxy    Cor( 3d)     0.99980      -2.61755
 105   Br 10  dxy    Ryd( 4d)     0.00126       1.09075
 106   Br 10  dxz    Cor( 3d)     0.99993      -2.61630
 107   Br 10  dxz    Ryd( 4d)     0.00100       0.88795
 108   Br 10  dyz    Cor( 3d)     0.99998      -2.60868
 109   Br 10  dyz    Ryd( 4d)     0.00036       0.82187
 110   Br 10  dx2y2  Cor( 3d)     0.99977      -2.61759
 111   Br 10  dx2y2  Ryd( 4d)     0.00155       1.11084
 112   Br 10  dz2    Cor( 3d)     0.99991      -2.61091
 113   Br 10  dz2    Ryd( 4d)     0.00087       0.91020

 114    C 11  s      Cor( 1s)     0.99992     -10.02843
 115    C 11  s      Val( 2s)     0.45708       0.13824
 116    C 11  s      Ryd( 3s)     0.00051       0.89713
 117    C 11  px     Val( 2p)     0.53660       0.16916
 118    C 11  px     Ryd( 3p)     0.00321       1.19116
 119    C 11  py     Val( 2p)     0.62504       0.10316
 120    C 11  py     Ryd( 3p)     0.00259       1.51017
 121    C 11  pz     Val( 2p)     0.77487       0.00652
 122    C 11  pz     Ryd( 3p)     0.00457       1.17326

 123    C 12  s      Cor( 1s)     0.99994     -10.05052
 124    C 12  s      Val( 2s)     0.41204       0.16902
 125    C 12  s      Ryd( 3s)     0.00085       0.97282
 126    C 12  px     Val( 2p)     0.52798       0.15921
 127    C 12  px     Ryd( 3p)     0.00230       1.68065
 128    C 12  py     Val( 2p)     0.54435       0.13877
 129    C 12  py     Ryd( 3p)     0.00220       1.46555
 130    C 12  pz     Val( 2p)     0.66053       0.03964
 131    C 12  pz     Ryd( 3p)     0.00195       1.25614

 132    H 13  s      Val( 1s)     0.37573       0.25217
 133    H 13  s      Ryd( 2s)     0.00387       0.74715

 134    H 14  s      Val( 1s)     0.38242       0.23819
 135    H 14  s      Ryd( 2s)     0.00155       0.74085

 136    H 15  s      Val( 1s)     0.37622       0.24049
 137    H 15  s      Ryd( 2s)     0.00095       0.74280

 138    H 16  s      Val( 1s)     0.37630       0.24933
 139    H 16  s      Ryd( 2s)     0.00156       0.76050

 140    H 17  s      Val( 1s)     0.38129       0.24598
 141    H 17  s      Ryd( 2s)     0.00173       0.74591

 142    H 18  s      Val( 1s)     0.39047       0.28657
 143    H 18  s      Ryd( 2s)     0.00043       0.79952

 144    H 19  s      Val( 1s)     0.38606       0.29029
 145    H 19  s      Ryd( 2s)     0.00062       0.78818

 146    H 20  s      Val( 1s)     0.38242       0.29481
 147    H 20  s      Ryd( 2s)     0.00064       0.80805


 Summary of Natural Population Analysis:

                                     Natural Population
             Natural    ---------------------------------------------
  Atom No    Charge        Core      Valence    Rydberg      Total
 --------------------------------------------------------------------
    N  1   -0.20373      0.99996     2.69110    0.01267     3.70373
    C  2    0.14322      0.99994     1.83791    0.01893     2.85678
    C  3   -0.18655      0.99987     2.18220    0.00448     3.18655
    C  4   -0.23188      0.99988     2.22878    0.00322     3.23188
    C  5   -0.25067      0.99988     2.24770    0.00309     3.25067
    C  6    0.02574      0.99995     1.96857    0.00573     2.97426
    C  7   -0.37110      0.99992     2.36224    0.00895     3.37110
    C  8   -0.27212      0.99993     2.26427    0.00792     3.27212
    C  9   -0.02097      0.99995     2.01413    0.00690     3.02097
   Br 10   -0.01315     13.99938     3.50485    0.00892    17.51315
    C 11   -0.40439      0.99992     2.39359    0.01088     3.40439
    C 12   -0.15213      0.99994     2.14489    0.00729     3.15213
    H 13    0.12040      0.00000     0.37573    0.00387     0.37960
    H 14    0.11603      0.00000     0.38242    0.00155     0.38397
    H 15    0.12283      0.00000     0.37622    0.00095     0.37717
    H 16    0.12214      0.00000     0.37630    0.00156     0.37786
    H 17    0.11698      0.00000     0.38129    0.00173     0.38302
    H 18    0.10910      0.00000     0.39047    0.00043     0.39090
    H 19    0.11331      0.00000     0.38606    0.00062     0.38669
    H 20    0.11694      0.00000     0.38242    0.00064     0.38306
[...]
   45. BD ( 2) C  6- C 12     114. RY ( 4) C  7            0.67    1.27   0.037
   45. BD ( 2) C  6- C 12     135. RY ( 4) C 11            0.54    1.27   0.033
   46. BD ( 1) C  7- C  8      66. BD*( 1) C  5- C  6      1.83    1.14   0.058
   46. BD ( 1) C  7- C  8      69. BD*( 1) C  6- C  7      2.00    1.37   0.066
   46. BD ( 1) C  7- C  8      74. BD*( 1) C  7- H 18      0.85    1.22   0.041
   46. BD ( 1) C  7- C  8      75. BD*( 1) C  8- C  9      1.86    1.33   0.063
   46. BD ( 1) C  7- C  8      76. BD*( 1) C  8- H 19      0.85    1.22   0.041
   46. BD ( 1) C  7- C  8      77. BD*( 1) C  9-Br 10      2.30    0.83   0.055
   46. BD ( 1) C  7- C  8     108. RY ( 2) C  6            1.32    1.99   0.065
   46. BD ( 1) C  7- C  8     119. RY ( 1) C  9            0.86    1.75   0.049
   46. BD ( 1) C  7- C  8     120. RY ( 2) C  9            0.45    2.02   0.038
   47. BD ( 2) C  7- C  8      71. BD*( 2) C  6- C 12     19.36    0.36   0.106
   47. BD ( 2) C  7- C  8      79. BD*( 2) C  9- C 11     16.98    0.36   0.098
   47. BD ( 2) C  7- C  8     121. RY ( 3) C  9            0.28    1.22   0.023
   48. BD ( 1) C  7- H 18      69. BD*( 1) C  6- C  7      0.65    1.27   0.036
   48. BD ( 1) C  7- H 18      70. BD*( 1) C  6- C 12      1.33    1.24   0.051
   48. BD ( 1) C  7- H 18      72. BD*( 1) C  7- C  8      0.55    1.26   0.033
   48. BD ( 1) C  7- H 18      75. BD*( 1) C  8- C  9      1.33    1.23   0.051
   48. BD ( 1) C  7- H 18     107. RY ( 1) C  6            0.60    2.03   0.044
   48. BD ( 1) C  7- H 18     108. RY ( 2) C  6            0.34    1.88   0.032
   48. BD ( 1) C  7- H 18     115. RY ( 1) C  8            0.61    1.90   0.043
   49. BD ( 1) C  8- C  9      72. BD*( 1) C  7- C  8      1.59    1.40   0.060
   49. BD ( 1) C  8- C  9      74. BD*( 1) C  7- H 18      0.81    1.26   0.040
   49. BD ( 1) C  8- C  9      76. BD*( 1) C  8- H 19      1.03    1.26   0.045
   49. BD ( 1) C  8- C  9      78. BD*( 1) C  9- C 11      2.19    1.38   0.069
   49. BD ( 1) C  8- C  9      81. BD*( 1) C 11- H 20      0.96    1.26   0.044
   49. BD ( 1) C  8- C  9     111. RY ( 1) C  7            0.39    2.12   0.036
   49. BD ( 1) C  8- C  9     112. RY ( 2) C  7            0.84    1.71   0.048
   49. BD ( 1) C  8- C  9     132. RY ( 1) C 11            0.61    2.04   0.044
   49. BD ( 1) C  8- C  9     133. RY ( 2) C 11            0.33    1.74   0.030
   50. BD ( 1) C  8- H 19      69. BD*( 1) C  6- C  7      1.23    1.28   0.050
   50. BD ( 1) C  8- H 19      72. BD*( 1) C  7- C  8      0.56    1.27   0.034
   50. BD ( 1) C  8- H 19      75. BD*( 1) C  8- C  9      0.47    1.24   0.030
   50. BD ( 1) C  8- H 19      77. BD*( 1) C  9-Br 10      0.42    0.74   0.022
   50. BD ( 1) C  8- H 19      78. BD*( 1) C  9- C 11      1.19    1.25   0.049
   50. BD ( 1) C  8- H 19     111. RY ( 1) C  7            0.65    1.99   0.045
   50. BD ( 1) C  8- H 19     120. RY ( 2) C  9            0.76    1.93   0.048
   51. BD ( 1) C  9-Br 10      72. BD*( 1) C  7- C  8      0.92    1.35   0.044
   51. BD ( 1) C  9-Br 10      80. BD*( 1) C 11- C 12      0.93    1.37   0.045
   51. BD ( 1) C  9-Br 10     115. RY ( 1) C  8            1.14    1.99   0.060
   51. BD ( 1) C  9-Br 10     132. RY ( 1) C 11            1.16    1.99   0.061
   52. BD ( 1) C  9- C 11      61. BD*( 1) C  3- C 12      1.71    1.16   0.056
   52. BD ( 1) C  9- C 11      75. BD*( 1) C  8- C  9      2.18    1.36   0.069
   52. BD ( 1) C  9- C 11      76. BD*( 1) C  8- H 19      0.93    1.25   0.043
   52. BD ( 1) C  9- C 11      80. BD*( 1) C 11- C 12      1.92    1.41   0.066
   52. BD ( 1) C  9- C 11      81. BD*( 1) C 11- H 20      1.18    1.26   0.049
   52. BD ( 1) C  9- C 11     115. RY ( 1) C  8            0.67    2.03   0.046
   52. BD ( 1) C  9- C 11     116. RY ( 2) C  8            0.33    1.75   0.030
   52. BD ( 1) C  9- C 11     137. RY ( 2) C 12            1.41    2.00   0.067
   53. BD ( 2) C  9- C 11      71. BD*( 2) C  6- C 12     15.78    0.40   0.100
   53. BD ( 2) C  9- C 11      73. BD*( 2) C  7- C  8     17.17    0.42   0.107
   53. BD ( 2) C  9- C 11     118. RY ( 4) C  8            0.79    1.25   0.040
   53. BD ( 2) C  9- C 11     123. RY ( 1)Br 10            1.11    0.97   0.041
   54. BD ( 1) C 11- C 12      61. BD*( 1) C  3- C 12      1.33    1.14   0.049
   54. BD ( 1) C 11- C 12      66. BD*( 1) C  5- C  6      0.80    1.15   0.038
   54. BD ( 1) C 11- C 12      70. BD*( 1) C  6- C 12      2.74    1.35   0.077
   54. BD ( 1) C 11- C 12      77. BD*( 1) C  9-Br 10      2.18    0.84   0.054
   54. BD ( 1) C 11- C 12      78. BD*( 1) C  9- C 11      2.00    1.35   0.066
   54. BD ( 1) C 11- C 12      81. BD*( 1) C 11- H 20      1.18    1.23   0.048
   54. BD ( 1) C 11- C 12      95. RY ( 1) C  3            0.42    1.68   0.034
   54. BD ( 1) C 11- C 12     107. RY ( 1) C  6            0.97    2.14   0.057
   54. BD ( 1) C 11- C 12     119. RY ( 1) C  9            1.02    1.76   0.054
   54. BD ( 1) C 11- C 12     120. RY ( 2) C  9            0.34    2.03   0.033
   55. BD ( 1) C 11- H 20      61. BD*( 1) C  3- C 12      0.29    1.03   0.022
   55. BD ( 1) C 11- H 20      70. BD*( 1) C  6- C 12      1.45    1.24   0.054
   55. BD ( 1) C 11- H 20      75. BD*( 1) C  8- C  9      1.15    1.23   0.048
   55. BD ( 1) C 11- H 20      77. BD*( 1) C  9-Br 10      0.39    0.73   0.021
   55. BD ( 1) C 11- H 20      78. BD*( 1) C  9- C 11      0.57    1.24   0.034
   55. BD ( 1) C 11- H 20      80. BD*( 1) C 11- C 12      0.78    1.28   0.040
   55. BD ( 1) C 11- H 20     120. RY ( 2) C  9            0.81    1.92   0.050
   55. BD ( 1) C 11- H 20     136. RY ( 1) C 12            0.69    2.03   0.047


 NATURAL BOND ORBITALS (Summary):

                                                     Principal Delocalizations
           NBO                 Occupancy    Energy   (geminal,vicinal,remote)
 ===============================================================================
 Molecular unit  1  (C10H8NBr)
 ------ Lewis --------------------------------------
    1. CR ( 1) N  1             0.99996   -14.19086
    2. CR ( 1) C  2             0.99993   -10.11727
    3. CR ( 1) C  3             0.99987   -10.13437
    4. CR ( 1) C  4             0.99988   -10.11524  101(g)
    5. CR ( 1) C  5             0.99988   -10.09930
    6. CR ( 1) C  6             0.99995   -10.06754
    7. CR ( 1) C  7             0.99992   -10.02195
    8. CR ( 1) C  8             0.99993   -10.03857
    9. CR ( 1) C  9             0.99995   -10.10850
   10. CR ( 1)Br 10             1.00000   -22.43529
   11. CR ( 2)Br 10             1.00000  -449.11905
   12. CR ( 3)Br 10             1.00000   -79.60049
   13. CR ( 4)Br 10             1.00000    -6.92342
   14. CR ( 5)Br 10             0.99999   -55.60903
   15. CR ( 6)Br 10             1.00000    -6.91368
   16. CR ( 7)Br 10             1.00000   -55.60663
   17. CR ( 8)Br 10             1.00000    -6.91217
   18. CR ( 9)Br 10             1.00000   -55.60622
   19. CR (10)Br 10             0.99980    -2.61755
   20. CR (11)Br 10             0.99993    -2.61631
   21. CR (12)Br 10             0.99998    -2.60869
   22. CR (13)Br 10             0.99977    -2.61759  125(g)
   23. CR (14)Br 10             0.99991    -2.61092
   24. CR ( 1) C 11             0.99992   -10.02340
   25. CR ( 1) C 12             0.99994   -10.04802
   26. LP ( 1) N  1             0.98751    -0.34790  91(v),59(v),92(v)
   27. LP ( 1)Br 10             0.99873    -0.60416  120(v)
   28. LP ( 2)Br 10             0.99320    -0.21401  75(v),78(v),119(v)
   29. LP ( 3)Br 10             0.98206    -0.21170  79(v)
   30. BD ( 1) N  1- C  2       0.99805    -0.81406  59(g),95(v)
   31. BD ( 2) N  1- C  2       0.99567    -0.28009  62(v),61(v)
   32. BD ( 3) N  1- C  2       0.99484    -0.28102  60(v),61(v)
   33. BD ( 1) C  2- C  3       0.99134    -0.55450  82(v),56(g),71(v),61(g)
                                                     138(v),65(v),60(g),99(v)
   34. BD ( 1) C  3- C  4       0.98304    -0.46356  58(v),56(v),80(v),61(g)
                                                     92(v),59(g),68(v),66(v)
                                                     62(g),137(v),63(g),70(v)
   35. BD ( 1) C  3- C 12       0.97789    -0.45119  57(v),80(g),56(v),58(v)
                                                     69(v),70(g),59(g),93(v)
                                                     62(g),132(v),60(g),64(v)
                                                     78(v),63(v),107(v),108(v)
                                                     92(v),140(v),66(v),133(v)
   36. BD ( 1) C  3- H 13       0.98261    -0.43100  57(v),56(v),71(v),63(v)
                                                     61(g),58(v),70(v),94(v)
                                                     136(v),59(g),91(v),60(g)
   37. BD ( 1) C  4- C  5       0.99316    -0.46668  69(v),62(v),66(g),61(v)
                                                     60(g),64(g),65(g),70(v)
                                                     108(v),97(v),67(g)
   38. BD ( 1) C  4- H 14       0.99570    -0.44148  66(v),61(v),59(v)
   39. BD ( 1) C  4- H 15       0.99305    -0.43310  59(v),67(v),58(r),103(v)
   40. BD ( 1) C  5- C  6       0.98882    -0.46341  69(g),80(v),111(v),70(g)
                                                     64(v),72(v),60(v),68(g)
                                                     63(g),136(v),67(g),61(v)
                                                     137(v)
   41. BD ( 1) C  5- H 16       0.99043    -0.41768  71(v),65(v),109(v),66(g)
                                                     99(v)
   42. BD ( 1) C  5- H 17       0.99313    -0.42522  71(v),60(v),70(v),66(g)
   43. BD ( 1) C  6- C  7       0.98602    -0.49383  70(g),72(g),66(g),116(v)
                                                     74(g),61(v),136(v),76(v)
                                                     103(v)
   44. BD ( 1) C  6- C 12       0.98160    -0.48714  80(g),69(g),74(v),81(v)
                                                     61(g),133(v),66(g),112(v)
                                                     111(v),63(v),103(v),68(v)
                                                     60(v),96(v),62(v)
   45. BD ( 2) C  6- C 12       0.83747    -0.11999  79(v),73(v),67(v),59(v)
                                                     68(v),62(v),114(v),57(r)
                                                     135(v),64(r)
   46. BD ( 1) C  7- C  8       0.98397    -0.48184  77(v),69(g),75(g),66(v)
                                                     108(v),119(v),74(g),76(g)
                                                     120(v)
   47. BD ( 2) C  7- C  8       0.80948    -0.09552  71(v),79(v),121(v)
   48. BD ( 1) C  7- H 18       0.99128    -0.38019  75(v),70(v),69(g),115(v)
                                                     107(v),72(g),108(v)
   49. BD ( 1) C  8- C  9       0.98934    -0.51957  78(g),72(g),76(g),81(v)
                                                     112(v),74(v),132(v),111(v)
                                                     133(v)
   50. BD ( 1) C  8- H 19       0.99138    -0.39023  69(v),78(v),120(v),111(v)
                                                     72(g),75(g),77(v)
   51. BD ( 1) C  9-Br 10       0.99450    -0.47003  132(v),115(v),80(v),72(v)
   52. BD ( 1) C  9- C 11       0.98794    -0.51332  75(g),80(g),61(v),137(v)
                                                     81(g),76(v),115(v),116(v)
   53. BD ( 2) C  9- C 11       0.84226    -0.12883  73(v),71(v),123(v),118(v)
   54. BD ( 1) C 11- C 12       0.98209    -0.49012  70(g),77(v),78(g),61(g)
                                                     81(g),119(v),107(v),66(v)
                                                     95(v),120(v)
   55. BD ( 1) C 11- H 20       0.99039    -0.37926  70(v),75(v),120(v),80(g)
                                                     136(v),78(g),77(v),61(v)
 ------ non-Lewis ----------------------------------
   56. BD*( 1) N  1- C  2       0.00476     1.13931
   57. BD*( 2) N  1- C  2       0.01559     0.31989
   58. BD*( 3) N  1- C  2       0.01547     0.31974
   59. BD*( 1) C  2- C  3       0.01496     0.68229
   60. BD*( 1) C  3- C  4       0.00927     0.54422
   61. BD*( 1) C  3- C 12       0.01405     0.64928
   62. BD*( 1) C  3- H 13       0.00835     0.67102
   63. BD*( 1) C  4- C  5       0.00512     0.56479
   64. BD*( 1) C  4- H 14       0.00401     0.66089
   65. BD*( 1) C  4- H 15       0.00395     0.65386
   66. BD*( 1) C  5- C  6       0.01033     0.66041
   67. BD*( 1) C  5- H 16       0.00757     0.65950
   68. BD*( 1) C  5- H 17       0.00541     0.66619
   69. BD*( 1) C  6- C  7       0.01110     0.89072
   70. BD*( 1) C  6- C 12       0.01337     0.86477
   71. BD*( 2) C  6- C 12       0.19437     0.26767
   72. BD*( 1) C  7- C  8       0.00804     0.87944
   73. BD*( 2) C  7- C  8       0.14230     0.28927
   74. BD*( 1) C  7- H 18       0.00612     0.73870
   75. BD*( 1) C  8- C  9       0.01095     0.85024
   76. BD*( 1) C  8- H 19       0.00577     0.74015
   77. BD*( 1) C  9-Br 10       0.01466     0.34678
   78. BD*( 1) C  9- C 11       0.01064     0.85582
   79. BD*( 2) C  9- C 11       0.18218     0.26190
   80. BD*( 1) C 11- C 12       0.01156     0.89918
   81. BD*( 1) C 11- H 20       0.00643     0.74191
   82. RY ( 1) N  1             0.00225     1.71643
   83. RY ( 2) N  1             0.00003     1.83773
   84. RY ( 3) N  1             0.00002     1.66600
   85. RY ( 4) N  1             0.00001     2.16277
   86. RY ( 5) N  1             0.00001     1.43148
   87. RY ( 6) N  1             0.00001     1.85218
   88. RY ( 7) N  1             0.00001     2.90027
   89. RY ( 8) N  1             0.00000     2.06594
   90. RY ( 9) N  1             0.00000     2.06750
   91. RY ( 1) C  2             0.00798     1.09057
   92. RY ( 2) C  2             0.00178     1.18592
   93. RY ( 3) C  2             0.00093     1.10005
   94. RY ( 4) C  2             0.00062     1.09972
   95. RY ( 1) C  3             0.00126     1.18971
   96. RY ( 2) C  3             0.00101     1.38515
   97. RY ( 3) C  3             0.00054     1.22841
   98. RY ( 4) C  3             0.00018     1.35406
   99. RY ( 1) C  4             0.00121     1.33924
  100. RY ( 2) C  4             0.00039     1.11763
  101. RY ( 3) C  4             0.00030     1.34004
  102. RY ( 4) C  4             0.00018     1.08191
  103. RY ( 1) C  5             0.00112     1.25120
  104. RY ( 2) C  5             0.00052     1.12940
  105. RY ( 3) C  5             0.00042     1.19700
  106. RY ( 4) C  5             0.00010     1.26907
  107. RY ( 1) C  6             0.00212     1.65236
  108. RY ( 2) C  6             0.00180     1.50389
  109. RY ( 3) C  6             0.00071     1.16220
  110. RY ( 4) C  6             0.00033     0.98506
  111. RY ( 1) C  7             0.00213     1.59824
  112. RY ( 2) C  7             0.00164     1.18892
  113. RY ( 3) C  7             0.00021     0.92061
  114. RY ( 4) C  7             0.00014     1.14636
  115. RY ( 1) C  8             0.00245     1.51689
  116. RY ( 2) C  8             0.00165     1.23516
  117. RY ( 3) C  8             0.00020     0.91307
  118. RY ( 4) C  8             0.00020     1.12598
  119. RY ( 1) C  9             0.00277     1.27149
  120. RY ( 2) C  9             0.00238     1.54214
  121. RY ( 3) C  9             0.00022     1.12745
  122. RY ( 4) C  9             0.00019     0.89563
  123. RY ( 1)Br 10             0.00154     0.83740
  124. RY ( 2)Br 10             0.00057     0.90167
  125. RY ( 3)Br 10             0.00030     1.20221
  126. RY ( 4)Br 10             0.00019     1.04448
  127. RY ( 5)Br 10             0.00005     1.07917
  128. RY ( 6)Br 10             0.00003     0.79773
  129. RY ( 7)Br 10             0.00002     0.82538
  130. RY ( 8)Br 10             0.00001     0.90889
  131. RY ( 9)Br 10             0.00000     0.85694
  132. RY ( 1) C 11             0.00241     1.52297
  133. RY ( 2) C 11             0.00177     1.22095
  134. RY ( 3) C 11             0.00028     0.90523
  135. RY ( 4) C 11             0.00019     1.14626
  136. RY ( 1) C 12             0.00215     1.64844
  137. RY ( 2) C 12             0.00190     1.49046
  138. RY ( 3) C 12             0.00076     1.23708
  139. RY ( 4) C 12             0.00048     1.02287
  140. RY ( 1) H 13             0.00074     0.73985
  141. RY ( 1) H 14             0.00069     0.73864
  142. RY ( 1) H 15             0.00089     0.74170
  143. RY ( 1) H 16             0.00088     0.75809
  144. RY ( 1) H 17             0.00070     0.74359
  145. RY ( 1) H 18             0.00043     0.79973
  146. RY ( 1) H 19             0.00062     0.78776
  147. RY ( 1) H 20             0.00059     0.80787
          -------------------------------
                 Total Lewis   54.20549  ( 98.5554%)
           Valence non-Lewis    0.73629  (  1.3387%)
           Rydberg non-Lewis    0.05823  (  0.1059%)
          -------------------------------
               Total unit  1   55.00000  (100.0000%)
              Charge unit  1    0.00000

 $CHOOSE
  ALPHA
   LONE 1 1 7 1 10 3 11 1 END
   BOND T 1 2 S 2 3 S 3 4 S 3 12 S 3 13 S 4 5 S 4 14 S 4 15 S 5 6 S 5 16 S 5 17
        S 6 7 D 6 12 S 7 8 S 7 18 D 8 9 S 8 19 S 9 10 S 9 11 S 11 12 S 11 20
        END
  END
  BETA
   LONE 1 1 10 3 END
   BOND T 1 2 S 2 3 S 3 4 S 3 12 S 3 13 S 4 5 S 4 14 S 4 15 S 5 6 S 5 16 S 5 17
        S 6 7 D 6 12 D 7 8 S 7 18 S 8 9 S 8 19 S 9 10 D 9 11 S 11 12 S 11 20
        END
  END
 $END

 NBO analysis completed in 0.77 CPU seconds (1 wall second)
 Maximum scratch memory used by NBO was 640950 words (4.89 MB)
 Maximum scratch memory used by G16NBO was 52370 words (0.40 MB)

 Opening RunExU unformatted file "/home/rpaton/arbr500/midi/fukui/Gau-2439095.EUF"
 Read unf file /home/rpaton/arbr500/midi/fukui/Gau-2439095.EUF:
 Label Gaussian matrix elements                                         IVers= 2 NLab= 2 Version=ES64L-G16RevC.01
 Title arbr41_wb97xd_redcreated by GaussianPrep                        
 NAtoms=    20 NBasis=   147 NBsUse=   147 ICharg=    -1 Multip=     2 NE=   111 Len12L=8 Len4L=8 IOpCl= 1 ICGU=112
 GAUSSIAN SCALARS                    NI= 1 NR= 1 NTot=       1 LenBuf=    2 NRI=1 N=    1000
 NPA CHARGES                         NI= 0 NR= 1 NTot=      20 LenBuf= 2048 NRI=1 N=      20
 Recovered energy= -2999.91510215     dipole=      0.389568885058      0.471989134472      0.970428936122
 Unable to Open any file for archive entry.
 1\1\GINC-DYNAMO\SP\UwB97XD\MIDIx\C10H8Br1N1(1-,2)\RPATON\30-Sep-2024\0
 \\# pop=(nbo6,hirshfeld) wb97xd/midix\\arbr41_wb97xd_redcreated by Gau
 ssianPrep\\-1,2\N,0,-3.156538,-2.393419,-1.1888\C,0,-2.81158,-1.672441
 ,-0.356364\C,0,-2.381864,-0.754359,0.709332\C,0,-3.376296,0.451172,0.8
 49638\C,0,-2.81336,1.536368,-0.112546\C,0,-1.330577,1.232653,-0.131437
 \C,0,-0.277196,2.034815,-0.541246\C,0,1.023723,1.538888,-0.48104\C,0,1
 .255398,0.247443,-0.018799\Br,0,3.032195,-0.41258,0.062547\C,0,0.20470
 6,-0.569058,0.388814\C,0,-1.079735,-0.056355,0.32972\H,0,-2.296904,-1.
 313963,1.648479\H,0,-4.408408,0.167013,0.624584\H,0,-3.3272,0.812779,1
 .884096\H,0,-3.241911,1.420965,-1.119251\H,0,-3.038212,2.551299,0.2347
 6\H,0,-0.454234,3.044216,-0.905006\H,0,1.860699,2.156445,-0.791779\H,0
 ,0.395805,-1.579264,0.740151\\Version=ES64L-G16RevC.01\State=2-A\HF=-2
 999.9151021\S2=0.762103\S2-1=0.\S2A=0.75008\RMSD=6.527e-09\Dipole=0.38
 95689,0.4719891,0.9704289\Quadrupole=-6.4724216,0.1276405,6.3447811,-7
 .50428,-5.6696772,-4.4718103\PG=C01 [X(C10H8Br1N1)]\\@
 The archive entry for this job was punched.


 Just remember, when you're over the hill, you begin to pick up speed.
 -- Charles Schulz
 Job cpu time:       0 days  0 hours  9 minutes  7.3 seconds.
 Elapsed time:       0 days  0 hours  0 minutes 23.2 seconds.
 File lengths (MBytes):  RWF=     26 Int=      0 D2E=      0 Chk=      3 Scr=      1
 Normal termination of Gaussian 16 at Mon Sep 30 13:06:44 2024.
