 Entering Gaussian System, Link 0=/usr/local/Gaussian/G16C/g16/g16
 Input=arbr42_wb97xd_red.com
 Output=arbr42_wb97xd_red.log
 Initial command:
 /usr/local/Gaussian/G16C/g16/l1.exe "/home/rpaton/arbr500/midi/fukui/Gau-2439871.inp" -scrdir="/home/rpaton/arbr500/midi/fukui/"
 Entering Link 1 = /usr/local/Gaussian/G16C/g16/l1.exe PID=   2439872.
  
 Copyright (c) 1988-2019, Gaussian, Inc.  All Rights Reserved.
  
 This is part of the Gaussian(R) 16 program.  It is based on
 the Gaussian(R) 09 system (copyright 2009, Gaussian, Inc.),
 the Gaussian(R) 03 system (copyright 2003, Gaussian, Inc.),
 the Gaussian(R) 98 system (copyright 1998, Gaussian, Inc.),
 the Gaussian(R) 94 system (copyright 1995, Gaussian, Inc.),
 the Gaussian 92(TM) system (copyright 1992, Gaussian, Inc.),
 the Gaussian 90(TM) system (copyright 1990, Gaussian, Inc.),
 the Gaussian 88(TM) system (copyright 1988, Gaussian, Inc.),
 the Gaussian 86(TM) system (copyright 1986, Carnegie Mellon
 University), and the Gaussian 82(TM) system (copyright 1983,
 Carnegie Mellon University). Gaussian is a federally registered
 trademark of Gaussian, Inc.
  
 This software contains proprietary and confidential information,
 including trade secrets, belonging to Gaussian, Inc.
  
 This software is provided under written license and may be
 used, copied, transmitted, or stored only in accord with that
 written license.
  
 The following legend is applicable only to US Government
 contracts under FAR:
  
                    RESTRICTED RIGHTS LEGEND
  
 Use, reproduction and disclosure by the US Government is
 subject to restrictions as set forth in subparagraphs (a)
 and (c) of the Commercial Computer Software - Restricted
 Rights clause in FAR 52.227-19.
  
 Gaussian, Inc.
 340 Quinnipiac St., Bldg. 40, Wallingford CT 06492
  
  
 ---------------------------------------------------------------
 Warning -- This program may not be used in any manner that
 competes with the business of Gaussian, Inc. or will provide
 assistance to any competitor of Gaussian, Inc.  The licensee
 of this program is prohibited from giving any competitor of
 Gaussian, Inc. access to this program.  By using this program,
 the user acknowledges that Gaussian, Inc. is engaged in the
 business of creating and licensing software in the field of
 computational chemistry and represents and warrants to the
 licensee that it is not a competitor of Gaussian, Inc. and that
 it will not use this program in any manner prohibited above.
 ---------------------------------------------------------------
  

 Cite this work as:
 Gaussian 16, Revision C.01,
 M. J. Frisch, G. W. Trucks, H. B. Schlegel, G. E. Scuseria, 
 M. A. Robb, J. R. Cheeseman, G. Scalmani, V. Barone, 
 G. A. Petersson, H. Nakatsuji, X. Li, M. Caricato, A. V. Marenich, 
 J. Bloino, B. G. Janesko, R. Gomperts, B. Mennucci, H. P. Hratchian, 
 J. V. Ortiz, A. F. Izmaylov, J. L. Sonnenberg, D. Williams-Young, 
 F. Ding, F. Lipparini, F. Egidi, J. Goings, B. Peng, A. Petrone, 
 T. Henderson, D. Ranasinghe, V. G. Zakrzewski, J. Gao, N. Rega, 
 G. Zheng, W. Liang, M. Hada, M. Ehara, K. Toyota, R. Fukuda, 
 J. Hasegawa, M. Ishida, T. Nakajima, Y. Honda, O. Kitao, H. Nakai, 
 T. Vreven, K. Throssell, J. A. Montgomery, Jr., J. E. Peralta, 
 F. Ogliaro, M. J. Bearpark, J. J. Heyd, E. N. Brothers, K. N. Kudin, 
 V. N. Staroverov, T. A. Keith, R. Kobayashi, J. Normand, 
 K. Raghavachari, A. P. Rendell, J. C. Burant, S. S. Iyengar, 
 J. Tomasi, M. Cossi, J. M. Millam, M. Klene, C. Adamo, R. Cammi, 
 J. W. Ochterski, R. L. Martin, K. Morokuma, O. Farkas, 
 J. B. Foresman, and D. J. Fox, Gaussian, Inc., Wallingford CT, 2019.
 
 ******************************************
 Gaussian 16:  ES64L-G16RevC.01  3-Jul-2019
                30-Sep-2024 
 ******************************************
 %chk=arbr42_wb97xd_red.chk
 %mem=48GB
 %nprocshared=24
 Will use up to   24 processors via shared memory.
 -----------------------------------
 # pop=(nbo6,hirshfeld) wb97xd/midix
 -----------------------------------
 1/38=1,172=1/1;
 2/12=2,17=6,18=5,40=1/2;
 3/5=20,11=2,25=1,30=1,74=-58/1,2,3;
 4//1;
 5/5=2,38=5/2;
 6/7=2,8=2,9=2,10=2,28=1,40=1,79=1,113=1,114=1,124=3103,126=1/1,12;
 99/5=1,9=1/99;
 ----------------------------------------
 arbr42_wb97xd_redcreated by GaussianPrep
 ----------------------------------------
 Symbolic Z-matrix:
 Charge = -1 Multiplicity = 2
 Br                   -3.42809  -0.4731   -0.05693 
 C                    -1.75863   0.43068   0.00655 
 C                    -1.72173   1.79812   0.24613 
 C                    -0.49474   2.44698   0.26083 
 C                     0.69824   1.75321   0.06046 
 C                     0.64163   0.37328  -0.14397 
 C                    -0.58678  -0.27837  -0.19491 
 C                     1.91622  -0.44742  -0.25554 
 C                     3.08099   0.37761  -0.7935 
 C                     3.25398   1.6214    0.09467 
 C                     2.00703   2.52074  -0.00046 
 O                     1.66823  -1.61197  -1.05042 
 C                     2.06168  -2.7519   -0.26945 
 C                     1.84523  -2.25049   1.16111 
 O                     2.30744  -0.90149   1.05498 
 H                    -2.64243   2.35047   0.40703 
 H                    -0.46432   3.52228   0.42682 
 H                    -0.61176  -1.33742  -0.42399 
 H                     3.97722  -0.25252  -0.77582 
 H                     2.8685    0.65685  -1.8341 
 H                     4.14314   2.18861  -0.2058 
 H                     3.40215   1.28481   1.12839 
 H                     2.02878   3.27858   0.79427 
 H                     2.0359    3.06659  -0.95791 
 H                     1.42479  -3.59362  -0.55766 
 H                     3.11779  -3.00718  -0.44019 
 H                     2.45556  -2.75596   1.91479 
 H                     0.78365  -2.29811   1.44857 
 
                          Input orientation:                          
 ---------------------------------------------------------------------
 Center     Atomic      Atomic             Coordinates (Angstroms)
 Number     Number       Type             X           Y           Z
 ---------------------------------------------------------------------
      1         35           0       -3.428086   -0.473102   -0.056927
      2          6           0       -1.758628    0.430680    0.006550
      3          6           0       -1.721726    1.798121    0.246126
      4          6           0       -0.494740    2.446975    0.260833
      5          6           0        0.698240    1.753207    0.060461
      6          6           0        0.641628    0.373279   -0.143968
      7          6           0       -0.586783   -0.278374   -0.194909
      8          6           0        1.916216   -0.447422   -0.255539
      9          6           0        3.080987    0.377608   -0.793501
     10          6           0        3.253980    1.621395    0.094670
     11          6           0        2.007033    2.520736   -0.000455
     12          8           0        1.668228   -1.611971   -1.050421
     13          6           0        2.061675   -2.751903   -0.269453
     14          6           0        1.845227   -2.250489    1.161109
     15          8           0        2.307444   -0.901489    1.054982
     16          1           0       -2.642427    2.350472    0.407026
     17          1           0       -0.464315    3.522278    0.426823
     18          1           0       -0.611760   -1.337419   -0.423990
     19          1           0        3.977216   -0.252524   -0.775823
     20          1           0        2.868497    0.656852   -1.834095
     21          1           0        4.143143    2.188614   -0.205796
     22          1           0        3.402147    1.284806    1.128387
     23          1           0        2.028781    3.278576    0.794271
     24          1           0        2.035903    3.066586   -0.957911
     25          1           0        1.424791   -3.593616   -0.557662
     26          1           0        3.117791   -3.007177   -0.440188
     27          1           0        2.455556   -2.755956    1.914793
     28          1           0        0.783648   -2.298113    1.448565
 ---------------------------------------------------------------------
                    Distance matrix (angstroms):
                    1          2          3          4          5
     1  Br   0.000000
     2  C    1.899458   0.000000
     3  C    2.856914   1.388760   0.000000
     4  C    4.151185   2.393223   1.388064   0.000000
     5  C    4.690074   2.790732   2.427493   1.394512   0.000000
     6  C    4.157705   2.405656   2.787076   2.399044   1.396137
     7  C    2.851309   1.384400   2.407164   2.764724   2.417399
     8  C    5.348053   3.787378   4.304504   3.802221   2.534973
     9  C    6.605625   4.905586   5.115147   4.263769   2.880800
    10  C    7.004278   5.152844   4.981147   3.842147   2.559365
    11  C    6.205383   4.306807   3.806129   2.516462   1.518470
    12  O    5.315681   4.127100   4.980115   4.782558   3.674147
    13  C    5.947737   4.979932   5.939921   5.817628   4.718455
    14  C    5.696538   4.637828   5.472805   5.324670   4.307736
    15  O    5.858000   4.405318   4.916946   4.437918   3.259758
    16  H    2.967336   2.151066   1.085666   2.154819   3.411288
    17  H    4.998101   3.377847   2.141600   1.088464   2.148341
    18  H    2.968749   2.151010   3.393036   3.847637   3.391572
    19  H    7.443384   5.829132   6.142269   5.325443   3.933702
    20  H    6.639434   4.984919   5.167201   4.347945   3.082426
    21  H    8.026855   6.161682   5.895202   4.668453   3.482503
    22  H    7.151734   5.349920   5.224553   4.158006   2.944653
    23  H    6.676603   4.803695   4.069215   2.710032   2.153037
    24  H    6.572392   4.719815   4.144694   2.876353   2.133398
    25  H    5.791266   5.162117   6.294241   6.390874   5.431249
    26  H    7.029718   5.983134   6.854403   6.579482   5.363407
    27  H    6.611834   5.617418   6.401074   6.205668   5.182592
    28  H    4.830722   3.998610   4.949939   5.055773   4.283377
                    6          7          8          9         10
     6  C    0.000000
     7  C    1.391488   0.000000
     8  C    1.520057   2.509434   0.000000
     9  C    2.524358   3.773746   1.525375   0.000000
    10  C    2.905017   4.294699   2.488426   1.538109   0.000000
    11  C    2.548823   3.821088   2.980483   2.524935   1.540370
    12  O    2.411801   2.755986   1.431611   2.453634   3.778955
    13  C    3.434973   3.624670   2.309109   3.332786   4.547517
    14  C    3.167970   3.412139   2.294119   3.500642   4.255980
    15  O    2.416083   3.213573   1.441077   2.377256   2.860607
    16  H    3.872713   3.390992   5.389659   6.171785   5.949516
    17  H    3.386016   3.853116   4.678789   4.893599   4.189200
    18  H    2.139131   1.083826   2.685355   4.088305   4.895665
    19  H    3.452103   4.600893   2.134573   1.095721   2.189155
    20  H    2.809962   3.937072   2.148976   1.098164   2.190679
    21  H    3.944600   5.334637   3.451140   2.180210   1.096644
    22  H    3.173363   4.483994   2.669055   2.149373   1.097186
    23  H    3.353392   4.524549   3.872704   3.470414   2.176420
    24  H    3.140129   4.318496   3.585513   2.889608   2.163381
    25  H    4.064572   3.894721   3.198642   4.309202   5.564873
    26  H    4.200787   4.607645   2.833765   3.403374   4.661362
    27  H    4.161844   4.454782   3.214119   4.188704   4.807445
    28  H    3.113305   2.942522   2.758938   4.179008   4.826812
                   11         12         13         14         15
    11  C    0.000000
    12  O    4.277439   0.000000
    13  C    5.279779   1.436717   0.000000
    14  C    4.913247   2.308657   1.531265   0.000000
    15  O    3.593858   2.312164   2.288791   1.429933   0.000000
    16  H    4.670386   6.033809   6.972835   6.471207   5.957879
    17  H    2.700595   5.752434   6.799322   6.260831   5.258036
    18  H    4.682181   2.380365   3.028515   3.063172   3.301385
    19  H    3.489096   2.693497   3.189452   3.505559   2.561472
    20  H    2.752893   2.683719   3.836493   4.297785   3.330161
    21  H    2.171505   4.613355   5.361462   5.182131   3.808948
    22  H    2.179025   4.018084   4.477258   3.863079   2.446150
    23  H    1.098355   5.239307   6.123665   5.544260   4.197448
    24  H    1.102501   4.693894   5.859134   5.726944   4.457700
    25  H    6.167235   2.056451   1.094151   2.221470   3.259946
    26  H    5.655526   2.102431   1.099862   2.180859   2.706680
    27  H    5.631414   3.274306   2.219480   1.093635   2.049454
    28  H    5.178575   2.738285   2.188804   1.100840   2.104144
                   16         17         18         19         20
    16  H    0.000000
    17  H    2.473397   0.000000
    18  H    4.291239   4.935816   0.000000
    19  H    7.210714   5.951696   4.728582   0.000000
    20  H    6.185568   4.942677   4.251788   1.782179   0.000000
    21  H    6.815109   4.838133   5.923649   2.512293   2.573398
    22  H    6.180039   4.521947   5.039582   2.513982   3.074965
    23  H    4.778234   2.531785   5.455642   4.327847   3.806162
    24  H    4.925713   2.894172   5.166280   3.849460   2.695873
    25  H    7.266710   7.427912   3.042340   4.210150   4.666910
    26  H    7.912161   7.497798   4.086307   2.905060   3.928133
    27  H    7.371458   7.082085   4.109815   3.977692   5.086447
    28  H    5.867890   6.039728   2.525185   4.396728   4.884083
                   21         22         23         24         25
    21  H    0.000000
    22  H    1.773693   0.000000
    23  H    2.580441   2.443949   0.000000
    24  H    2.403533   3.064964   1.764974   0.000000
    25  H    6.399018   5.527359   7.029904   6.700145   0.000000
    26  H    5.301182   4.578472   6.497732   6.191051   1.795539
    27  H    5.638583   4.224006   6.152502   6.506192   2.806632
    28  H    5.844128   4.449310   5.751340   6.011594   2.472719
                   26         27         28
    26  H    0.000000
    27  H    2.459187   0.000000
    28  H    3.085188   1.795067   0.000000
 Stoichiometry    C12H13BrO2(1-,2)
 Framework group  C1[X(C12H13BrO2)]
 Deg. of freedom    78
 Full point group                 C1      NOp   1
 Largest Abelian subgroup         C1      NOp   1
 Largest concise Abelian subgroup C1      NOp   1
                         Standard orientation:                         
 ---------------------------------------------------------------------
 Center     Atomic      Atomic             Coordinates (Angstroms)
 Number     Number       Type             X           Y           Z
 ---------------------------------------------------------------------
      1         35           0       -3.428086   -0.473102   -0.056927
      2          6           0       -1.758628    0.430680    0.006550
      3          6           0       -1.721726    1.798121    0.246126
      4          6           0       -0.494740    2.446975    0.260833
      5          6           0        0.698240    1.753207    0.060461
      6          6           0        0.641628    0.373279   -0.143968
      7          6           0       -0.586783   -0.278374   -0.194909
      8          6           0        1.916216   -0.447422   -0.255539
      9          6           0        3.080987    0.377608   -0.793501
     10          6           0        3.253980    1.621395    0.094670
     11          6           0        2.007033    2.520736   -0.000455
     12          8           0        1.668228   -1.611971   -1.050421
     13          6           0        2.061675   -2.751903   -0.269453
     14          6           0        1.845227   -2.250489    1.161109
     15          8           0        2.307444   -0.901489    1.054982
     16          1           0       -2.642427    2.350472    0.407026
     17          1           0       -0.464315    3.522278    0.426823
     18          1           0       -0.611760   -1.337419   -0.423990
     19          1           0        3.977216   -0.252524   -0.775823
     20          1           0        2.868497    0.656852   -1.834095
     21          1           0        4.143143    2.188614   -0.205796
     22          1           0        3.402147    1.284806    1.128387
     23          1           0        2.028781    3.278576    0.794271
     24          1           0        2.035903    3.066586   -0.957911
     25          1           0        1.424791   -3.593616   -0.557662
     26          1           0        3.117791   -3.007177   -0.440188
     27          1           0        2.455556   -2.755956    1.914793
     28          1           0        0.783648   -2.298113    1.448565
 ---------------------------------------------------------------------
 Rotational constants (GHZ):           0.7808609           0.2925381           0.2276085
 Standard basis: MIDIx (5D, 7F)
 There are   193 symmetry adapted cartesian basis functions of A   symmetry.
 There are   189 symmetry adapted basis functions of A   symmetry.
   189 basis functions,   324 primitive gaussians,   193 cartesian basis functions
    69 alpha electrons       68 beta electrons
       nuclear repulsion energy      1334.7905113630 Hartrees.
 NAtoms=   28 NActive=   28 NUniq=   28 SFac= 1.00D+00 NAtFMM=   60 NAOKFM=F Big=F
 Integral buffers will be    131072 words long.
 Raffenetti 2 integral format.
 Two-electron integral symmetry is turned on.
 Nuclear repulsion after empirical dispersion term =     1334.7686891290 Hartrees.
 One-electron integrals computed using PRISM.
 NBasis=   189 RedAO= T EigKep=  1.14D-03  NBF=   189
 NBsUse=   189 1.00D-06 EigRej= -1.00D+00 NBFU=   189
 ExpMin= 1.47D-01 ExpMax= 6.10D+03 ExpMxC= 6.10D+03 IAcc=3 IRadAn=         5 AccDes= 0.00D+00
 Harris functional with IExCor= 4639 and IRadAn=       5 diagonalized for initial guess.
 HarFok:  IExCor= 4639 AccDes= 0.00D+00 IRadAn=         5 IDoV= 1 UseB2=F ITyADJ=14
 ICtDFT=  3500011 ScaDFX=  1.000000  1.000000  1.000000  1.000000
 FoFCou: FMM=F IPFlag=           0 FMFlag=      100000 FMFlg1=           0
         NFxFlg=           0 DoJE=T BraDBF=F KetDBF=T FulRan=T
         wScrn=  0.000000 ICntrl=       500 IOpCl=  0 I1Cent=   200000004 NGrid=           0
         NMat0=    1 NMatS0=      1 NMatT0=    0 NMatD0=    1 NMtDS0=    0 NMtDT0=    0
 Petite list used in FoFCou.
 Initial guess <Sx>= 0.0000 <Sy>= 0.0000 <Sz>= 0.5000 <S**2>= 0.7500 S= 0.5000
 Requested convergence on RMS density matrix=1.00D-08 within 128 cycles.
 Requested convergence on MAX density matrix=1.00D-06.
 Requested convergence on             energy=1.00D-06.
 No special actions if energy rises.
 Integral accuracy reduced to 1.0D-05 until final iterations.
 Rare condition: small coef for last iteration:  0.000D+00
 Rare condition: small coef for last iteration:  0.000D+00
 Problem detected with inexpensive integrals.
 Switching to full accuracy and repeating last cycle.
 Rare condition: small coef for last iteration:  0.000D+00
 Rare condition: small coef for last iteration:  0.000D+00
 Rare condition: small coef for last iteration:  0.000D+00
 Rare condition: small coef for last iteration:  0.000D+00
 Rare condition: small coef for last iteration:  0.000D+00
 Rare condition: small coef for last iteration:  0.000D+00
 Rare condition: small coef for last iteration:  0.000D+00
 Rare condition: small coef for last iteration:  0.000D+00
 Rare condition: small coef for last iteration:  0.000D+00
 Restarting incremental Fock formation.
 Rare condition: small coef for last iteration:  0.000D+00
 Rare condition: small coef for last iteration:  0.000D+00
 Rare condition: small coef for last iteration:  0.000D+00
 Restarting incremental Fock formation.
 SCF Done:  E(UwB97XD) =  -3173.78015496     A.U. after   58 cycles
            NFock= 58  Conv=0.46D-08     -V/T= 2.0029
 <Sx>= 0.0000 <Sy>= 0.0000 <Sz>= 0.5000 <S**2>= 0.7620 S= 0.5060
 <L.S>= 0.000000000000E+00
 Annihilation of the first spin contaminant:
 S**2 before annihilation     0.7620,   after     0.7501

 **********************************************************************

            Population analysis using the SCF Density.

 **********************************************************************

 Orbital symmetries:
 Alpha Orbitals:
       Occupied  (A) (A) (A) (A) (A) (A) (A) (A) (A) (A) (A) (A)
                 (A) (A) (A) (A) (A) (A) (A) (A) (A) (A) (A) (A)
                 (A) (A) (A) (A) (A) (A) (A) (A) (A) (A) (A) (A)
                 (A) (A) (A) (A) (A) (A) (A) (A) (A) (A) (A) (A)
                 (A) (A) (A) (A) (A) (A) (A) (A) (A) (A) (A) (A)
                 (A) (A) (A) (A) (A) (A) (A) (A) (A)
       Virtual   (A) (A) (A) (A) (A) (A) (A) (A) (A) (A) (A) (A)
                 (A) (A) (A) (A) (A) (A) (A) (A) (A) (A) (A) (A)
                 (A) (A) (A) (A) (A) (A) (A) (A) (A) (A) (A) (A)
                 (A) (A) (A) (A) (A) (A) (A) (A) (A) (A) (A) (A)
                 (A) (A) (A) (A) (A) (A) (A) (A) (A) (A) (A) (A)
                 (A) (A) (A) (A) (A) (A) (A) (A) (A) (A) (A) (A)
                 (A) (A) (A) (A) (A) (A) (A) (A) (A) (A) (A) (A)
                 (A) (A) (A) (A) (A) (A) (A) (A) (A) (A) (A) (A)
                 (A) (A) (A) (A) (A) (A) (A) (A) (A) (A) (A) (A)
                 (A) (A) (A) (A) (A) (A) (A) (A) (A) (A) (A) (A)
 Beta  Orbitals:
       Occupied  (A) (A) (A) (A) (A) (A) (A) (A) (A) (A) (A) (A)
                 (A) (A) (A) (A) (A) (A) (A) (A) (A) (A) (A) (A)
                 (A) (A) (A) (A) (A) (A) (A) (A) (A) (A) (A) (A)
                 (A) (A) (A) (A) (A) (A) (A) (A) (A) (A) (A) (A)
                 (A) (A) (A) (A) (A) (A) (A) (A) (A) (A) (A) (A)
                 (A) (A) (A) (A) (A) (A) (A) (A)
       Virtual   (A) (A) (A) (A) (A) (A) (A) (A) (A) (A) (A) (A)
                 (A) (A) (A) (A) (A) (A) (A) (A) (A) (A) (A) (A)
                 (A) (A) (A) (A) (A) (A) (A) (A) (A) (A) (A) (A)
                 (A) (A) (A) (A) (A) (A) (A) (A) (A) (A) (A) (A)
                 (A) (A) (A) (A) (A) (A) (A) (A) (A) (A) (A) (A)
                 (A) (A) (A) (A) (A) (A) (A) (A) (A) (A) (A) (A)
                 (A) (A) (A) (A) (A) (A) (A) (A) (A) (A) (A) (A)
                 (A) (A) (A) (A) (A) (A) (A) (A) (A) (A) (A) (A)
                 (A) (A) (A) (A) (A) (A) (A) (A) (A) (A) (A) (A)
                 (A) (A) (A) (A) (A) (A) (A) (A) (A) (A) (A) (A)
                 (A)
 The electronic state is 2-A.
 Alpha  occ. eigenvalues -- -479.97602 -62.40993 -55.99849 -55.99494 -55.99471
 Alpha  occ. eigenvalues --  -19.02857 -19.02454 -10.19316 -10.16934 -10.16306
 Alpha  occ. eigenvalues --  -10.09820 -10.09741 -10.08330 -10.07370 -10.05418
 Alpha  occ. eigenvalues --  -10.05205 -10.03903 -10.01411 -10.01337  -8.71809
 Alpha  occ. eigenvalues --   -6.50143  -6.48954  -6.48924  -2.60484  -2.60063
 Alpha  occ. eigenvalues --   -2.60012  -2.59037  -2.59032  -1.05675  -0.95993
 Alpha  occ. eigenvalues --   -0.80736  -0.77511  -0.74120  -0.72103  -0.67448
 Alpha  occ. eigenvalues --   -0.66582  -0.63203  -0.60607  -0.56156  -0.55303
 Alpha  occ. eigenvalues --   -0.51570  -0.48460  -0.47533  -0.46095  -0.42182
 Alpha  occ. eigenvalues --   -0.41828  -0.40312  -0.38497  -0.37953  -0.36611
 Alpha  occ. eigenvalues --   -0.35299  -0.34068  -0.33393  -0.31908  -0.30821
 Alpha  occ. eigenvalues --   -0.29970  -0.29410  -0.28386  -0.28042  -0.27433
 Alpha  occ. eigenvalues --   -0.24747  -0.23405  -0.22002  -0.20754  -0.19859
 Alpha  occ. eigenvalues --   -0.18385  -0.14991  -0.13112   0.06355
 Alpha virt. eigenvalues --    0.24975   0.26733   0.28538   0.30284   0.32113
 Alpha virt. eigenvalues --    0.33349   0.34259   0.34596   0.35345   0.36057
 Alpha virt. eigenvalues --    0.37084   0.37653   0.39292   0.39494   0.40018
 Alpha virt. eigenvalues --    0.42569   0.42926   0.44507   0.44944   0.47353
 Alpha virt. eigenvalues --    0.47732   0.48725   0.51316   0.52900   0.53804
 Alpha virt. eigenvalues --    0.55663   0.59372   0.60719   0.63085   0.65232
 Alpha virt. eigenvalues --    0.73271   0.75266   0.77210   0.77626   0.78450
 Alpha virt. eigenvalues --    0.80661   0.81125   0.81827   0.82890   0.83292
 Alpha virt. eigenvalues --    0.84940   0.85235   0.85996   0.88231   0.88407
 Alpha virt. eigenvalues --    0.89884   0.92978   0.93391   0.94538   0.96727
 Alpha virt. eigenvalues --    0.97285   0.98077   0.99883   1.01136   1.03634
 Alpha virt. eigenvalues --    1.04138   1.05515   1.06075   1.06618   1.07553
 Alpha virt. eigenvalues --    1.09361   1.10872   1.12320   1.13397   1.13809
 Alpha virt. eigenvalues --    1.14424   1.14792   1.14984   1.15949   1.16951
 Alpha virt. eigenvalues --    1.17666   1.18413   1.19113   1.20084   1.20750
 Alpha virt. eigenvalues --    1.21167   1.21453   1.22462   1.23555   1.24859
 Alpha virt. eigenvalues --    1.28740   1.29062   1.29689   1.31661   1.32813
 Alpha virt. eigenvalues --    1.35001   1.36336   1.41394   1.42554   1.50738
 Alpha virt. eigenvalues --    1.54241   1.56126   1.59830   1.60631   1.64992
 Alpha virt. eigenvalues --    1.69052   1.73483   1.75922   1.79273   1.83081
 Alpha virt. eigenvalues --    1.85357   1.88902   1.91821   1.93100   1.99069
 Alpha virt. eigenvalues --    2.02290   2.05995   2.10477   2.11532   2.16246
 Alpha virt. eigenvalues --    2.21327   2.23538   2.25928   2.28297   2.39589
 Alpha virt. eigenvalues --    2.52701   2.59744   2.62607   2.71740   2.83530
  Beta  occ. eigenvalues -- -479.97603 -62.40992 -55.99854 -55.99495 -55.99465
  Beta  occ. eigenvalues --  -19.02857 -19.02458 -10.19310 -10.16934 -10.16294
  Beta  occ. eigenvalues --  -10.09819 -10.09742 -10.08356 -10.07096 -10.05526
  Beta  occ. eigenvalues --  -10.05312 -10.03652 -10.00935 -10.00879  -8.71809
  Beta  occ. eigenvalues --   -6.50151  -6.48954  -6.48915  -2.60488  -2.60067
  Beta  occ. eigenvalues --   -2.60006  -2.59033  -2.59028  -1.05677  -0.95996
  Beta  occ. eigenvalues --   -0.80482  -0.77036  -0.74016  -0.71819  -0.67191
  Beta  occ. eigenvalues --   -0.66281  -0.62559  -0.60576  -0.55942  -0.55120
  Beta  occ. eigenvalues --   -0.50776  -0.48201  -0.47451  -0.46019  -0.42004
  Beta  occ. eigenvalues --   -0.41645  -0.40113  -0.38413  -0.37868  -0.36400
  Beta  occ. eigenvalues --   -0.35162  -0.33873  -0.33178  -0.31555  -0.30745
  Beta  occ. eigenvalues --   -0.29729  -0.29199  -0.28230  -0.27631  -0.26601
  Beta  occ. eigenvalues --   -0.24542  -0.23193  -0.21751  -0.20169  -0.19823
  Beta  occ. eigenvalues --   -0.18345  -0.13094  -0.10071
  Beta virt. eigenvalues --    0.25210   0.27092   0.27473   0.28717   0.30500
  Beta virt. eigenvalues --    0.32123   0.33452   0.34304   0.34755   0.35710
  Beta virt. eigenvalues --    0.36410   0.37367   0.37888   0.39535   0.39736
  Beta virt. eigenvalues --    0.40559   0.42975   0.43402   0.44881   0.45421
  Beta virt. eigenvalues --    0.47460   0.48481   0.48833   0.51500   0.53138
  Beta virt. eigenvalues --    0.54012   0.55991   0.59864   0.60937   0.63774
  Beta virt. eigenvalues --    0.65559   0.73425   0.75616   0.77429   0.77922
  Beta virt. eigenvalues --    0.78630   0.80742   0.81499   0.81953   0.83001
  Beta virt. eigenvalues --    0.83405   0.85141   0.85403   0.86241   0.88384
  Beta virt. eigenvalues --    0.88562   0.90011   0.93020   0.93551   0.94701
  Beta virt. eigenvalues --    0.96808   0.97320   0.98132   0.99975   1.01234
  Beta virt. eigenvalues --    1.04122   1.04396   1.05655   1.06483   1.06976
  Beta virt. eigenvalues --    1.07973   1.09582   1.11076   1.12370   1.13586
  Beta virt. eigenvalues --    1.14136   1.14607   1.15095   1.15129   1.16094
  Beta virt. eigenvalues --    1.17413   1.17883   1.18469   1.19474   1.20384
  Beta virt. eigenvalues --    1.21168   1.21578   1.21698   1.22704   1.24148
  Beta virt. eigenvalues --    1.25257   1.29016   1.29461   1.30278   1.31758
  Beta virt. eigenvalues --    1.33017   1.35503   1.36685   1.41781   1.42808
  Beta virt. eigenvalues --    1.50919   1.54458   1.56285   1.59994   1.60754
  Beta virt. eigenvalues --    1.65023   1.69157   1.73565   1.76029   1.79380
  Beta virt. eigenvalues --    1.83277   1.85539   1.89140   1.91938   1.93116
  Beta virt. eigenvalues --    1.99226   2.02334   2.06032   2.10519   2.11657
  Beta virt. eigenvalues --    2.16293   2.21361   2.23551   2.25935   2.28337
  Beta virt. eigenvalues --    2.39606   2.52716   2.59754   2.62621   2.71743
  Beta virt. eigenvalues --    2.83532
          Condensed to atoms (all electrons):
               1          2          3          4          5          6
     1  Br  35.135379   0.175942  -0.039199   0.002025   0.000349   0.002373
     2  C    0.175942   5.250125   0.510125  -0.053044  -0.045325   0.007778
     3  C   -0.039199   0.510125   4.924875   0.476050  -0.006689  -0.048791
     4  C    0.002025  -0.053044   0.476050   5.146593   0.358389  -0.014507
     5  C    0.000349  -0.045325  -0.006689   0.358389   5.189016   0.450043
     6  C    0.002373   0.007778  -0.048791  -0.014507   0.450043   5.171408
     7  C   -0.034787   0.308519  -0.031965  -0.017349  -0.025899   0.407480
     8  C   -0.000058   0.000946   0.000713   0.000009   0.005603   0.306314
     9  C    0.000000   0.000151  -0.000048  -0.000012  -0.004947  -0.091315
    10  C    0.000000  -0.000060  -0.000029   0.001587  -0.052605  -0.003309
    11  C    0.000002   0.000801   0.001005  -0.025803   0.332892  -0.005638
    12  O   -0.000001   0.000875  -0.000016   0.000008   0.000752  -0.051627
    13  C    0.000000  -0.000076   0.000002  -0.000000  -0.000062   0.009302
    14  C    0.000000   0.000187  -0.000006  -0.000007   0.000356  -0.005015
    15  O    0.000000   0.000019  -0.000013   0.000049  -0.004514  -0.037447
    16  H   -0.000298  -0.029503   0.395436  -0.023128   0.003551   0.000092
    17  H   -0.000090   0.004084  -0.030496   0.406601  -0.034912   0.004201
    18  H   -0.001222  -0.019970   0.002901   0.000306   0.003280  -0.026232
    19  H   -0.000000  -0.000002   0.000001  -0.000005  -0.000506   0.007749
    20  H   -0.000000  -0.000014   0.000002  -0.000084  -0.000568   0.000223
    21  H    0.000000   0.000001  -0.000001   0.000004   0.005514  -0.000849
    22  H   -0.000000  -0.000001   0.000004  -0.000133   0.000553   0.001605
    23  H   -0.000000  -0.000024   0.000048  -0.001025  -0.045911   0.003903
    24  H    0.000000  -0.000054  -0.000062   0.002959  -0.048638  -0.005661
    25  H    0.000000  -0.000024   0.000000  -0.000000   0.000005   0.000206
    26  H   -0.000000   0.000003  -0.000000  -0.000000   0.000010  -0.000721
    27  H    0.000000  -0.000001  -0.000000   0.000000  -0.000027  -0.000476
    28  H   -0.000009  -0.000360  -0.000002   0.000007  -0.000029   0.000454
               7          8          9         10         11         12
     1  Br  -0.034787  -0.000058   0.000000   0.000000   0.000002  -0.000001
     2  C    0.308519   0.000946   0.000151  -0.000060   0.000801   0.000875
     3  C   -0.031965   0.000713  -0.000048  -0.000029   0.001005  -0.000016
     4  C   -0.017349   0.000009  -0.000012   0.001587  -0.025803   0.000008
     5  C   -0.025899   0.005603  -0.004947  -0.052605   0.332892   0.000752
     6  C    0.407480   0.306314  -0.091315  -0.003309  -0.005638  -0.051627
     7  C    5.224691  -0.002697   0.000200   0.000138   0.000061  -0.008380
     8  C   -0.002697   4.621996   0.307863  -0.059025  -0.016900   0.202611
     9  C    0.000200   0.307863   5.420536   0.224936  -0.064980  -0.042249
    10  C    0.000138  -0.059025   0.224936   5.335138   0.297188   0.002962
    11  C    0.000061  -0.016900  -0.064980   0.297188   5.123959  -0.000105
    12  O   -0.008380   0.202611  -0.042249   0.002962  -0.000105   8.470133
    13  C    0.000471  -0.067883  -0.003775  -0.000022   0.000001   0.188256
    14  C   -0.005875  -0.061577   0.010017  -0.000237  -0.000036  -0.026131
    15  O   -0.003205   0.176962  -0.060347  -0.002262  -0.001058  -0.036916
    16  H    0.003102   0.000006   0.000000   0.000001  -0.000058   0.000000
    17  H    0.000138  -0.000099   0.000018   0.000203  -0.009267   0.000000
    18  H    0.386028  -0.010218   0.000609  -0.000038  -0.000100   0.018486
    19  H    0.000004  -0.035784   0.370053  -0.034532   0.006485   0.001310
    20  H    0.000321  -0.028388   0.361046  -0.024812  -0.005180   0.001901
    21  H   -0.000009   0.008102  -0.040579   0.385313  -0.038952  -0.000031
    22  H   -0.000092  -0.009003  -0.038317   0.379051  -0.031370   0.000096
    23  H    0.000017  -0.001413   0.009267  -0.041446   0.388354  -0.000001
    24  H    0.000251   0.002608  -0.011584  -0.025572   0.360457   0.000011
    25  H    0.000348   0.007108  -0.000425   0.000008   0.000000  -0.026424
    26  H   -0.000012  -0.000900   0.003032  -0.000217   0.000002  -0.029227
    27  H    0.000192   0.007031   0.000380  -0.000027   0.000001   0.002476
    28  H    0.015013  -0.001319   0.000129  -0.000104   0.000021  -0.002590
              13         14         15         16         17         18
     1  Br   0.000000   0.000000   0.000000  -0.000298  -0.000090  -0.001222
     2  C   -0.000076   0.000187   0.000019  -0.029503   0.004084  -0.019970
     3  C    0.000002  -0.000006  -0.000013   0.395436  -0.030496   0.002901
     4  C   -0.000000  -0.000007   0.000049  -0.023128   0.406601   0.000306
     5  C   -0.000062   0.000356  -0.004514   0.003551  -0.034912   0.003280
     6  C    0.009302  -0.005015  -0.037447   0.000092   0.004201  -0.026232
     7  C    0.000471  -0.005875  -0.003205   0.003102   0.000138   0.386028
     8  C   -0.067883  -0.061577   0.176962   0.000006  -0.000099  -0.010218
     9  C   -0.003775   0.010017  -0.060347   0.000000   0.000018   0.000609
    10  C   -0.000022  -0.000237  -0.002262   0.000001   0.000203  -0.000038
    11  C    0.000001  -0.000036  -0.001058  -0.000058  -0.009267  -0.000100
    12  O    0.188256  -0.026131  -0.036916   0.000000   0.000000   0.018486
    13  C    4.926588   0.347596  -0.035249  -0.000000  -0.000000  -0.002098
    14  C    0.347596   4.946302   0.180370   0.000000  -0.000000  -0.000875
    15  O   -0.035249   0.180370   8.504864  -0.000000   0.000001  -0.000065
    16  H   -0.000000   0.000000  -0.000000   0.528638  -0.006001  -0.000103
    17  H   -0.000000  -0.000000   0.000001  -0.006001   0.569879   0.000008
    18  H   -0.002098  -0.000875  -0.000065  -0.000103   0.000008   0.532044
    19  H    0.001794  -0.000731   0.004798   0.000000  -0.000000  -0.000026
    20  H    0.000220  -0.000280   0.003251  -0.000000   0.000000  -0.000000
    21  H   -0.000000   0.000012  -0.000051  -0.000000  -0.000006   0.000000
    22  H    0.000098  -0.000272   0.014547  -0.000000  -0.000006   0.000001
    23  H   -0.000000  -0.000007   0.000076  -0.000006   0.004415   0.000001
    24  H    0.000000   0.000004  -0.000038   0.000001   0.001080   0.000007
    25  H    0.377844  -0.030006   0.002599  -0.000000   0.000000  -0.000795
    26  H    0.358611  -0.043249   0.000296   0.000000   0.000000   0.000302
    27  H   -0.032107   0.367388  -0.026713  -0.000000   0.000000   0.000081
    28  H   -0.042965   0.351182  -0.023101  -0.000000  -0.000000   0.001932
              19         20         21         22         23         24
     1  Br  -0.000000  -0.000000   0.000000  -0.000000  -0.000000   0.000000
     2  C   -0.000002  -0.000014   0.000001  -0.000001  -0.000024  -0.000054
     3  C    0.000001   0.000002  -0.000001   0.000004   0.000048  -0.000062
     4  C   -0.000005  -0.000084   0.000004  -0.000133  -0.001025   0.002959
     5  C   -0.000506  -0.000568   0.005514   0.000553  -0.045911  -0.048638
     6  C    0.007749   0.000223  -0.000849   0.001605   0.003903  -0.005661
     7  C    0.000004   0.000321  -0.000009  -0.000092   0.000017   0.000251
     8  C   -0.035784  -0.028388   0.008102  -0.009003  -0.001413   0.002608
     9  C    0.370053   0.361046  -0.040579  -0.038317   0.009267  -0.011584
    10  C   -0.034532  -0.024812   0.385313   0.379051  -0.041446  -0.025572
    11  C    0.006485  -0.005180  -0.038952  -0.031370   0.388354   0.360457
    12  O    0.001310   0.001901  -0.000031   0.000096  -0.000001   0.000011
    13  C    0.001794   0.000220  -0.000000   0.000098  -0.000000   0.000000
    14  C   -0.000731  -0.000280   0.000012  -0.000272  -0.000007   0.000004
    15  O    0.004798   0.003251  -0.000051   0.014547   0.000076  -0.000038
    16  H    0.000000  -0.000000  -0.000000  -0.000000  -0.000006   0.000001
    17  H   -0.000000   0.000000  -0.000006  -0.000006   0.004415   0.001080
    18  H   -0.000026  -0.000000   0.000000   0.000001   0.000001   0.000007
    19  H    0.562229  -0.024126  -0.003207  -0.001496  -0.000133  -0.000322
    20  H   -0.024126   0.532302  -0.002732   0.004504  -0.000204   0.005188
    21  H   -0.003207  -0.002732   0.576012  -0.027636  -0.002012  -0.002788
    22  H   -0.001496   0.004504  -0.027636   0.523541  -0.005654   0.004756
    23  H   -0.000133  -0.000204  -0.002012  -0.005654   0.599647  -0.050126
    24  H   -0.000322   0.005188  -0.002788   0.004756  -0.050126   0.626091
    25  H    0.000058   0.000006  -0.000000  -0.000001  -0.000000   0.000000
    26  H   -0.000464  -0.000012   0.000004   0.000018  -0.000000  -0.000000
    27  H   -0.000177  -0.000005  -0.000000  -0.000067   0.000001  -0.000000
    28  H    0.000076   0.000015  -0.000001   0.000049   0.000003  -0.000002
              25         26         27         28
     1  Br   0.000000  -0.000000   0.000000  -0.000009
     2  C   -0.000024   0.000003  -0.000001  -0.000360
     3  C    0.000000  -0.000000  -0.000000  -0.000002
     4  C   -0.000000  -0.000000   0.000000   0.000007
     5  C    0.000005   0.000010  -0.000027  -0.000029
     6  C    0.000206  -0.000721  -0.000476   0.000454
     7  C    0.000348  -0.000012   0.000192   0.015013
     8  C    0.007108  -0.000900   0.007031  -0.001319
     9  C   -0.000425   0.003032   0.000380   0.000129
    10  C    0.000008  -0.000217  -0.000027  -0.000104
    11  C    0.000000   0.000002   0.000001   0.000021
    12  O   -0.026424  -0.029227   0.002476  -0.002590
    13  C    0.377844   0.358611  -0.032107  -0.042965
    14  C   -0.030006  -0.043249   0.367388   0.351182
    15  O    0.002599   0.000296  -0.026713  -0.023101
    16  H   -0.000000   0.000000  -0.000000  -0.000000
    17  H    0.000000   0.000000   0.000000  -0.000000
    18  H   -0.000795   0.000302   0.000081   0.001932
    19  H    0.000058  -0.000464  -0.000177   0.000076
    20  H    0.000006  -0.000012  -0.000005   0.000015
    21  H   -0.000000   0.000004  -0.000000  -0.000001
    22  H   -0.000001   0.000018  -0.000067   0.000049
    23  H   -0.000000  -0.000000   0.000001   0.000003
    24  H    0.000000  -0.000000  -0.000000  -0.000002
    25  H    0.542875  -0.039661   0.001321  -0.000938
    26  H   -0.039661   0.605564  -0.002113   0.004435
    27  H    0.001321  -0.002113   0.563167  -0.032489
    28  H   -0.000938   0.004435  -0.032489   0.546657
          Atomic-Atomic Spin Densities.
               1          2          3          4          5          6
     1  Br   0.007870  -0.011452  -0.002096   0.000302  -0.000051   0.000046
     2  C   -0.011452   0.364540   0.042413  -0.030702   0.012532  -0.002012
     3  C   -0.002096   0.042413  -0.114079  -0.037290  -0.001646   0.005800
     4  C    0.000302  -0.030702  -0.037290   0.620507  -0.151696  -0.012959
     5  C   -0.000051   0.012532  -0.001646  -0.151696   0.337577   0.035728
     6  C    0.000046  -0.002012   0.005800  -0.012959   0.035728  -0.111140
     7  C    0.001820  -0.168804  -0.012221   0.018266  -0.028018  -0.033466
     8  C    0.000003   0.000160  -0.000000   0.000042   0.007606  -0.010243
     9  C   -0.000000   0.000020   0.000005  -0.000344  -0.002852   0.012984
    10  C    0.000000   0.000004  -0.000002   0.000226   0.004408  -0.003480
    11  C   -0.000000   0.000013   0.000149  -0.008066   0.016293   0.003017
    12  O    0.000000   0.000002  -0.000000   0.000001   0.000047   0.000196
    13  C    0.000000   0.000001  -0.000000   0.000000   0.000011  -0.000102
    14  C   -0.000002   0.000130   0.000002  -0.000013   0.000273   0.000282
    15  O    0.000000  -0.000015  -0.000001   0.000017  -0.001174   0.002298
    16  H    0.000143  -0.000754   0.002132  -0.000829   0.000107  -0.000031
    17  H   -0.000001   0.000032  -0.002005   0.002711  -0.002303   0.000037
    18  H    0.000575  -0.002139  -0.000005  -0.000033   0.000034  -0.002713
    19  H   -0.000000   0.000000  -0.000000  -0.000000  -0.000036   0.000113
    20  H    0.000000  -0.000007  -0.000001   0.000067  -0.000538  -0.001281
    21  H    0.000000  -0.000000   0.000000   0.000001   0.000315  -0.000145
    22  H   -0.000000   0.000001   0.000000  -0.000020   0.000252  -0.000095
    23  H   -0.000000  -0.000023  -0.000033   0.003323  -0.013116   0.001042
    24  H    0.000000  -0.000062  -0.000072   0.008186  -0.014889  -0.003246
    25  H    0.000000   0.000000  -0.000000  -0.000000   0.000000  -0.000002
    26  H   -0.000000   0.000000   0.000000  -0.000000  -0.000001   0.000010
    27  H    0.000000  -0.000003  -0.000000   0.000000  -0.000018  -0.000010
    28  H    0.000022  -0.000615  -0.000009   0.000032  -0.000332  -0.000946
               7          8          9         10         11         12
     1  Br   0.001820   0.000003  -0.000000   0.000000  -0.000000   0.000000
     2  C   -0.168804   0.000160   0.000020   0.000004   0.000013   0.000002
     3  C   -0.012221  -0.000000   0.000005  -0.000002   0.000149  -0.000000
     4  C    0.018266   0.000042  -0.000344   0.000226  -0.008066   0.000001
     5  C   -0.028018   0.007606  -0.002852   0.004408   0.016293   0.000047
     6  C   -0.033466  -0.010243   0.012984  -0.003480   0.003017   0.000196
     7  C    0.654809  -0.002682  -0.000531  -0.000053  -0.000209  -0.000092
     8  C   -0.002682   0.053317  -0.047812   0.016785  -0.006649   0.000587
     9  C   -0.000531  -0.047812   0.065250  -0.030153   0.015431  -0.002437
    10  C   -0.000053   0.016785  -0.030153   0.020430  -0.011169   0.000144
    11  C   -0.000209  -0.006649   0.015431  -0.011169  -0.003947  -0.000029
    12  O   -0.000092   0.000587  -0.002437   0.000144  -0.000029   0.001511
    13  C   -0.000050   0.000358  -0.000545   0.000036  -0.000003   0.000450
    14  C   -0.003541   0.000800  -0.000567   0.000108  -0.000020   0.000209
    15  O    0.001065  -0.006826   0.004820  -0.001212   0.000179  -0.000202
    16  H    0.000144  -0.000000  -0.000000   0.000000   0.000001   0.000000
    17  H   -0.000046  -0.000004   0.000006  -0.000034   0.000602  -0.000000
    18  H    0.001821   0.000319  -0.000064   0.000004  -0.000004   0.000383
    19  H   -0.000006  -0.002379   0.003745  -0.001455   0.000225  -0.000086
    20  H    0.000168   0.003203  -0.006134   0.002577  -0.001461   0.000171
    21  H    0.000000   0.000795  -0.003533   0.001421  -0.002229   0.000002
    22  H   -0.000009   0.000434  -0.000581   0.000635  -0.000256   0.000002
    23  H    0.000058  -0.001060   0.002606  -0.004427   0.000410  -0.000001
    24  H    0.000251   0.002189  -0.007488   0.009096  -0.023949   0.000006
    25  H   -0.000013  -0.000008  -0.000017   0.000000  -0.000000  -0.000011
    26  H    0.000002  -0.000100   0.000110  -0.000007   0.000000  -0.000038
    27  H    0.000163  -0.000388   0.000192  -0.000025   0.000002  -0.000057
    28  H    0.007866  -0.000638   0.000415  -0.000054   0.000013  -0.000406
              13         14         15         16         17         18
     1  Br   0.000000  -0.000002   0.000000   0.000143  -0.000001   0.000575
     2  C    0.000001   0.000130  -0.000015  -0.000754   0.000032  -0.002139
     3  C   -0.000000   0.000002  -0.000001   0.002132  -0.002005  -0.000005
     4  C    0.000000  -0.000013   0.000017  -0.000829   0.002711  -0.000033
     5  C    0.000011   0.000273  -0.001174   0.000107  -0.002303   0.000034
     6  C   -0.000102   0.000282   0.002298  -0.000031   0.000037  -0.002713
     7  C   -0.000050  -0.003541   0.001065   0.000144  -0.000046   0.001821
     8  C    0.000358   0.000800  -0.006826  -0.000000  -0.000004   0.000319
     9  C   -0.000545  -0.000567   0.004820  -0.000000   0.000006  -0.000064
    10  C    0.000036   0.000108  -0.001212   0.000000  -0.000034   0.000004
    11  C   -0.000003  -0.000020   0.000179   0.000001   0.000602  -0.000004
    12  O    0.000450   0.000209  -0.000202   0.000000  -0.000000   0.000383
    13  C    0.000022   0.000478  -0.000327   0.000000  -0.000000   0.000014
    14  C    0.000478   0.028646  -0.000799   0.000000  -0.000000   0.000249
    15  O   -0.000327  -0.000799  -0.000743  -0.000000   0.000000  -0.000018
    16  H    0.000000   0.000000  -0.000000   0.002364   0.000258   0.000002
    17  H   -0.000000  -0.000000   0.000000   0.000258  -0.024426  -0.000000
    18  H    0.000014   0.000249  -0.000018   0.000002  -0.000000  -0.023622
    19  H   -0.000087  -0.000005   0.000103  -0.000000   0.000000  -0.000000
    20  H    0.000025   0.000012  -0.000078   0.000000  -0.000000   0.000004
    21  H    0.000001   0.000002  -0.000023   0.000000  -0.000000   0.000000
    22  H    0.000002   0.000009  -0.000061  -0.000000   0.000000   0.000000
    23  H   -0.000000  -0.000004   0.000035  -0.000000   0.000277  -0.000001
    24  H    0.000001   0.000003  -0.000020   0.000000  -0.000240   0.000002
    25  H    0.000112   0.000244   0.000000   0.000000  -0.000000  -0.000010
    26  H   -0.000101  -0.000143   0.000024  -0.000000   0.000000   0.000002
    27  H   -0.000374  -0.008039   0.000023  -0.000000   0.000000  -0.000012
    28  H   -0.000181  -0.016557   0.001312  -0.000000   0.000000  -0.000381
              19         20         21         22         23         24
     1  Br  -0.000000   0.000000   0.000000  -0.000000  -0.000000   0.000000
     2  C    0.000000  -0.000007  -0.000000   0.000001  -0.000023  -0.000062
     3  C   -0.000000  -0.000001   0.000000   0.000000  -0.000033  -0.000072
     4  C   -0.000000   0.000067   0.000001  -0.000020   0.003323   0.008186
     5  C   -0.000036  -0.000538   0.000315   0.000252  -0.013116  -0.014889
     6  C    0.000113  -0.001281  -0.000145  -0.000095   0.001042  -0.003246
     7  C   -0.000006   0.000168   0.000000  -0.000009   0.000058   0.000251
     8  C   -0.002379   0.003203   0.000795   0.000434  -0.001060   0.002189
     9  C    0.003745  -0.006134  -0.003533  -0.000581   0.002606  -0.007488
    10  C   -0.001455   0.002577   0.001421   0.000635  -0.004427   0.009096
    11  C    0.000225  -0.001461  -0.002229  -0.000256   0.000410  -0.023949
    12  O   -0.000086   0.000171   0.000002   0.000002  -0.000001   0.000006
    13  C   -0.000087   0.000025   0.000001   0.000002  -0.000000   0.000001
    14  C   -0.000005   0.000012   0.000002   0.000009  -0.000004   0.000003
    15  O    0.000103  -0.000078  -0.000023  -0.000061   0.000035  -0.000020
    16  H   -0.000000   0.000000   0.000000  -0.000000  -0.000000   0.000000
    17  H    0.000000  -0.000000  -0.000000   0.000000   0.000277  -0.000240
    18  H   -0.000000   0.000004   0.000000   0.000000  -0.000001   0.000002
    19  H    0.001540  -0.000641  -0.000287  -0.000046   0.000027  -0.000102
    20  H   -0.000641   0.002497   0.000379   0.000021  -0.000127   0.001198
    21  H   -0.000287   0.000379   0.003359   0.000216  -0.001591   0.002507
    22  H   -0.000046   0.000021   0.000216  -0.000691  -0.000319   0.000165
    23  H    0.000027  -0.000127  -0.001591  -0.000319   0.045993  -0.018638
    24  H   -0.000102   0.001198   0.002507   0.000165  -0.018638   0.067378
    25  H   -0.000001   0.000001   0.000000   0.000000  -0.000000   0.000000
    26  H    0.000036  -0.000006  -0.000000  -0.000001   0.000000  -0.000000
    27  H    0.000022  -0.000002  -0.000001  -0.000005   0.000000  -0.000000
    28  H    0.000018  -0.000007  -0.000001  -0.000005   0.000003  -0.000001
              25         26         27         28
     1  Br   0.000000  -0.000000   0.000000   0.000022
     2  C    0.000000   0.000000  -0.000003  -0.000615
     3  C   -0.000000   0.000000  -0.000000  -0.000009
     4  C   -0.000000  -0.000000   0.000000   0.000032
     5  C    0.000000  -0.000001  -0.000018  -0.000332
     6  C   -0.000002   0.000010  -0.000010  -0.000946
     7  C   -0.000013   0.000002   0.000163   0.007866
     8  C   -0.000008  -0.000100  -0.000388  -0.000638
     9  C   -0.000017   0.000110   0.000192   0.000415
    10  C    0.000000  -0.000007  -0.000025  -0.000054
    11  C   -0.000000   0.000000   0.000002   0.000013
    12  O   -0.000011  -0.000038  -0.000057  -0.000406
    13  C    0.000112  -0.000101  -0.000374  -0.000181
    14  C    0.000244  -0.000143  -0.008039  -0.016557
    15  O    0.000000   0.000024   0.000023   0.001312
    16  H    0.000000  -0.000000  -0.000000  -0.000000
    17  H   -0.000000   0.000000   0.000000   0.000000
    18  H   -0.000010   0.000002  -0.000012  -0.000381
    19  H   -0.000001   0.000036   0.000022   0.000018
    20  H    0.000001  -0.000006  -0.000002  -0.000007
    21  H    0.000000  -0.000000  -0.000001  -0.000001
    22  H    0.000000  -0.000001  -0.000005  -0.000005
    23  H   -0.000000   0.000000   0.000000   0.000003
    24  H    0.000000  -0.000000  -0.000000  -0.000001
    25  H    0.000069  -0.000078  -0.000071  -0.000252
    26  H   -0.000078   0.000063   0.000179   0.000097
    27  H   -0.000071   0.000179   0.006533   0.003958
    28  H   -0.000252   0.000097   0.003958   0.012672
 Mulliken charges and spin densities:
               1          2
     1  Br  -0.240406  -0.002822
     2  C   -0.111099   0.203261
     3  C   -0.153845  -0.118958
     4  C   -0.259491   0.411729
     5  C   -0.079679   0.198516
     6  C   -0.081545  -0.120315
     7  C   -0.216704   0.436691
     8  C    0.647390   0.007810
     9  C   -0.349660   0.002527
    10  C   -0.382226   0.003805
    11  C   -0.311781  -0.021658
    12  O   -0.666180   0.000354
    13  C   -0.026544  -0.000260
    14  C   -0.029110   0.001755
    15  O   -0.656855  -0.001625
    16  H    0.128269   0.003536
    17  H    0.090248  -0.025136
    18  H    0.115755  -0.025594
    19  H    0.146955   0.000700
    20  H    0.177427   0.000038
    21  H    0.143891   0.001188
    22  H    0.185228  -0.000353
    23  H    0.142232   0.014434
    24  H    0.141433   0.022274
    25  H    0.165898  -0.000034
    26  H    0.144299   0.000047
    27  H    0.152165   0.002068
    28  H    0.183937   0.006023
 Sum of Mulliken charges =  -1.00000   1.00000
 Mulliken charges and spin densities with hydrogens summed into heavy atoms:
               1          2
     1  Br  -0.240406  -0.002822
     2  C   -0.111099   0.203261
     3  C   -0.025576  -0.115422
     4  C   -0.169243   0.386593
     5  C   -0.079679   0.198516
     6  C   -0.081545  -0.120315
     7  C   -0.100949   0.411097
     8  C    0.647390   0.007810
     9  C   -0.025278   0.003265
    10  C   -0.053108   0.004641
    11  C   -0.028116   0.015050
    12  O   -0.666180   0.000354
    13  C    0.283653  -0.000248
    14  C    0.306992   0.009847
    15  O   -0.656855  -0.001625
 Electronic spatial extent (au):  <R**2>=           4509.5283
 Charge=             -1.0000 electrons
 Dipole moment (field-independent basis, Debye):
    X=              3.1370    Y=             -3.9583    Z=              0.3842  Tot=              5.0653
 Quadrupole moment (field-independent basis, Debye-Ang):
   XX=           -125.5966   YY=           -108.4190   ZZ=           -110.0259
   XY=             -3.1676   XZ=             -0.5107   YZ=             -2.8740
 Traceless Quadrupole moment (field-independent basis, Debye-Ang):
   XX=            -10.9161   YY=              6.2615   ZZ=              4.6547
   XY=             -3.1676   XZ=             -0.5107   YZ=             -2.8740
 Octapole moment (field-independent basis, Debye-Ang**2):
  XXX=            -73.1368  YYY=            -78.4418  ZZZ=             -0.3487  XYY=            -27.3827
  XXY=            -18.0969  XXZ=             -1.3459  XZZ=            -32.5700  YZZ=            -14.3698
  YYZ=              5.9684  XYZ=             -5.3345
 Hexadecapole moment (field-independent basis, Debye-Ang**3):
 XXXX=          -3624.8711 YYYY=          -1721.3929 ZZZZ=           -313.8032 XXXY=             -6.4807
 XXXZ=              1.9314 YYYX=            -15.5088 YYYZ=             -2.6157 ZZZX=             15.9764
 ZZZY=             -9.8184 XXYY=           -854.1461 XXZZ=           -645.5773 YYZZ=           -346.9151
 XXYZ=             -3.8120 YYXZ=             14.5112 ZZXY=             15.6230
 N-N= 1.334768689129D+03 E-N=-1.023783747482D+04  KE= 3.164759920253D+03
 There are a total of      636658 grid points.
 ElSum from          density=      137.0000126397
 ElSum from atomic densities=      136.0000387973
 Hirshfeld populations at iteration   1 (CA, CB, DipXYZ):
               1          2          3          4          5
     1  Br  17.606960  17.582654   0.110735   0.049977  -0.002580
     2  C    3.118927   2.952560  -0.044399  -0.044553  -0.005208
     3  C    3.045697   3.042458  -0.018385   0.033031   0.007960
     4  C    3.213800   2.953750   0.015802  -0.013417  -0.004570
     5  C    3.116869   2.959684   0.036900   0.044563  -0.005078
     6  C    3.029968   3.022804   0.052343  -0.032050  -0.004074
     7  C    3.222091   2.948170  -0.003906   0.034663   0.001268
     8  C    2.927276   2.923627   0.009888  -0.034811  -0.005236
     9  C    3.030111   3.028183  -0.019789   0.026175   0.021164
    10  C    3.027592   3.023587  -0.032223  -0.009060  -0.025060
    11  C    3.036078   3.020174   0.013739  -0.029821   0.008844
    12  O    4.091817   4.090965   0.038120   0.008223   0.117759
    13  C    2.988403   2.988278  -0.022601   0.008899  -0.002376
    14  C    2.990509   2.985919   0.012810   0.005444  -0.002206
    15  O    4.095241   4.095445  -0.069021  -0.062670  -0.083830
    16  H    0.493581   0.493927  -0.109601   0.086238   0.022698
    17  H    0.515139   0.495777   0.001291   0.132829   0.019931
    18  H    0.514456   0.493935  -0.012388  -0.129630  -0.028434
    19  H    0.494839   0.494229   0.108991  -0.071278   0.000594
    20  H    0.489047   0.487655  -0.023118   0.033374  -0.132802
    21  H    0.497694   0.496574   0.102353   0.067477  -0.035015
    22  H    0.491877   0.490807   0.025624  -0.026529   0.127810
    23  H    0.501971   0.491469   0.004650   0.083885   0.090090
    24  H    0.508241   0.491773   0.003676   0.058406  -0.101996
    25  H    0.483846   0.483850  -0.079660  -0.110336  -0.031539
    26  H    0.492432   0.492368   0.119191  -0.038690  -0.013360
    27  H    0.487322   0.486057   0.069309  -0.066981   0.093274
    28  H    0.488222   0.483326  -0.116022  -0.030193   0.047202
       Tot  69.000007  68.000006   0.174308  -0.026835   0.075230

 Dip from Atomic Chgs              1.059838  -1.530491   0.075902
         Total Dipole              1.234146  -1.557325   0.151132

 Hirshfeld charges, spin densities, dipoles, and CM5 charges using IRadAn=      5:
              Q-H        S-H        Dx         Dy         Dz        Q-CM5   
     1  Br  -0.189614   0.024306   0.110735   0.049977  -0.002580  -0.174770
     2  C   -0.071487   0.166368  -0.044399  -0.044553  -0.005208  -0.092583
     3  C   -0.088155   0.003239  -0.018385   0.033031   0.007960  -0.141516
     4  C   -0.167551   0.260050   0.015802  -0.013417  -0.004570  -0.220519
     5  C   -0.076553   0.157184   0.036900   0.044563  -0.005078  -0.088137
     6  C   -0.052772   0.007164   0.052343  -0.032050  -0.004074  -0.054890
     7  C   -0.170261   0.273920  -0.003906   0.034663   0.001268  -0.219902
     8  C    0.149097   0.003649   0.009888  -0.034811  -0.005236   0.179649
     9  C   -0.058293   0.001928  -0.019789   0.026175   0.021164  -0.156136
    10  C   -0.051179   0.004005  -0.032223  -0.009060  -0.025060  -0.157371
    11  C   -0.056252   0.015904   0.013739  -0.029821   0.008844  -0.157587
    12  O   -0.182782   0.000853   0.038120   0.008223   0.117759  -0.265037
    13  C    0.023319   0.000125  -0.022601   0.008899  -0.002376  -0.054017
    14  C    0.023572   0.004589   0.012810   0.005444  -0.002206  -0.053357
    15  O   -0.190686  -0.000204  -0.069021  -0.062670  -0.083830  -0.272704
    16  H    0.012492  -0.000346  -0.109601   0.086238   0.022698   0.069000
    17  H   -0.010917   0.019362   0.001291   0.132829   0.019931   0.045383
    18  H   -0.008391   0.020521  -0.012388  -0.129630  -0.028434   0.055675
    19  H    0.010932   0.000609   0.108991  -0.071278   0.000594   0.070967
    20  H    0.023298   0.001392  -0.023118   0.033374  -0.132802   0.081496
    21  H    0.005732   0.001121   0.102353   0.067477  -0.035015   0.059724
    22  H    0.017316   0.001070   0.025624  -0.026529   0.127810   0.077092
    23  H    0.006560   0.010502   0.004650   0.083885   0.090090   0.061385
    24  H   -0.000014   0.016468   0.003676   0.058406  -0.101996   0.054905
    25  H    0.032304  -0.000004  -0.079660  -0.110336  -0.031539   0.094512
    26  H    0.015200   0.000064   0.119191  -0.038690  -0.013360   0.077991
    27  H    0.026621   0.001265   0.069309  -0.066981   0.093274   0.089035
    28  H    0.028453   0.004896  -0.116022  -0.030193   0.047202   0.091701
       Tot  -1.000013   1.000001   0.174308  -0.026835   0.075230  -1.000013
 Hirshfeld charges and spin densities with hydrogens summed into heavy atoms:
              Q-H        S-H       Q-CM5   
     1  Br  -0.189614   0.024306  -0.174770
     2  C   -0.071487   0.166368  -0.092583
     3  C   -0.075664   0.002893  -0.072515
     4  C   -0.178467   0.279412  -0.175137
     5  C   -0.076553   0.157184  -0.088137
     6  C   -0.052772   0.007164  -0.054890
     7  C   -0.178652   0.294441  -0.164226
     8  C    0.149097   0.003649   0.179649
     9  C   -0.024063   0.003929  -0.003673
    10  C   -0.028132   0.006196  -0.020555
    11  C   -0.049706   0.042874  -0.041297
    12  O   -0.182782   0.000853  -0.265037
    13  C    0.070823   0.000185   0.118485
    14  C    0.078645   0.010750   0.127378
    15  O   -0.190686  -0.000204  -0.272704
 
 EQQ= 0.968124358855E-01 EQD=-0.404847505228E-01 EDD=-0.265962744216E-02
 EQQ+QD+DD= 0.536680579205E-01
 
                          Isotropic Fermi Contact Couplings
        Atom                 a.u.       MegaHertz       Gauss      10(-4) cm-1
     1  Br(79)            -0.00282      -3.17093      -1.13147      -1.05771
     2  C(13)              0.01849      20.78505       7.41662       6.93315
     3  C(13)             -0.01797     -20.20474      -7.20956      -6.73958
     4  C(13)              0.03539      39.78792      14.19732      13.27182
     5  C(13)              0.01562      17.55661       6.26464       5.85625
     6  C(13)             -0.01829     -20.55938      -7.33610      -6.85787
     7  C(13)              0.03753      42.18623      15.05310      14.07181
     8  C(13)              0.00195       2.19333       0.78263       0.73162
     9  C(13)             -0.00077      -0.86789      -0.30969      -0.28950
    10  C(13)              0.00091       1.01933       0.36372       0.34001
    11  C(13)             -0.00669      -7.51722      -2.68233      -2.50748
    12  O(17)             -0.00144       0.87274       0.31141       0.29111
    13  C(13)             -0.00014      -0.15242      -0.05439      -0.05084
    14  C(13)              0.00575       6.46871       2.30820       2.15773
    15  O(17)              0.00119      -0.72165      -0.25750      -0.24072
    16  H(1)               0.00067       2.98638       1.06562       0.99615
    17  H(1)              -0.00479     -21.42699      -7.64568      -7.14727
    18  H(1)              -0.00509     -22.73881      -8.11377      -7.58485
    19  H(1)               0.00024       1.06173       0.37885       0.35416
    20  H(1)               0.00029       1.27630       0.45542       0.42573
    21  H(1)               0.00006       0.25039       0.08935       0.08352
    22  H(1)               0.00000       0.01024       0.00365       0.00341
    23  H(1)               0.00316      14.14036       5.04563       4.71672
    24  H(1)               0.00486      21.72150       7.75077       7.24551
    25  H(1)               0.00001       0.04158       0.01484       0.01387
    26  H(1)               0.00001       0.04944       0.01764       0.01649
    27  H(1)               0.00025       1.11495       0.39784       0.37191
    28  H(1)              -0.00013      -0.58716      -0.20951      -0.19586
 --------------------------------------------------------
       Center         ----  Spin Dipole Couplings  ----
                      3XX-RR        3YY-RR        3ZZ-RR
 --------------------------------------------------------
     1   Atom       -0.119787     -0.026523      0.146311
     2   Atom       -0.108515     -0.116445      0.224960
     3   Atom        0.029645      0.030993     -0.060638
     4   Atom       -0.194421     -0.169403      0.363824
     5   Atom       -0.102268     -0.109897      0.212165
     6   Atom        0.030991      0.030890     -0.061881
     7   Atom       -0.208538     -0.172688      0.381226
     8   Atom        0.003864     -0.000067     -0.003797
     9   Atom        0.002490     -0.001227     -0.001263
    10   Atom        0.004646     -0.002481     -0.002165
    11   Atom        0.006634     -0.002279     -0.004355
    12   Atom        0.001173     -0.000411     -0.000762
    13   Atom        0.000630      0.000849     -0.001479
    14   Atom        0.002823     -0.000340     -0.002483
    15   Atom       -0.001009      0.003507     -0.002499
    16   Atom        0.002678      0.002306     -0.004984
    17   Atom       -0.029720      0.031259     -0.001539
    18   Atom       -0.031940      0.033101     -0.001160
    19   Atom        0.001697     -0.000675     -0.001023
    20   Atom        0.002297     -0.001426     -0.000871
    21   Atom        0.002576     -0.001364     -0.001212
    22   Atom        0.003918     -0.002001     -0.001917
    23   Atom        0.003743     -0.000017     -0.003727
    24   Atom        0.003728      0.000089     -0.003817
    25   Atom       -0.000444      0.001568     -0.001124
    26   Atom        0.000461      0.000360     -0.000821
    27   Atom        0.000386      0.000255     -0.000641
    28   Atom        0.001063      0.001325     -0.002388
 --------------------------------------------------------
                        XY            XZ            YZ
 --------------------------------------------------------
     1   Atom       -0.058034     -0.028413     -0.044853
     2   Atom       -0.007128      0.032746     -0.056042
     3   Atom        0.007485     -0.005490      0.015730
     4   Atom       -0.009240      0.043620     -0.093228
     5   Atom       -0.005458      0.032950     -0.034930
     6   Atom        0.007779     -0.002070      0.013805
     7   Atom       -0.007324      0.024518     -0.118642
     8   Atom       -0.001442      0.000077      0.001676
     9   Atom       -0.002250     -0.001715      0.000302
    10   Atom        0.000220     -0.000010      0.000206
    11   Atom        0.003407      0.000007      0.001372
    12   Atom       -0.002192     -0.000465      0.003163
    13   Atom       -0.002118     -0.000321      0.000437
    14   Atom       -0.004526     -0.001002      0.000343
    15   Atom       -0.000265     -0.004136      0.001524
    16   Atom        0.000823     -0.000525      0.001329
    17   Atom        0.000112      0.002126      0.005757
    18   Atom       -0.000005      0.001762      0.005674
    19   Atom       -0.000977     -0.000590      0.000194
    20   Atom       -0.001170     -0.002601      0.000938
    21   Atom        0.000523     -0.000262     -0.000140
    22   Atom       -0.000305      0.001668     -0.000311
    23   Atom        0.005333      0.002206      0.000832
    24   Atom        0.004983     -0.003841     -0.001304
    25   Atom       -0.001513     -0.000224      0.000429
    26   Atom       -0.001230     -0.000179      0.000157
    27   Atom       -0.001537      0.000910     -0.000946
    28   Atom       -0.003255      0.001803     -0.003162
 --------------------------------------------------------


 ---------------------------------------------------------------------------------
              Anisotropic Spin Dipole Couplings in Principal Axis System
 ---------------------------------------------------------------------------------

       Atom             a.u.   MegaHertz   Gauss  10(-4) cm-1        Axes

              Baa    -0.1545   -20.718    -7.393    -6.911  0.8794  0.4517  0.1504
     1 Br(79) Bbb    -0.0035    -0.476    -0.170    -0.159 -0.4730  0.8647  0.1691
              Bcc     0.1580    21.194     7.563     7.070 -0.0537 -0.2199  0.9740
 
              Baa    -0.1257   -16.862    -6.017    -5.625  0.1319  0.9807  0.1444
     2 C(13)  Bbb    -0.1115   -14.963    -5.339    -4.991  0.9866 -0.1157 -0.1153
              Bcc     0.2372    31.825    11.356    10.616  0.0964 -0.1577  0.9828
 
              Baa    -0.0637    -8.553    -3.052    -2.853  0.0713 -0.1689  0.9831
     3 C(13)  Bbb     0.0252     3.378     1.205     1.127  0.7920 -0.5896 -0.1587
              Bcc     0.0386     5.175     1.847     1.726  0.6064  0.7899  0.0917
 
              Baa    -0.1981   -26.584    -9.486    -8.868  0.9874  0.1494 -0.0519
     4 C(13)  Bbb    -0.1850   -24.823    -8.857    -8.280 -0.1382  0.9745  0.1765
              Bcc     0.3831    51.407    18.343    17.148  0.0769 -0.1671  0.9829
 
              Baa    -0.1141   -15.308    -5.462    -5.106  0.2211  0.9718  0.0817
     5 C(13)  Bbb    -0.1053   -14.129    -5.042    -4.713  0.9698 -0.2102 -0.1238
              Bcc     0.2194    29.437    10.504     9.819  0.1031 -0.1066  0.9889
 
              Baa    -0.0640    -8.588    -3.064    -2.865  0.0335 -0.1466  0.9886
     6 C(13)  Bbb     0.0245     3.294     1.175     1.099  0.7482 -0.6521 -0.1221
              Bcc     0.0394     5.294     1.889     1.766  0.6626  0.7438  0.0878
 
              Baa    -0.2100   -28.178   -10.055    -9.399  0.9845  0.1755 -0.0056
     7 C(13)  Bbb    -0.1966   -26.387    -9.416    -8.802 -0.1706  0.9638  0.2051
              Bcc     0.4066    54.565    19.470    18.201  0.0414 -0.2010  0.9787
 
              Baa    -0.0045    -0.602    -0.215    -0.201 -0.0733 -0.3747  0.9242
     8 C(13)  Bbb     0.0001     0.016     0.006     0.005  0.3260  0.8668  0.3773
              Bcc     0.0044     0.585     0.209     0.195  0.9425 -0.3290 -0.0586
 
              Baa    -0.0025    -0.341    -0.122    -0.114  0.4893  0.7254  0.4842
     9 C(13)  Bbb    -0.0015    -0.206    -0.074    -0.069  0.0316 -0.5696  0.8213
              Bcc     0.0041     0.548     0.195     0.183  0.8716 -0.3866 -0.3016
 
              Baa    -0.0026    -0.347    -0.124    -0.116 -0.0279  0.8987 -0.4377
    10 C(13)  Bbb    -0.0021    -0.277    -0.099    -0.092 -0.0129  0.4375  0.8991
              Bcc     0.0047     0.624     0.223     0.208  0.9995  0.0307 -0.0006
 
              Baa    -0.0053    -0.709    -0.253    -0.236  0.1576 -0.5528  0.8183
    11 C(13)  Bbb    -0.0025    -0.339    -0.121    -0.113 -0.2860  0.7675  0.5737
              Bcc     0.0078     1.047     0.374     0.349  0.9452  0.3245  0.0371
 
              Baa    -0.0040     0.293     0.104     0.098  0.2423  0.7158 -0.6549
    12 O(17)  Bbb     0.0001    -0.005    -0.002    -0.002  0.7729  0.2656  0.5763
              Bcc     0.0040    -0.288    -0.103    -0.096 -0.5864  0.6458  0.4889
 
              Baa    -0.0016    -0.211    -0.075    -0.070 -0.1689 -0.3167  0.9334
    13 C(13)  Bbb    -0.0014    -0.182    -0.065    -0.061  0.7115  0.6162  0.3378
              Bcc     0.0029     0.393     0.140     0.131 -0.6821  0.7211  0.1213
 
              Baa    -0.0036    -0.488    -0.174    -0.163  0.5798  0.7670  0.2748
    14 C(13)  Bbb    -0.0025    -0.338    -0.121    -0.113 -0.0675 -0.2909  0.9544
              Bcc     0.0062     0.826     0.295     0.276  0.8119 -0.5719 -0.1169
 
              Baa    -0.0061     0.439     0.157     0.146  0.6265 -0.1057  0.7723
    15 O(17)  Bbb     0.0017    -0.125    -0.044    -0.042  0.6953  0.5235 -0.4924
              Bcc     0.0043    -0.314    -0.112    -0.105 -0.3523  0.8454  0.4014
 
              Baa    -0.0053    -2.814    -1.004    -0.939  0.0835 -0.1809  0.9800
    16 H(1)   Bbb     0.0019     1.022     0.365     0.341 -0.6559  0.7304  0.1907
              Bcc     0.0034     1.793     0.640     0.598  0.7502  0.6587  0.0577
 
              Baa    -0.0299   -15.943    -5.689    -5.318  0.9971  0.0053 -0.0759
    17 H(1)   Bbb    -0.0024    -1.261    -0.450    -0.421  0.0757 -0.1685  0.9828
              Bcc     0.0322    17.204     6.139     5.739  0.0076  0.9857  0.1685
 
              Baa    -0.0320   -17.096    -6.100    -5.703  0.9983  0.0051 -0.0579
    18 H(1)   Bbb    -0.0020    -1.054    -0.376    -0.351  0.0580 -0.1594  0.9855
              Bcc     0.0340    18.150     6.476     6.054  0.0042  0.9872  0.1595
 
              Baa    -0.0011    -0.611    -0.218    -0.204  0.2230  0.0611  0.9729
    19 H(1)   Bbb    -0.0010    -0.546    -0.195    -0.182  0.3099  0.9418 -0.1302
              Bcc     0.0022     1.157     0.413     0.386  0.9242 -0.3306 -0.1911
 
              Baa    -0.0024    -1.294    -0.462    -0.432  0.3824 -0.3539  0.8535
    20 H(1)   Bbb    -0.0017    -0.921    -0.329    -0.307  0.3897  0.8994  0.1983
              Bcc     0.0042     2.215     0.790     0.739  0.8378 -0.2567 -0.4818
 
              Baa    -0.0015    -0.788    -0.281    -0.263 -0.0927  0.9153  0.3920
    21 H(1)   Bbb    -0.0012    -0.633    -0.226    -0.211  0.1167 -0.3810  0.9172
              Bcc     0.0027     1.421     0.507     0.474  0.9888  0.1308 -0.0715
 
              Baa    -0.0025    -1.318    -0.470    -0.440 -0.2065  0.4439  0.8720
    22 H(1)   Bbb    -0.0019    -1.020    -0.364    -0.340  0.1658  0.8942 -0.4159
              Bcc     0.0044     2.339     0.835     0.780  0.9643 -0.0586  0.2582
 
              Baa    -0.0046    -2.453    -0.875    -0.818 -0.4618  0.3933  0.7950
    23 H(1)   Bbb    -0.0034    -1.797    -0.641    -0.599 -0.3689  0.7299 -0.5755
              Bcc     0.0080     4.250     1.516     1.418  0.8066  0.5590  0.1920
 
              Baa    -0.0056    -2.982    -1.064    -0.995  0.4679 -0.2138  0.8575
    24 H(1)   Bbb    -0.0029    -1.532    -0.547    -0.511 -0.3823  0.8258  0.4145
              Bcc     0.0085     4.514     1.611     1.506  0.7968  0.5218 -0.3047
 
              Baa    -0.0013    -0.670    -0.239    -0.223  0.8732  0.4804 -0.0826
    25 H(1)   Bbb    -0.0012    -0.634    -0.226    -0.212  0.1367 -0.0787  0.9875
              Bcc     0.0024     1.304     0.465     0.435 -0.4679  0.8735  0.1344
 
              Baa    -0.0008    -0.453    -0.162    -0.151  0.3269  0.2135  0.9206
    26 H(1)   Bbb    -0.0008    -0.436    -0.155    -0.145  0.6140  0.6925 -0.3787
              Bcc     0.0017     0.888     0.317     0.296  0.7184 -0.6891 -0.0953
 
              Baa    -0.0013    -0.672    -0.240    -0.224  0.3461  0.7238  0.5970
    27 H(1)   Bbb    -0.0012    -0.619    -0.221    -0.207 -0.6671 -0.2575  0.6990
              Bcc     0.0024     1.292     0.461     0.431  0.6597 -0.6402  0.3937
 
              Baa    -0.0042    -2.241    -0.799    -0.747  0.0156  0.5037  0.8638
    28 H(1)   Bbb    -0.0018    -0.940    -0.335    -0.314  0.7962  0.5163 -0.3155
              Bcc     0.0060     3.181     1.135     1.061 -0.6049  0.6926 -0.3929
 

 ---------------------------------------------------------------------------------

 Running external command "gaunbo6 R"
         input file       "/home/rpaton/arbr500/midi/fukui/Gau-2439872.EIn"
         output file      "/home/rpaton/arbr500/midi/fukui/Gau-2439872.EOu"
         message file     "/home/rpaton/arbr500/midi/fukui/Gau-2439872.EMs"
         fchk file        "/home/rpaton/arbr500/midi/fukui/Gau-2439872.EFC"
         mat. el file     "/home/rpaton/arbr500/midi/fukui/Gau-2439872.EUF"

 Writing WrtUnf unformatted file "/home/rpaton/arbr500/midi/fukui/Gau-2439872.EUF"
 Gaussian matrix elements                                         Version   2 NLab=11 Len12L=8 Len4L=8
 Write SHELL TO ATOM MAP                   from file      0 offset           0 length                 109 to matrix element file.
 Write SHELL TYPES                         from file      0 offset           0 length                 109 to matrix element file.
 Write NUMBER OF PRIMITIVES PER SHELL      from file      0 offset           0 length                 109 to matrix element file.
 Write PRIMITIVE EXPONENTS                 from file      0 offset           0 length                 192 to matrix element file.
 Write CONTRACTION COEFFICIENTS            from file      0 offset           0 length                 192 to matrix element file.
 Write P(S=P) CONTRACTION COEFFICIENTS     from file      0 offset           0 length                 192 to matrix element file.
 Write COORDINATES OF EACH SHELL           from file      0 offset           0 length                 327 to matrix element file.
 Write BONDS PER ATOM                      from file      0 offset           0 length                  28 to matrix element file.
 Write BONDED ATOMS                        from file      0 offset           0 length                  60 to matrix element file.
 Write BOND TYPES                          from file      0 offset           0 length                  60 to matrix element file.
 Write ONIOM CHARGE/MULT                   from file      0 offset           0 length                  32 to matrix element file.
 Write ONIOM ATOM LAYERS                   from file      0 offset           0 length                  28 to matrix element file.
 Write ONIOM ATOM MODIFIERS                from file      0 offset           0 length                  28 to matrix element file.
 Write ONIOM ATOM TYPES                    from file      0 offset           0 length                  28 to matrix element file.
 Write ONIOM LINK ATOMS                    from file      0 offset           0 length                  28 to matrix element file.
 Write ONIOM LINK CHARGES                  from file      0 offset           0 length                  28 to matrix element file.
 Write ONIOM LINK DISTANCES                from file      0 offset           0 length                 112 to matrix element file.
 Write SYMINF INTS                         from file      0 offset           0 length                  26 to matrix element file.
 Write ROTTR TO SO                         from file      0 offset           0 length                  12 to matrix element file.
 Write GAUSSIAN SCALARS                    from file    501 offset           0 to matrix element file.
 Write OPTIMIZATION FLAGS                  from file      0 offset           0 length                  28 to matrix element file.
 Write INTEGER ISO                         from file      0 offset           0 length                  28 to matrix element file.
 Write INTEGER SPIN                        from file      0 offset           0 length                  28 to matrix element file.
 Write REAL ZEFFECTIVE                     from file      0 offset           0 length                  28 to matrix element file.
 Write REAL QUADRUPOLEMOMENT               from file      0 offset           0 length                  28 to matrix element file.
 Write REAL GFACTOR                        from file      0 offset           0 length                  28 to matrix element file.
 Write REAL ZNUCLEAR                       from file      0 offset           0 length                  28 to matrix element file.
 Write MULLIKEN CHARGES                    from file      0 offset           0 length                  28 to matrix element file.
 Write TYPE 6 CHARGES                      from file      0 offset           0 length                  28 to matrix element file.
 Write TYPE 7 CHARGES                      from file      0 offset           0 length                  28 to matrix element file.
 Write NUCLEAR GRADIENT                    from file  10584 offset           0 length                  84 to matrix element file.
 Array NUCLEAR FORCE CONSTANTS              on  file  10585 does not exist.
 Write ELECTRIC DIPOLE MOMENT              from file      0 offset           0 length                   3 to matrix element file.
 Write NON-ADIABATIC COUPLING              from file  10810 offset           0 length                  84 to matrix element file.
 Write FINITE EM FIELD                     from file  10521 offset           0 length                  35 to matrix element file.
 Write OVERLAP                             from file  10514 offset           0 length               17955 to matrix element file.
 Write CORE HAMILTONIAN ALPHA              from file  10515 offset           0 length               17955 to matrix element file.
 Write CORE HAMILTONIAN BETA               from file  10515 offset       17955 length               17955 to matrix element file.
 Write KINETIC ENERGY                      from file  10516 offset           0 length               17955 to matrix element file.
 Write ORTHOGONAL BASIS                    from file  10685 offset           0 length               35721 to matrix element file.
 Write DIPOLE INTEGRALS                    from file  10518 offset           0 length               53865 to matrix element file.
 Array DIP VEL INTEGRALS                    on  file  10572 does not exist.
 Array R X DEL INTEGRALS                    on  file  10572 does not exist.
 Write ALPHA ORBITAL ENERGIES              from file      0 offset           0 length                 189 to matrix element file.
 Write BETA ORBITAL ENERGIES               from file      0 offset           0 length                 189 to matrix element file.
 Write ALPHA MO COEFFICIENTS               from file  10524 offset           0 length               35721 to matrix element file.
 Write BETA MO COEFFICIENTS                from file  10526 offset           0 length               35721 to matrix element file.
 Write ALPHA DENSITY MATRIX                from file      0 offset           0 length               17955 to matrix element file.
 Write BETA DENSITY MATRIX                 from file      0 offset           0 length               17955 to matrix element file.
 Write ALPHA FOCK MATRIX                   from file  10536 offset           0 length               17955 to matrix element file.
 Write BETA FOCK MATRIX                    from file  10538 offset           0 length               17955 to matrix element file.
 Write ENERGY-WEIGHTED DENSITY             from file  10571 offset           0 length               17955 to matrix element file.
 Write ALPHA SCF DENSITY MATRIX            from file      0 offset           0 length               17955 to matrix element file.
 Write BETA SCF DENSITY MATRIX             from file      0 offset           0 length               17955 to matrix element file.
 No 2e integrals to process.
 Perform NBO analysis...

 *********************************** NBO 7.0 ***********************************
             N A T U R A L   A T O M I C   O R B I T A L   A N D
          N A T U R A L   B O N D   O R B I T A L   A N A L Y S I S
 **************************** Robert Paton (I101709) ***************************
  (c) Copyright 1996-2019 Board of Regents of the University of Wisconsin System
      on behalf of the Theoretical Chemistry Institute.  All rights reserved.

          Cite this program [NBO 7.0.5 (4-Jun-2019)] as:

          NBO 7.0.  E. D. Glendening, J. K. Badenhoop, A. E. Reed,
          J. E. Carpenter, J. A. Bohmann, C. M. Morales, P. Karafiloglou,
          C. R. Landis, and F. Weinhold, Theoretical Chemistry Institute,
[...]
   61. BD ( 1) C 11- H 24      80. BD*( 1) C  5- C 11      0.37    1.08   0.025
   61. BD ( 1) C 11- H 24      92. BD*( 1) C 10- H 22      1.14    1.06   0.044
   61. BD ( 1) C 11- H 24     125. RY ( 3) C  5            0.35    1.60   0.030
   62. BD ( 1) O 12- C 13      82. BD*( 1) C  6- C  8      0.42    1.31   0.029
   62. BD ( 1) O 12- C 13      86. BD*( 1) C  8- O 15      1.78    1.14   0.057
   62. BD ( 1) O 12- C 13      99. BD*( 1) C 14- O 15      1.01    1.13   0.043
   62. BD ( 1) O 12- C 13     100. BD*( 1) C 14- H 27      0.71    1.29   0.038
   62. BD ( 1) O 12- C 13     135. RY ( 1) C  8            0.45    2.00   0.038
   63. BD ( 1) C 13- C 14      97. BD*( 1) C 13- H 25      0.29    1.18   0.023
   63. BD ( 1) C 13- C 14     100. BD*( 1) C 14- H 27      0.25    1.18   0.022
   63. BD ( 1) C 13- C 14     137. RY ( 3) C  8            0.60    1.94   0.043
   64. BD ( 1) C 13- H 25      85. BD*( 1) C  8- O 12      0.65    0.98   0.032
   64. BD ( 1) C 13- H 25      99. BD*( 1) C 14- O 15      0.95    0.96   0.038
   65. BD ( 1) C 13- H 26     101. BD*( 1) C 14- H 28      0.90    1.12   0.040
   65. BD ( 1) C 13- H 26     165. RY ( 2) C 14            0.36    1.73   0.032
   66. BD ( 1) C 14- O 15      84. BD*( 1) C  8- C  9      0.58    1.25   0.034
   66. BD ( 1) C 14- O 15      85. BD*( 1) C  8- O 12      1.53    1.15   0.053
   66. BD ( 1) C 14- O 15      95. BD*( 1) O 12- C 13      1.07    1.12   0.044
   66. BD ( 1) C 14- O 15      97. BD*( 1) C 13- H 25      0.74    1.30   0.039
   66. BD ( 1) C 14- O 15     135. RY ( 1) C  8            0.59    2.00   0.043
   67. BD ( 1) C 14- H 27      86. BD*( 1) C  8- O 15      0.72    0.96   0.033
   67. BD ( 1) C 14- H 27      95. BD*( 1) O 12- C 13      1.01    0.95   0.039
   68. BD ( 1) C 14- H 28      98. BD*( 1) C 13- H 26      0.97    1.09   0.041
   68. BD ( 1) C 14- H 28     161. RY ( 2) C 13            0.34    1.67   0.030


 NATURAL BOND ORBITALS (Summary):

                                                     Principal Delocalizations
           NBO                 Occupancy    Energy   (geminal,vicinal,remote)
 ===============================================================================
 Molecular unit  1  (C12H13O2Br)
 ------ Lewis --------------------------------------
    1. CR ( 1)Br  1             1.00000   -21.57107
    2. CR ( 2)Br  1             1.00000  -449.88549
    3. CR ( 3)Br  1             1.00000   -79.64658
    4. CR ( 4)Br  1             1.00000    -6.90250
    5. CR ( 5)Br  1             0.99999   -55.59355
    6. CR ( 6)Br  1             1.00000    -6.89578
    7. CR ( 7)Br  1             1.00000   -55.59187
    8. CR ( 8)Br  1             1.00000    -6.89267
    9. CR ( 9)Br  1             1.00000   -55.59103
   10. CR (10)Br  1             0.99975    -2.60021  104(g)
   11. CR (11)Br  1             0.99995    -2.59767
   12. CR (12)Br  1             0.99998    -2.59243
   13. CR (13)Br  1             0.99981    -2.60011
   14. CR (14)Br  1             0.99990    -2.59347
   15. CR ( 1) C  2             0.99994   -10.06917
   16. CR ( 1) C  3             0.99993   -10.05013
   17. CR ( 1) C  4             0.99993   -10.00597
   18. CR ( 1) C  5             0.99994   -10.03382
   19. CR ( 1) C  6             0.99994   -10.05234
   20. CR ( 1) C  7             0.99992   -10.00617
   21. CR ( 1) C  8             0.99988   -10.18992
   22. CR ( 1) C  9             0.99988   -10.09435  141(g)
   23. CR ( 1) C 10             0.99988   -10.09496  146(g)
   24. CR ( 1) C 11             0.99988   -10.08031
   25. CR ( 1) O 12             0.99993   -19.02470  153(g)
   26. CR ( 1) C 13             0.99989   -10.16615
   27. CR ( 1) C 14             0.99989   -10.15979
   28. CR ( 1) O 15             0.99993   -19.02050  170(g)
   29. LP ( 1)Br  1             0.99883    -0.58567  112(v)
   30. LP ( 2)Br  1             0.99304    -0.19890  70(v),71(v),111(v)
   31. LP ( 3)Br  1             0.98113    -0.19474  72(v)
   32. LP ( 1) O 12             0.98166    -0.45080  86(v),135(v),96(v),97(v)
                                                     160(v),82(v)
   33. LP ( 2) O 12             0.95920    -0.22498  98(v),84(v),82(v),96(v)
                                                     97(v),87(r),86(v),99(r)
                                                     83(r),100(r)
   34. LP ( 1) O 15             0.98189    -0.45502  85(v),135(v),100(v),164(v)
                                                     96(v),137(v),84(v),101(v)
                                                     92(r)
   35. LP ( 2) O 15             0.95865    -0.22330  101(v),82(v),85(v),96(v)
                                                     84(v),79(r),100(v),97(r)
                                                     95(r),89(r)
   36. BD ( 1)Br  1- C  2       0.99473    -0.44809  115(v),81(v),73(v),131(v)
                                                     132(v)
   37. BD ( 1) C  2- C  3       0.98900    -0.50576  71(g),73(g),132(v),120(v)
                                                     83(v),75(g),77(v),119(v)
   38. BD ( 1) C  2- C  7       0.98795    -0.49542  70(g),81(g),83(g),82(v)
                                                     128(v),75(v),115(v),127(v)
                                                     116(v)
   39. BD ( 2) C  2- C  7       0.82286    -0.09857  74(v),79(v),102(v),118(v)
   40. BD ( 1) C  3- C  4       0.98467    -0.47870  69(v),76(g),70(g),124(v)
                                                     80(v),111(v),77(g),75(g)
   41. BD ( 2) C  3- C  4       0.83989    -0.10382  79(v),72(v),113(v)
   42. BD ( 1) C  3- H 16       0.99192    -0.39679  76(v),71(v),112(v),119(v)
                                                     73(g),69(v),70(g)
   43. BD ( 1) C  4- C  5       0.98510    -0.46641  78(g),73(g),82(v),116(v)
                                                     80(g),127(v),77(g),75(v)
                                                     147(v),90(v)
   44. BD ( 1) C  4- H 17       0.99128    -0.36601  78(v),70(v),115(v),123(v)
                                                     76(g),73(g),80(v)
   45. BD ( 1) C  5- C  6       0.98189    -0.47768  81(g),76(g),80(g),82(g)
                                                     77(v),83(v),131(v),85(v)
                                                     119(v),135(v),136(v),147(v)
                                                     120(v)
   46. BD ( 2) C  5- C  6       0.83551    -0.10371  72(v),74(v),86(v),94(v)
                                                     85(v),93(v),134(v),122(v)
                                                     84(v)
   47. BD ( 1) C  5- C 11       0.98851    -0.43660  78(g),76(g),119(v),128(v)
                                                     81(v),73(v),91(v),93(g)
                                                     90(g),94(g),143(v),185(v)
                                                     184(v)
   48. BD ( 1) C  6- C  7       0.98052    -0.47138  78(g),69(v),71(g),80(v)
                                                     83(g),82(g),123(v),111(v)
                                                     112(v),137(v),85(v),84(v)
                                                     135(v)
   49. BD ( 1) C  6- C  8       0.98684    -0.47802  81(g),78(g),131(v),123(v)
                                                     71(v),76(v),88(v),139(v)
                                                     84(g),169(v),95(v),124(v)
                                                     151(v)
   50. BD ( 1) C  7- H 18       0.98987    -0.36216  78(v),70(v),81(g),112(v)
                                                     71(g),128(v),69(v),82(v)
                                                     127(v)
   51. BD ( 1) C  8- C  9       0.99049    -0.49965  127(v),143(v),82(g),91(v)
                                                     81(v),168(v),87(g),99(v)
                                                     88(g),89(g),180(v)
   52. BD ( 1) C  8- O 12       0.99426    -0.67099  97(v),86(g),87(v),78(v)
                                                     96(v),161(v)
   53. BD ( 1) C  8- O 15       0.99223    -0.65373  79(v),100(v),89(v),85(g)
                                                     96(v),165(v)
   54. BD ( 1) C  9- C 10       0.99052    -0.47000  85(v),93(v),148(v),84(g)
                                                     90(g),136(v),88(g),89(g)
                                                     91(g),147(v),92(g)
   55. BD ( 1) C  9- H 19       0.99213    -0.42234  82(v),90(v),86(v),85(v)
                                                     137(v)
   56. BD ( 1) C  9- H 20       0.99036    -0.41934  86(v),92(v),85(v),135(v)
   57. BD ( 1) C 10- C 11       0.99326    -0.45963  88(v),76(v),80(g),139(v)
                                                     87(g),124(v),91(g),92(g)
                                                     93(g),182(v),94(g)
   58. BD ( 1) C 10- H 21       0.99365    -0.42127  84(v),80(v),149(v)
   59. BD ( 1) C 10- H 22       0.99265    -0.41230  89(v),94(v)
   60. BD ( 1) C 11- H 23       0.99135    -0.39896  87(v),79(v),78(v),80(g)
                                                     125(v)
   61. BD ( 1) C 11- H 24       0.98847    -0.39318  79(v),92(v),80(g),125(v)
   62. BD ( 1) O 12- C 13       0.99168    -0.64680  86(v),99(v),100(v),135(v)
                                                     82(v)
   63. BD ( 1) C 13- C 14       0.99767    -0.53261  137(r),97(g),100(g)
   64. BD ( 1) C 13- H 25       0.99433    -0.47572  99(v),85(v)
   65. BD ( 1) C 13- H 26       0.99622    -0.47067  101(v),165(v)
   66. BD ( 1) C 14- O 15       0.99172    -0.64814  85(v),95(v),97(v),135(v)
                                                     84(v)
   67. BD ( 1) C 14- H 27       0.99379    -0.47345  95(v),86(v)
   68. BD ( 1) C 14- H 28       0.99561    -0.45677  98(v),161(v)
 ------ non-Lewis ----------------------------------
   69. BD*( 1)Br  1- C  2       0.01500     0.37018
   70. BD*( 1) C  2- C  3       0.01147     0.86503
   71. BD*( 1) C  2- C  7       0.01089     0.89159
   72. BD*( 2) C  2- C  7       0.15951     0.29215
   73. BD*( 1) C  3- C  4       0.00809     0.89258
   74. BD*( 2) C  3- C  4       0.15922     0.28743
   75. BD*( 1) C  3- H 16       0.00598     0.74027
   76. BD*( 1) C  4- C  5       0.01050     0.89405
   77. BD*( 1) C  4- H 17       0.00603     0.74590
   78. BD*( 1) C  5- C  6       0.01395     0.88541
   79. BD*( 2) C  5- C  6       0.18856     0.28551
   80. BD*( 1) C  5- C 11       0.01051     0.68670
   81. BD*( 1) C  6- C  7       0.01124     0.89255
   82. BD*( 1) C  6- C  8       0.02376     0.66020
   83. BD*( 1) C  7- H 18       0.00787     0.75967
   84. BD*( 1) C  8- C  9       0.01922     0.60144
   85. BD*( 1) C  8- O 12       0.02813     0.50226
   86. BD*( 1) C  8- O 15       0.03602     0.49000
   87. BD*( 1) C  9- C 10       0.00765     0.59144
   88. BD*( 1) C  9- H 19       0.00502     0.65964
   89. BD*( 1) C  9- H 20       0.00577     0.66143
   90. BD*( 1) C 10- C 11       0.00561     0.60716
   91. BD*( 1) C 10- H 21       0.00479     0.66171
   92. BD*( 1) C 10- H 22       0.00672     0.67063
   93. BD*( 1) C 11- H 23       0.00504     0.67702
   94. BD*( 1) C 11- H 24       0.00664     0.66607
   95. BD*( 1) O 12- C 13       0.00924     0.47663
   96. BD*( 1) C 13- C 14       0.01411     0.55223
   97. BD*( 1) C 13- H 25       0.00843     0.64786
   98. BD*( 1) C 13- H 26       0.01415     0.62969
   99. BD*( 1) C 14- O 15       0.00861     0.48758
  100. BD*( 1) C 14- H 27       0.00769     0.64819
  101. BD*( 1) C 14- H 28       0.01387     0.65147
  102. RY ( 1)Br  1             0.00144     0.85836
  103. RY ( 2)Br  1             0.00055     0.91752
  104. RY ( 3)Br  1             0.00030     1.24753
  105. RY ( 4)Br  1             0.00019     1.04509
  106. RY ( 5)Br  1             0.00006     1.09726
  107. RY ( 6)Br  1             0.00003     0.81208
  108. RY ( 7)Br  1             0.00002     0.83955
  109. RY ( 8)Br  1             0.00001     0.92274
  110. RY ( 9)Br  1             0.00000     0.86979
  111. RY ( 1) C  2             0.00263     1.29770
  112. RY ( 2) C  2             0.00231     1.56632
  113. RY ( 3) C  2             0.00024     1.16138
  114. RY ( 4) C  2             0.00020     0.90905
  115. RY ( 1) C  3             0.00241     1.49053
  116. RY ( 2) C  3             0.00176     1.25168
  117. RY ( 3) C  3             0.00021     0.90748
  118. RY ( 4) C  3             0.00015     1.12418
  119. RY ( 1) C  4             0.00225     1.58820
  120. RY ( 2) C  4             0.00151     1.25631
  121. RY ( 3) C  4             0.00019     0.94118
  122. RY ( 4) C  4             0.00010     1.16190
  123. RY ( 1) C  5             0.00244     1.63174
  124. RY ( 2) C  5             0.00192     1.57647
  125. RY ( 3) C  5             0.00073     1.20863
  126. RY ( 4) C  5             0.00026     0.99722
  127. RY ( 1) C  6             0.00280     1.59292
  128. RY ( 2) C  6             0.00216     1.58179
  129. RY ( 3) C  6             0.00071     1.15023
  130. RY ( 4) C  6             0.00051     1.15499
  131. RY ( 1) C  7             0.00298     1.51911
  132. RY ( 2) C  7             0.00214     1.31477
  133. RY ( 3) C  7             0.00032     0.94741
  134. RY ( 4) C  7             0.00020     1.17530
  135. RY ( 1) C  8             0.00476     1.35217
  136. RY ( 2) C  8             0.00265     1.35237
  137. RY ( 3) C  8             0.00227     1.40489
  138. RY ( 4) C  8             0.00075     1.39337
  139. RY ( 1) C  9             0.00178     1.35865
  140. RY ( 2) C  9             0.00077     1.16987
  141. RY ( 3) C  9             0.00036     1.35656
  142. RY ( 4) C  9             0.00027     1.09492
  143. RY ( 1) C 10             0.00144     1.39376
  144. RY ( 2) C 10             0.00039     1.15007
  145. RY ( 3) C 10             0.00031     1.11815
  146. RY ( 4) C 10             0.00015     1.34300
  147. RY ( 1) C 11             0.00137     1.27624
  148. RY ( 2) C 11             0.00076     1.24222
  149. RY ( 3) C 11             0.00050     1.17537
  150. RY ( 4) C 11             0.00014     1.31947
  151. RY ( 1) O 12             0.00086     1.92469
  152. RY ( 2) O 12             0.00062     1.73754
  153. RY ( 3) O 12             0.00022     2.34629
  154. RY ( 4) O 12             0.00012     2.25007
  155. RY ( 5) O 12             0.00009     2.44818
  156. RY ( 6) O 12             0.00005     2.22836
  157. RY ( 7) O 12             0.00003     2.18243
  158. RY ( 8) O 12             0.00002     2.06561
  159. RY ( 9) O 12             0.00001     2.17799
  160. RY ( 1) C 13             0.00166     1.07398
  161. RY ( 2) C 13             0.00098     1.21171
  162. RY ( 3) C 13             0.00032     1.09862
  163. RY ( 4) C 13             0.00021     1.15440
  164. RY ( 1) C 14             0.00159     1.06977
  165. RY ( 2) C 14             0.00097     1.25813
  166. RY ( 3) C 14             0.00038     1.08978
  167. RY ( 4) C 14             0.00022     1.15167
  168. RY ( 1) O 15             0.00105     1.82783
  169. RY ( 2) O 15             0.00071     1.88093
  170. RY ( 3) O 15             0.00024     2.32734
  171. RY ( 4) O 15             0.00015     2.31088
  172. RY ( 5) O 15             0.00012     2.40754
  173. RY ( 6) O 15             0.00006     2.16532
  174. RY ( 7) O 15             0.00002     2.19831
  175. RY ( 8) O 15             0.00001     2.09613
  176. RY ( 9) O 15             0.00001     2.17265
  177. RY ( 1) H 16             0.00068     0.78189
  178. RY ( 1) H 17             0.00047     0.82368
  179. RY ( 1) H 18             0.00173     0.87888
  180. RY ( 1) H 19             0.00176     0.76589
  181. RY ( 1) H 20             0.00103     0.77589
  182. RY ( 1) H 21             0.00081     0.74823
  183. RY ( 1) H 22             0.00166     0.79340
  184. RY ( 1) H 23             0.00076     0.77865
  185. RY ( 1) H 24             0.00086     0.78280
  186. RY ( 1) H 25             0.00072     0.70088
  187. RY ( 1) H 26             0.00144     0.71912
  188. RY ( 1) H 27             0.00070     0.69493
  189. RY ( 1) H 28             0.00148     0.77343
          -------------------------------
                 Total Lewis   67.07346  ( 98.6374%)
           Valence non-Lewis    0.84930  (  1.2490%)
           Rydberg non-Lewis    0.07723  (  0.1136%)
          -------------------------------
               Total unit  1   68.00000  (100.0000%)
              Charge unit  1    0.00000

 $CHOOSE
  ALPHA
   LONE 1 3 4 1 7 1 12 2 15 2 END
   BOND S 1 2 D 2 3 S 2 7 S 3 4 S 3 16 S 4 5 S 4 17 D 5 6 S 5 11 S 6 7 S 6 8
        S 7 18 S 8 9 S 8 12 S 8 15 S 9 10 S 9 19 S 9 20 S 10 11 S 10 21 S 10 22
        S 11 23 S 11 24 S 12 13 S 13 14 S 13 25 S 13 26 S 14 15 S 14 27 S 14 28
        END
  END
  BETA
   LONE 1 3 12 2 15 2 END
   BOND S 1 2 S 2 3 D 2 7 D 3 4 S 3 16 S 4 5 S 4 17 D 5 6 S 5 11 S 6 7 S 6 8
        S 7 18 S 8 9 S 8 12 S 8 15 S 9 10 S 9 19 S 9 20 S 10 11 S 10 21 S 10 22
        S 11 23 S 11 24 S 12 13 S 13 14 S 13 25 S 13 26 S 14 15 S 14 27 S 14 28
        END
  END
 $END

 NBO analysis completed in 1.03 CPU seconds (1 wall second)
 Maximum scratch memory used by NBO was 774392 words (5.91 MB)
 Maximum scratch memory used by G16NBO was 80940 words (0.62 MB)

 Opening RunExU unformatted file "/home/rpaton/arbr500/midi/fukui/Gau-2439872.EUF"
 Read unf file /home/rpaton/arbr500/midi/fukui/Gau-2439872.EUF:
 Label Gaussian matrix elements                                         IVers= 2 NLab= 2 Version=ES64L-G16RevC.01
 Title arbr42_wb97xd_redcreated by GaussianPrep                        
 NAtoms=    28 NBasis=   189 NBsUse=   189 ICharg=    -1 Multip=     2 NE=   137 Len12L=8 Len4L=8 IOpCl= 1 ICGU=112
 GAUSSIAN SCALARS                    NI= 1 NR= 1 NTot=       1 LenBuf=    2 NRI=1 N=    1000
 NPA CHARGES                         NI= 0 NR= 1 NTot=      28 LenBuf= 2048 NRI=1 N=      28
 Recovered energy= -3173.78015496     dipole=      1.234193201531     -1.557327632264      0.151151631892
 Unable to Open any file for archive entry.
 1\1\GINC-DYNAMO\SP\UwB97XD\MIDIx\C12H13Br1O2(1-,2)\RPATON\30-Sep-2024\
 0\\# pop=(nbo6,hirshfeld) wb97xd/midix\\arbr42_wb97xd_redcreated by Ga
 ussianPrep\\-1,2\Br,0,-3.428086,-0.473102,-0.056927\C,0,-1.758628,0.43
 068,0.00655\C,0,-1.721726,1.798121,0.246126\C,0,-0.49474,2.446975,0.26
 0833\C,0,0.69824,1.753207,0.060461\C,0,0.641628,0.373279,-0.143968\C,0
 ,-0.586783,-0.278374,-0.194909\C,0,1.916216,-0.447422,-0.255539\C,0,3.
 080987,0.377608,-0.793501\C,0,3.25398,1.621395,0.09467\C,0,2.007033,2.
 520736,-0.000455\O,0,1.668228,-1.611971,-1.050421\C,0,2.061675,-2.7519
 03,-0.269453\C,0,1.845227,-2.250489,1.161109\O,0,2.307444,-0.901489,1.
 054982\H,0,-2.642427,2.350472,0.407026\H,0,-0.464315,3.522278,0.426823
 \H,0,-0.61176,-1.337419,-0.42399\H,0,3.977216,-0.252524,-0.775823\H,0,
 2.868497,0.656852,-1.834095\H,0,4.143143,2.188614,-0.205796\H,0,3.4021
 47,1.284806,1.128387\H,0,2.028781,3.278576,0.794271\H,0,2.035903,3.066
 586,-0.957911\H,0,1.424791,-3.593616,-0.557662\H,0,3.117791,-3.007177,
 -0.440188\H,0,2.455556,-2.755956,1.914793\H,0,0.783648,-2.298113,1.448
 565\\Version=ES64L-G16RevC.01\State=2-A\HF=-3173.780155\S2=0.761985\S2
 -1=0.\S2A=0.750078\RMSD=4.617e-09\Dipole=1.2341933,-1.5573276,0.151151
 6\Quadrupole=-8.1158812,4.6552604,3.4606208,-2.3550344,-0.3796905,-2.1
 367146\PG=C01 [X(C12H13Br1O2)]\\@
 The archive entry for this job was punched.


 KEEP CLOSE TO NATURES HEART, YOURSELF;
 AND BREAK CLEAR AWAY, ONCE IN A WHILE, AND
 CLIMB A MOUNTAIN OR SPEND A WEEK IN THE
 WOODS.  WASH YOUR SPIRIT CLEAN...
                                         -- JOHN MUIR
 Job cpu time:       0 days  0 hours 25 minutes 32.2 seconds.
 Elapsed time:       0 days  0 hours  1 minutes  4.3 seconds.
 File lengths (MBytes):  RWF=     39 Int=      0 D2E=      0 Chk=      4 Scr=      1
 Normal termination of Gaussian 16 at Mon Sep 30 13:08:23 2024.
