 Entering Gaussian System, Link 0=/usr/local/Gaussian/G16C/g16/g16
 Input=arbr32_wb97xd_oxd.com
 Output=arbr32_wb97xd_oxd.log
 Initial command:
 /usr/local/Gaussian/G16C/g16/l1.exe "/home/rpaton/opt/midi/fukui/Gau-1677764.inp" -scrdir="/home/rpaton/opt/midi/fukui/"
 Entering Link 1 = /usr/local/Gaussian/G16C/g16/l1.exe PID=   1677765.
  
 Copyright (c) 1988-2019, Gaussian, Inc.  All Rights Reserved.
  
 This is part of the Gaussian(R) 16 program.  It is based on
 the Gaussian(R) 09 system (copyright 2009, Gaussian, Inc.),
 the Gaussian(R) 03 system (copyright 2003, Gaussian, Inc.),
 the Gaussian(R) 98 system (copyright 1998, Gaussian, Inc.),
 the Gaussian(R) 94 system (copyright 1995, Gaussian, Inc.),
 the Gaussian 92(TM) system (copyright 1992, Gaussian, Inc.),
 the Gaussian 90(TM) system (copyright 1990, Gaussian, Inc.),
 the Gaussian 88(TM) system (copyright 1988, Gaussian, Inc.),
 the Gaussian 86(TM) system (copyright 1986, Carnegie Mellon
 University), and the Gaussian 82(TM) system (copyright 1983,
 Carnegie Mellon University). Gaussian is a federally registered
 trademark of Gaussian, Inc.
  
 This software contains proprietary and confidential information,
 including trade secrets, belonging to Gaussian, Inc.
  
 This software is provided under written license and may be
 used, copied, transmitted, or stored only in accord with that
 written license.
  
 The following legend is applicable only to US Government
 contracts under FAR:
  
                    RESTRICTED RIGHTS LEGEND
  
 Use, reproduction and disclosure by the US Government is
 subject to restrictions as set forth in subparagraphs (a)
 and (c) of the Commercial Computer Software - Restricted
 Rights clause in FAR 52.227-19.
  
 Gaussian, Inc.
 340 Quinnipiac St., Bldg. 40, Wallingford CT 06492
  
  
 ---------------------------------------------------------------
 Warning -- This program may not be used in any manner that
 competes with the business of Gaussian, Inc. or will provide
 assistance to any competitor of Gaussian, Inc.  The licensee
 of this program is prohibited from giving any competitor of
 Gaussian, Inc. access to this program.  By using this program,
 the user acknowledges that Gaussian, Inc. is engaged in the
 business of creating and licensing software in the field of
 computational chemistry and represents and warrants to the
 licensee that it is not a competitor of Gaussian, Inc. and that
 it will not use this program in any manner prohibited above.
 ---------------------------------------------------------------
  

 Cite this work as:
 Gaussian 16, Revision C.01,
 M. J. Frisch, G. W. Trucks, H. B. Schlegel, G. E. Scuseria, 
 M. A. Robb, J. R. Cheeseman, G. Scalmani, V. Barone, 
 G. A. Petersson, H. Nakatsuji, X. Li, M. Caricato, A. V. Marenich, 
 J. Bloino, B. G. Janesko, R. Gomperts, B. Mennucci, H. P. Hratchian, 
 J. V. Ortiz, A. F. Izmaylov, J. L. Sonnenberg, D. Williams-Young, 
 F. Ding, F. Lipparini, F. Egidi, J. Goings, B. Peng, A. Petrone, 
 T. Henderson, D. Ranasinghe, V. G. Zakrzewski, J. Gao, N. Rega, 
 G. Zheng, W. Liang, M. Hada, M. Ehara, K. Toyota, R. Fukuda, 
 J. Hasegawa, M. Ishida, T. Nakajima, Y. Honda, O. Kitao, H. Nakai, 
 T. Vreven, K. Throssell, J. A. Montgomery, Jr., J. E. Peralta, 
 F. Ogliaro, M. J. Bearpark, J. J. Heyd, E. N. Brothers, K. N. Kudin, 
 V. N. Staroverov, T. A. Keith, R. Kobayashi, J. Normand, 
 K. Raghavachari, A. P. Rendell, J. C. Burant, S. S. Iyengar, 
 J. Tomasi, M. Cossi, J. M. Millam, M. Klene, C. Adamo, R. Cammi, 
 J. W. Ochterski, R. L. Martin, K. Morokuma, O. Farkas, 
 J. B. Foresman, and D. J. Fox, Gaussian, Inc., Wallingford CT, 2019.
 
 ******************************************
 Gaussian 16:  ES64L-G16RevC.01  3-Jul-2019
                27-Sep-2024 
 ******************************************
 %chk=arbr32_wb97xd_popn.chk
 %mem=48GB
 %nprocshared=24
 Will use up to   24 processors via shared memory.
 -----------------------------------
 # pop=(nbo6,hirshfeld) wb97xd/midix
 -----------------------------------
 1/38=1,172=1/1;
 2/12=2,17=6,18=5,40=1/2;
 3/5=20,11=2,25=1,30=1,74=-58/1,2,3;
 4//1;
 5/5=2,38=5/2;
 6/7=2,8=2,9=2,10=2,28=1,40=1,79=1,113=1,114=1,124=3103,126=1/1,12;
 99/5=1,9=1/99;
 -----------------------------------------
 arbr32_wb97xd_popncreated by GaussianPrep
 -----------------------------------------
 Symbolic Z-matrix:
 Charge =  1 Multiplicity = 2
 O                    -3.32847   1.9095   -0.2007 
 C                    -2.86178   0.79953  -0.06962 
 O                    -3.69619  -0.28026  -0.00816 
 C                    -3.12721  -1.51855   0.47986 
 C                    -1.85625  -1.88321  -0.289 
 C                    -0.87394  -0.75055  -0.14173 
 C                     0.50254  -0.9421   -0.13866 
 C                     1.34824   0.15115  -0.00187 
 Br                    3.22358  -0.12021   0.01345 
 C                     0.8397    1.44      0.1251 
 C                    -0.53443   1.6263    0.11286 
 C                    -1.38961   0.53677  -0.01328 
 H                    -3.91578  -2.26173   0.3378 
 H                    -2.91179  -1.42534   1.55404 
 H                    -1.43991  -2.82266   0.09503 
 H                    -2.10693  -2.03519  -1.34923 
 H                     0.91748  -1.94135  -0.239 
 H                     1.51365   2.28442   0.22741 
 H                    -0.96831   2.61898   0.19206 
 
                          Input orientation:                          
 ---------------------------------------------------------------------
 Center     Atomic      Atomic             Coordinates (Angstroms)
 Number     Number       Type             X           Y           Z
 ---------------------------------------------------------------------
      1          8           0       -3.328469    1.909496   -0.200703
      2          6           0       -2.861784    0.799533   -0.069619
      3          8           0       -3.696193   -0.280256   -0.008163
      4          6           0       -3.127210   -1.518547    0.479858
      5          6           0       -1.856245   -1.883209   -0.289003
      6          6           0       -0.873943   -0.750549   -0.141729
      7          6           0        0.502538   -0.942098   -0.138656
      8          6           0        1.348244    0.151146   -0.001868
      9         35           0        3.223578   -0.120205    0.013452
     10          6           0        0.839704    1.440004    0.125097
     11          6           0       -0.534426    1.626304    0.112862
     12          6           0       -1.389605    0.536774   -0.013279
     13          1           0       -3.915778   -2.261730    0.337797
     14          1           0       -2.911789   -1.425344    1.554043
     15          1           0       -1.439906   -2.822663    0.095034
     16          1           0       -2.106930   -2.035188   -1.349227
     17          1           0        0.917484   -1.941353   -0.239001
     18          1           0        1.513651    2.284422    0.227411
     19          1           0       -0.968314    2.618980    0.192060
 ---------------------------------------------------------------------
                    Distance matrix (angstroms):
                    1          2          3          4          5
     1  O    0.000000
     2  C    1.211196   0.000000
     3  O    2.228745   1.366001   0.000000
     4  C    3.500735   2.397055   1.447505   0.000000
     5  C    4.069380   2.873385   2.456367   1.529535   0.000000
     6  C    3.619947   2.521798   2.864282   2.460367   1.506494
     7  C    4.776196   3.789025   4.252576   3.726919   2.544042
     8  C    5.000297   4.260203   5.062854   4.801002   3.806547
     9  Br   6.862570   6.155034   6.921655   6.519617   5.385561
    10  C    4.207165   3.761533   4.852980   4.961379   4.299228
    11  C    2.825809   2.476579   3.694102   4.092347   3.771655
    12  C    2.383000   1.496505   2.447021   2.736202   2.479938
    13  H    4.246650   3.263161   2.023399   1.092859   2.185825
    14  H    3.791294   2.754788   2.089738   1.099530   2.172702
    15  H    5.103671   3.894759   3.400781   2.166980   1.096994
    16  H    4.286233   3.200444   2.721028   2.157184   1.100007
    17  H    5.732244   4.671618   4.909027   4.129779   2.774789
    18  H    4.875446   4.630071   5.811673   6.005322   5.384425
    19  H    2.495588   2.638957   3.985848   4.675766   4.614060
                    6          7          8          9         10
     6  C    0.000000
     7  C    1.389748   0.000000
     8  C    2.402234   1.388925   0.000000
     9  Br   4.148625   2.846525   1.894926   0.000000
    10  C    2.793976   2.420260   1.391362   2.851240   0.000000
    11  C    2.414440   2.781231   2.394515   4.145211   1.386755
    12  C    1.392698   2.404784   2.764897   4.659806   2.409313
    13  H    3.430215   4.635726   5.800627   7.460679   6.030148
    14  H    2.735655   3.841404   4.801464   6.459066   4.932120
    15  H    2.161025   2.713710   4.077586   5.390549   4.834031
    16  H    2.151419   3.077280   4.305074   5.825665   4.788867
    17  H    2.153297   1.086628   2.149497   2.949302   3.401793
    18  H    3.879165   3.400998   2.151928   2.958354   1.085226
    19  H    3.387336   3.867047   3.390318   5.010688   2.159490
                   11         12         13         14         15
    11  C    0.000000
    12  C    1.390798   0.000000
    13  H    5.157610   3.786348   0.000000
    14  H    4.128125   2.936571   1.785158   0.000000
    15  H    4.540211   3.361559   2.550200   2.499529   0.000000
    16  H    4.244643   2.985683   2.483808   3.073871   1.775085
    17  H    3.867819   3.393335   4.878090   4.259648   2.538814
    18  H    2.154266   3.397220   7.082258   5.925102   5.901130
    19  H    1.086249   2.134299   5.703518   4.689206   5.462901
                   16         17         18         19
    16  H    0.000000
    17  H    3.223118   0.000000
    18  H    5.852643   4.293033   0.000000
    19  H    5.033219   4.953654   2.504661   0.000000
 Stoichiometry    C9H7BrO2(1+,2)
 Framework group  C1[X(C9H7BrO2)]
 Deg. of freedom    51
 Full point group                 C1      NOp   1
 Largest Abelian subgroup         C1      NOp   1
 Largest concise Abelian subgroup C1      NOp   1
                         Standard orientation:                         
 ---------------------------------------------------------------------
 Center     Atomic      Atomic             Coordinates (Angstroms)
 Number     Number       Type             X           Y           Z
 ---------------------------------------------------------------------
      1          8           0       -3.328469    1.909496   -0.200703
      2          6           0       -2.861784    0.799533   -0.069619
      3          8           0       -3.696193   -0.280256   -0.008163
      4          6           0       -3.127210   -1.518547    0.479858
      5          6           0       -1.856245   -1.883209   -0.289003
      6          6           0       -0.873943   -0.750549   -0.141729
      7          6           0        0.502538   -0.942098   -0.138656
      8          6           0        1.348244    0.151146   -0.001868
      9         35           0        3.223578   -0.120206    0.013452
     10          6           0        0.839704    1.440004    0.125097
     11          6           0       -0.534426    1.626304    0.112862
     12          6           0       -1.389605    0.536774   -0.013279
     13          1           0       -3.915778   -2.261730    0.337797
     14          1           0       -2.911789   -1.425344    1.554043
     15          1           0       -1.439906   -2.822663    0.095034
     16          1           0       -2.106930   -2.035188   -1.349227
     17          1           0        0.917484   -1.941353   -0.239001
     18          1           0        1.513651    2.284422    0.227411
     19          1           0       -0.968314    2.618980    0.192060
 ---------------------------------------------------------------------
 Rotational constants (GHZ):           1.9360067           0.3197522           0.2773867
 Standard basis: MIDIx (5D, 7F)
 There are   154 symmetry adapted cartesian basis functions of A   symmetry.
 There are   150 symmetry adapted basis functions of A   symmetry.
   150 basis functions,   261 primitive gaussians,   154 cartesian basis functions
    56 alpha electrons       55 beta electrons
       nuclear repulsion energy       911.7982405851 Hartrees.
 NAtoms=   19 NActive=   19 NUniq=   19 SFac= 1.00D+00 NAtFMM=   60 NAOKFM=F Big=F
 Integral buffers will be    131072 words long.
 Raffenetti 2 integral format.
 Two-electron integral symmetry is turned on.
 Nuclear repulsion after empirical dispersion term =      911.7868557675 Hartrees.
 One-electron integrals computed using PRISM.
 NBasis=   150 RedAO= T EigKep=  1.14D-03  NBF=   150
 NBsUse=   150 1.00D-06 EigRej= -1.00D+00 NBFU=   150
 ExpMin= 1.47D-01 ExpMax= 6.10D+03 ExpMxC= 6.10D+03 IAcc=3 IRadAn=         5 AccDes= 0.00D+00
 Harris functional with IExCor= 4639 and IRadAn=       5 diagonalized for initial guess.
 HarFok:  IExCor= 4639 AccDes= 0.00D+00 IRadAn=         5 IDoV= 1 UseB2=F ITyADJ=14
 ICtDFT=  3500011 ScaDFX=  1.000000  1.000000  1.000000  1.000000
 FoFCou: FMM=F IPFlag=           0 FMFlag=      100000 FMFlg1=           0
         NFxFlg=           0 DoJE=T BraDBF=F KetDBF=T FulRan=T
         wScrn=  0.000000 ICntrl=       500 IOpCl=  0 I1Cent=   200000004 NGrid=           0
         NMat0=    1 NMatS0=      1 NMatT0=    0 NMatD0=    1 NMtDS0=    0 NMtDT0=    0
 Petite list used in FoFCou.
 Initial guess <Sx>= 0.0000 <Sy>= 0.0000 <Sz>= 0.5000 <S**2>= 0.7500 S= 0.5000
 Requested convergence on RMS density matrix=1.00D-08 within 128 cycles.
 Requested convergence on MAX density matrix=1.00D-06.
 Requested convergence on             energy=1.00D-06.
 No special actions if energy rises.
 Integral accuracy reduced to 1.0D-05 until final iterations.
 Restarting incremental Fock formation.
 Initial convergence to 1.0D-05 achieved.  Increase integral accuracy.
 SCF Done:  E(UwB97XD) =  -3056.31206589     A.U. after   46 cycles
            NFock= 46  Conv=0.55D-08     -V/T= 2.0025
 <Sx>= 0.0000 <Sy>= 0.0000 <Sz>= 0.5000 <S**2>= 0.7732 S= 0.5115
 <L.S>= 0.000000000000E+00
 Annihilation of the first spin contaminant:
 S**2 before annihilation     0.7732,   after     0.7503

 **********************************************************************

            Population analysis using the SCF Density.

 **********************************************************************

 Orbital symmetries:
 Alpha Orbitals:
       Occupied  (A) (A) (A) (A) (A) (A) (A) (A) (A) (A) (A) (A)
                 (A) (A) (A) (A) (A) (A) (A) (A) (A) (A) (A) (A)
                 (A) (A) (A) (A) (A) (A) (A) (A) (A) (A) (A) (A)
                 (A) (A) (A) (A) (A) (A) (A) (A) (A) (A) (A) (A)
                 (A) (A) (A) (A) (A) (A) (A) (A)
       Virtual   (A) (A) (A) (A) (A) (A) (A) (A) (A) (A) (A) (A)
                 (A) (A) (A) (A) (A) (A) (A) (A) (A) (A) (A) (A)
                 (A) (A) (A) (A) (A) (A) (A) (A) (A) (A) (A) (A)
                 (A) (A) (A) (A) (A) (A) (A) (A) (A) (A) (A) (A)
                 (A) (A) (A) (A) (A) (A) (A) (A) (A) (A) (A) (A)
                 (A) (A) (A) (A) (A) (A) (A) (A) (A) (A) (A) (A)
                 (A) (A) (A) (A) (A) (A) (A) (A) (A) (A) (A) (A)
                 (A) (A) (A) (A) (A) (A) (A) (A) (A) (A)
 Beta  Orbitals:
       Occupied  (A) (A) (A) (A) (A) (A) (A) (A) (A) (A) (A) (A)
                 (A) (A) (A) (A) (A) (A) (A) (A) (A) (A) (A) (A)
                 (A) (A) (A) (A) (A) (A) (A) (A) (A) (A) (A) (A)
                 (A) (A) (A) (A) (A) (A) (A) (A) (A) (A) (A) (A)
                 (A) (A) (A) (A) (A) (A) (A)
       Virtual   (A) (A) (A) (A) (A) (A) (A) (A) (A) (A) (A) (A)
                 (A) (A) (A) (A) (A) (A) (A) (A) (A) (A) (A) (A)
                 (A) (A) (A) (A) (A) (A) (A) (A) (A) (A) (A) (A)
                 (A) (A) (A) (A) (A) (A) (A) (A) (A) (A) (A) (A)
                 (A) (A) (A) (A) (A) (A) (A) (A) (A) (A) (A) (A)
                 (A) (A) (A) (A) (A) (A) (A) (A) (A) (A) (A) (A)
                 (A) (A) (A) (A) (A) (A) (A) (A) (A) (A) (A) (A)
                 (A) (A) (A) (A) (A) (A) (A) (A) (A) (A) (A)
 The electronic state is 2-A.
 Alpha  occ. eigenvalues -- -480.37780 -62.81060 -56.39931 -56.39699 -56.39463
 Alpha  occ. eigenvalues --  -19.34770 -19.31321 -10.53451 -10.53196 -10.48320
 Alpha  occ. eigenvalues --  -10.47043 -10.46360 -10.45810 -10.44979 -10.44553
 Alpha  occ. eigenvalues --  -10.41394  -9.11891  -6.90218  -6.89397  -6.88644
 Alpha  occ. eigenvalues --   -3.00622  -3.00364  -2.99842  -2.99078  -2.99016
 Alpha  occ. eigenvalues --   -1.36117  -1.28637  -1.21678  -1.14249  -1.09418
 Alpha  occ. eigenvalues --   -1.06258  -1.03153  -0.94535  -0.92990  -0.89814
 Alpha  occ. eigenvalues --   -0.83345  -0.80000  -0.78918  -0.75821  -0.74014
 Alpha  occ. eigenvalues --   -0.72530  -0.70849  -0.69649  -0.69111  -0.67330
 Alpha  occ. eigenvalues --   -0.66564  -0.65626  -0.64492  -0.62024  -0.59995
 Alpha  occ. eigenvalues --   -0.57359  -0.57049  -0.54117  -0.53702  -0.52019
 Alpha  occ. eigenvalues --   -0.51722
 Alpha virt. eigenvalues --   -0.18161  -0.13891  -0.11927  -0.05104   0.03611
 Alpha virt. eigenvalues --    0.03707   0.04470   0.06241   0.06995   0.08861
 Alpha virt. eigenvalues --    0.09997   0.11110   0.12232   0.12643   0.16003
 Alpha virt. eigenvalues --    0.16816   0.18930   0.20374   0.21921   0.24828
 Alpha virt. eigenvalues --    0.29897   0.32368   0.34044   0.37562   0.39029
 Alpha virt. eigenvalues --    0.40077   0.41936   0.42444   0.42493   0.44071
 Alpha virt. eigenvalues --    0.45963   0.48323   0.48847   0.51103   0.54576
 Alpha virt. eigenvalues --    0.55507   0.58114   0.59096   0.61943   0.65458
 Alpha virt. eigenvalues --    0.66486   0.68006   0.71301   0.71521   0.72693
 Alpha virt. eigenvalues --    0.74494   0.76082   0.77194   0.78234   0.78647
 Alpha virt. eigenvalues --    0.80043   0.80733   0.81295   0.82879   0.83850
 Alpha virt. eigenvalues --    0.85155   0.86402   0.88370   0.89183   0.90605
 Alpha virt. eigenvalues --    0.91947   0.92392   0.94967   0.98514   1.00592
 Alpha virt. eigenvalues --    1.05067   1.10825   1.14144   1.19549   1.21509
 Alpha virt. eigenvalues --    1.28887   1.33388   1.37061   1.40080   1.46652
 Alpha virt. eigenvalues --    1.48986   1.51104   1.56260   1.57601   1.59180
 Alpha virt. eigenvalues --    1.68725   1.72411   1.73406   1.77064   1.79029
 Alpha virt. eigenvalues --    1.85745   1.85830   1.88054   1.94019   2.07039
 Alpha virt. eigenvalues --    2.17853   2.33541   2.65126   2.97376
  Beta  occ. eigenvalues -- -480.37692 -62.81000 -56.39892 -56.39486 -56.39421
  Beta  occ. eigenvalues --  -19.34814 -19.30992 -10.53543 -10.52902 -10.47906
  Beta  occ. eigenvalues --  -10.47045 -10.46206 -10.45771 -10.45064 -10.44548
  Beta  occ. eigenvalues --  -10.41391  -9.11774  -6.90173  -6.89072  -6.88595
  Beta  occ. eigenvalues --   -3.00536  -3.00222  -2.99821  -2.98937  -2.98899
  Beta  occ. eigenvalues --   -1.35898  -1.28182  -1.20910  -1.13241  -1.09184
  Beta  occ. eigenvalues --   -1.05061  -1.02860  -0.94254  -0.92466  -0.89547
  Beta  occ. eigenvalues --   -0.83135  -0.79777  -0.78680  -0.75350  -0.73704
  Beta  occ. eigenvalues --   -0.72374  -0.69931  -0.69389  -0.67996  -0.66938
  Beta  occ. eigenvalues --   -0.66208  -0.65362  -0.63156  -0.61589  -0.57149
  Beta  occ. eigenvalues --   -0.56718  -0.56364  -0.53437  -0.51758  -0.50284
  Beta virt. eigenvalues --   -0.34063  -0.15595  -0.12831  -0.11229  -0.04061
  Beta virt. eigenvalues --    0.03806   0.04163   0.04937   0.06291   0.07196
  Beta virt. eigenvalues --    0.08901   0.10292   0.11187   0.12361   0.12894
  Beta virt. eigenvalues --    0.16321   0.16999   0.19102   0.20675   0.22082
  Beta virt. eigenvalues --    0.25331   0.30050   0.32492   0.34227   0.37821
  Beta virt. eigenvalues --    0.39292   0.40519   0.42126   0.44045   0.44191
  Beta virt. eigenvalues --    0.45135   0.46167   0.48532   0.49044   0.52081
  Beta virt. eigenvalues --    0.54735   0.55728   0.58290   0.59421   0.62270
  Beta virt. eigenvalues --    0.65823   0.66641   0.68223   0.71504   0.71599
  Beta virt. eigenvalues --    0.72829   0.74749   0.76402   0.77377   0.78393
  Beta virt. eigenvalues --    0.78951   0.80362   0.80878   0.81656   0.83064
  Beta virt. eigenvalues --    0.83970   0.85375   0.86538   0.88679   0.89514
  Beta virt. eigenvalues --    0.90723   0.92167   0.92722   0.95087   0.98733
  Beta virt. eigenvalues --    1.00730   1.05176   1.11021   1.14345   1.19814
  Beta virt. eigenvalues --    1.21621   1.29138   1.33617   1.37490   1.40242
  Beta virt. eigenvalues --    1.46733   1.49547   1.51691   1.56452   1.57969
  Beta virt. eigenvalues --    1.59294   1.68950   1.72768   1.74011   1.77196
  Beta virt. eigenvalues --    1.79457   1.85864   1.86031   1.88125   1.94441
  Beta virt. eigenvalues --    2.07213   2.18030   2.33521   2.65121   2.97642
          Condensed to atoms (all electrons):
               1          2          3          4          5          6
     1  O    8.071313   0.557314  -0.068865   0.001704  -0.000212   0.000914
     2  C    0.557314   4.070339   0.246043  -0.024154  -0.018530  -0.006035
     3  O   -0.068865   0.246043   8.478839   0.137825  -0.024787  -0.011953
     4  C    0.001704  -0.024154   0.137825   4.974904   0.299745  -0.062845
     5  C   -0.000212  -0.018530  -0.024787   0.299745   5.301146   0.217902
     6  C    0.000914  -0.006035  -0.011953  -0.062845   0.217902   5.233085
     7  C    0.000018  -0.000357   0.000181   0.001699  -0.011540   0.478458
     8  C   -0.000019  -0.000156  -0.000015  -0.000064   0.001299  -0.003400
     9  Br  -0.000000   0.000001  -0.000000   0.000000  -0.000012   0.001895
    10  C    0.000605   0.003995   0.000040  -0.000073   0.000299  -0.039293
    11  C    0.002472  -0.002245   0.001944   0.000175  -0.000145  -0.022780
    12  C   -0.105001   0.196520  -0.101718  -0.008736  -0.022788   0.314122
    13  H   -0.000015   0.002660  -0.016072   0.388973  -0.031863   0.004778
    14  H    0.000126  -0.004218  -0.020645   0.385599  -0.044564  -0.002498
    15  H    0.000003   0.000444   0.001796  -0.026856   0.382207  -0.028377
    16  H   -0.000016   0.000623   0.000763  -0.027009   0.372808  -0.020559
    17  H    0.000000   0.000001   0.000002   0.000032  -0.003085  -0.008672
    18  H   -0.000001  -0.000012   0.000000   0.000000   0.000001  -0.000052
    19  H    0.013270   0.002645   0.000273  -0.000031  -0.000023   0.001367
               7          8          9         10         11         12
     1  O    0.000018  -0.000019  -0.000000   0.000605   0.002472  -0.105001
     2  C   -0.000357  -0.000156   0.000001   0.003995  -0.002245   0.196520
     3  O    0.000181  -0.000015  -0.000000   0.000040   0.001944  -0.101718
     4  C    0.001699  -0.000064   0.000000  -0.000073   0.000175  -0.008736
     5  C   -0.011540   0.001299  -0.000012   0.000299  -0.000145  -0.022788
     6  C    0.478458  -0.003400   0.001895  -0.039293  -0.022780   0.314122
     7  C    4.933260   0.403564  -0.037321  -0.044971  -0.024178  -0.001720
     8  C    0.403564   5.152434   0.259534   0.367344  -0.022616  -0.053301
     9  Br  -0.037321   0.259534  34.537708  -0.034308   0.001441   0.000138
    10  C   -0.044971   0.367344  -0.034308   5.023023   0.481039  -0.024585
    11  C   -0.024178  -0.022616   0.001441   0.481039   4.943496   0.361617
    12  C   -0.001720  -0.053301   0.000138  -0.024585   0.361617   5.664388
    13  H    0.000019  -0.000001  -0.000000   0.000001   0.000005  -0.000407
    14  H   -0.000307   0.000024   0.000000  -0.000018  -0.000108   0.001014
    15  H   -0.004973   0.000192  -0.000007  -0.000001  -0.000002   0.003400
    16  H   -0.003705  -0.000009   0.000001  -0.000007  -0.000003  -0.003558
    17  H    0.379666  -0.016074   0.000309   0.001872   0.000017   0.002195
    18  H    0.001911  -0.018000   0.000335   0.381475  -0.009733   0.002195
    19  H    0.000082   0.001606  -0.000027  -0.005528   0.373933  -0.027503
              13         14         15         16         17         18
     1  O   -0.000015   0.000126   0.000003  -0.000016   0.000000  -0.000001
     2  C    0.002660  -0.004218   0.000444   0.000623   0.000001  -0.000012
     3  O   -0.016072  -0.020645   0.001796   0.000763   0.000002   0.000000
     4  C    0.388973   0.385599  -0.026856  -0.027009   0.000032   0.000000
     5  C   -0.031863  -0.044564   0.382207   0.372808  -0.003085   0.000001
     6  C    0.004778  -0.002498  -0.028377  -0.020559  -0.008672  -0.000052
     7  C    0.000019  -0.000307  -0.004973  -0.003705   0.379666   0.001911
     8  C   -0.000001   0.000024   0.000192  -0.000009  -0.016074  -0.018000
     9  Br  -0.000000   0.000000  -0.000007   0.000001   0.000309   0.000335
    10  C    0.000001  -0.000018  -0.000001  -0.000007   0.001872   0.381475
    11  C    0.000005  -0.000108  -0.000002  -0.000003   0.000017  -0.009733
    12  C   -0.000407   0.001014   0.003400  -0.003558   0.002195   0.002195
    13  H    0.416423  -0.024663   0.000067  -0.003457  -0.000001   0.000000
    14  H   -0.024663   0.473661  -0.000583   0.003677  -0.000005  -0.000000
    15  H    0.000067  -0.000583   0.429361  -0.016931   0.002304  -0.000000
    16  H   -0.003457   0.003677  -0.016931   0.415208   0.000111  -0.000000
    17  H   -0.000001  -0.000005   0.002304   0.000111   0.369103  -0.000033
    18  H    0.000000  -0.000000  -0.000000  -0.000000  -0.000033   0.356361
    19  H    0.000000   0.000005   0.000000   0.000001   0.000003  -0.002720
              19
     1  O    0.013270
     2  C    0.002645
     3  O    0.000273
     4  C   -0.000031
     5  C   -0.000023
     6  C    0.001367
     7  C    0.000082
     8  C    0.001606
     9  Br  -0.000027
    10  C   -0.005528
    11  C    0.373933
    12  C   -0.027503
    13  H    0.000000
    14  H    0.000005
    15  H    0.000000
    16  H    0.000001
    17  H    0.000003
    18  H   -0.002720
    19  H    0.349973
          Atomic-Atomic Spin Densities.
               1          2          3          4          5          6
     1  O    0.166058  -0.004251   0.000639  -0.000024  -0.000012   0.000067
     2  C   -0.004251  -0.068512   0.015096   0.000417  -0.000085  -0.002346
     3  O    0.000639   0.015096  -0.029697  -0.000255   0.000129   0.000403
     4  C   -0.000024   0.000417  -0.000255  -0.000613   0.001276   0.000455
     5  C   -0.000012  -0.000085   0.000129   0.001276   0.004952  -0.003978
     6  C    0.000067  -0.002346   0.000403   0.000455  -0.003978  -0.019044
     7  C    0.000001   0.000185  -0.000002   0.000053   0.001373  -0.018924
     8  C    0.000000  -0.000026   0.000000  -0.000004   0.000065  -0.005355
     9  Br  -0.000000  -0.000000  -0.000000  -0.000000  -0.000001   0.000244
    10  C    0.000010   0.000247  -0.000001   0.000002  -0.000003  -0.000746
    11  C    0.000090  -0.001747   0.000012   0.000007   0.000053  -0.003813
    12  C   -0.007148  -0.022453  -0.000769  -0.001060  -0.002099   0.029348
    13  H   -0.000001   0.000028  -0.000286   0.000808  -0.000792   0.000110
    14  H   -0.000010  -0.000500   0.000502   0.000153   0.000188   0.000085
    15  H   -0.000000  -0.000008   0.000003  -0.000211   0.000868  -0.000364
    16  H    0.000004   0.000147   0.000013   0.000362  -0.000056   0.000310
    17  H    0.000000   0.000000  -0.000000  -0.000000   0.000023  -0.000083
    18  H    0.000000  -0.000000  -0.000000   0.000000  -0.000000  -0.000016
    19  H   -0.000242  -0.000009  -0.000009   0.000002  -0.000003   0.000075
               7          8          9         10         11         12
     1  O    0.000001   0.000000  -0.000000   0.000010   0.000090  -0.007148
     2  C    0.000185  -0.000026  -0.000000   0.000247  -0.001747  -0.022453
     3  O   -0.000002   0.000000  -0.000000  -0.000001   0.000012  -0.000769
     4  C    0.000053  -0.000004  -0.000000   0.000002   0.000007  -0.001060
     5  C    0.001373   0.000065  -0.000001  -0.000003   0.000053  -0.002099
     6  C   -0.018924  -0.005355   0.000244  -0.000746  -0.003813   0.029348
     7  C    0.026251   0.030708  -0.002877  -0.002105   0.000585  -0.007823
     8  C    0.030708   0.228894  -0.057111   0.035901  -0.004791  -0.005157
     9  Br  -0.002877  -0.057111   0.353451  -0.004871   0.000173   0.000061
    10  C   -0.002105   0.035901  -0.004871   0.129009  -0.014798  -0.008853
    11  C    0.000585  -0.004791   0.000173  -0.014798  -0.091389   0.014725
    12  C   -0.007823  -0.005157   0.000061  -0.008853   0.014725   0.405008
    13  H   -0.000002  -0.000000   0.000000  -0.000000  -0.000000  -0.000007
    14  H   -0.000014  -0.000002   0.000000   0.000000   0.000009   0.000022
    15  H    0.000071   0.000010  -0.000001   0.000000   0.000001   0.000026
    16  H    0.000267   0.000009  -0.000001   0.000005  -0.000006  -0.000793
    17  H    0.000144  -0.000391  -0.000112   0.000016  -0.000014   0.000044
    18  H    0.000001  -0.000591  -0.000035  -0.000756  -0.000278   0.000038
    19  H   -0.000014   0.000039   0.000000  -0.000193   0.001469   0.000062
              13         14         15         16         17         18
     1  O   -0.000001  -0.000010  -0.000000   0.000004   0.000000   0.000000
     2  C    0.000028  -0.000500  -0.000008   0.000147   0.000000  -0.000000
     3  O   -0.000286   0.000502   0.000003   0.000013  -0.000000  -0.000000
     4  C    0.000808   0.000153  -0.000211   0.000362  -0.000000   0.000000
     5  C   -0.000792   0.000188   0.000868  -0.000056   0.000023  -0.000000
     6  C    0.000110   0.000085  -0.000364   0.000310  -0.000083  -0.000016
     7  C   -0.000002  -0.000014   0.000071   0.000267   0.000144   0.000001
     8  C   -0.000000  -0.000002   0.000010   0.000009  -0.000391  -0.000591
     9  Br   0.000000   0.000000  -0.000001  -0.000001  -0.000112  -0.000035
    10  C   -0.000000   0.000000   0.000000   0.000005   0.000016  -0.000756
    11  C   -0.000000   0.000009   0.000001  -0.000006  -0.000014  -0.000278
    12  C   -0.000007   0.000022   0.000026  -0.000793   0.000044   0.000038
    13  H    0.002023   0.000115  -0.000057   0.000140   0.000000   0.000000
    14  H    0.000115  -0.001441  -0.000036  -0.000008   0.000000   0.000000
    15  H   -0.000057  -0.000036   0.000658  -0.000311  -0.000026   0.000000
    16  H    0.000140  -0.000008  -0.000311   0.003279   0.000005   0.000000
    17  H    0.000000   0.000000  -0.000026   0.000005  -0.002162   0.000001
    18  H    0.000000   0.000000   0.000000   0.000000   0.000001  -0.005640
    19  H   -0.000000   0.000001  -0.000000   0.000000  -0.000000   0.000051
              19
     1  O   -0.000242
     2  C   -0.000009
     3  O   -0.000009
     4  C    0.000002
     5  C   -0.000003
     6  C    0.000075
     7  C   -0.000014
     8  C    0.000039
     9  Br   0.000000
    10  C   -0.000193
    11  C    0.001469
    12  C    0.000062
    13  H   -0.000000
    14  H    0.000001
    15  H   -0.000000
    16  H    0.000000
    17  H   -0.000000
    18  H    0.000051
    19  H    0.001260
 Mulliken charges and spin densities:
               1          2
     1  O   -0.473610   0.155180
     2  C    0.975122  -0.083816
     3  O   -0.623651  -0.014221
     4  C   -0.040888   0.001367
     5  C   -0.417860   0.001897
     6  C   -0.046058  -0.023572
     7  C   -0.069786   0.027877
     8  C   -0.072342   0.222197
     9  Br   0.270313   0.288921
    10  C   -0.110908   0.132865
    11  C   -0.084328  -0.099710
    12  C   -0.196272   0.393171
    13  H    0.263552   0.002080
    14  H    0.233503  -0.000935
    15  H    0.257956   0.000624
    16  H    0.282059   0.003367
    17  H    0.272255  -0.002556
    18  H    0.288272  -0.007226
    19  H    0.292673   0.002489
 Sum of Mulliken charges =   1.00000   1.00000
 Mulliken charges and spin densities with hydrogens summed into heavy atoms:
               1          2
     1  O   -0.473610   0.155180
     2  C    0.975122  -0.083816
     3  O   -0.623651  -0.014221
     4  C    0.456168   0.002511
     5  C    0.122155   0.005888
     6  C   -0.046058  -0.023572
     7  C    0.202469   0.025322
     8  C   -0.072342   0.222197
     9  Br   0.270313   0.288921
    10  C    0.177364   0.125639
    11  C    0.208344  -0.097221
    12  C   -0.196272   0.393171
 Electronic spatial extent (au):  <R**2>=           3394.5541
 Charge=              1.0000 electrons
 Dipole moment (field-independent basis, Debye):
    X=              2.8018    Y=             -2.4998    Z=              0.6051  Tot=              3.8033
 Quadrupole moment (field-independent basis, Debye-Ang):
   XX=            -56.9039   YY=            -63.7366   ZZ=            -76.9465
   XY=             11.7524   XZ=             -1.9249   YZ=              0.9779
 Traceless Quadrupole moment (field-independent basis, Debye-Ang):
   XX=              8.9584   YY=              2.1257   ZZ=            -11.0841
   XY=             11.7524   XZ=             -1.9249   YZ=              0.9779
 Octapole moment (field-independent basis, Debye-Ang**2):
  XXX=            158.1696  YYY=             -9.6416  ZZZ=             -0.2755  XYY=             20.0736
  XXY=            -42.4071  XXZ=              8.3218  XZZ=             21.2995  YZZ=             -2.6122
  YYZ=              3.0103  XYZ=              0.7071
 Hexadecapole moment (field-independent basis, Debye-Ang**3):
 XXXX=          -2636.8463 YYYY=           -621.0860 ZZZZ=            -99.7465 XXXY=            102.9802
 XXXZ=            -23.1761 YYYX=             38.0966 YYYZ=              5.4778 ZZZX=              3.4394
 ZZZY=             -1.4188 XXYY=           -554.4866 XXZZ=           -473.7193 YYZZ=           -134.7036
 XXYZ=             -2.1972 YYXZ=             -4.8180 ZZXY=             -5.0474
 N-N= 9.117868557675D+02 E-N=-9.077119958907D+03  KE= 3.048804405804D+03
 There are a total of      433466 grid points.
 ElSum from          density=      110.9999896144
 ElSum from atomic densities=      111.9999808038
 Hirshfeld populations at iteration   1 (CA, CB, DipXYZ):
               1          2          3          4          5
     1  O    4.151361   4.018650  -0.004016  -0.029796   0.006148
     2  C    2.880942   2.890532   0.002263  -0.051946   0.003418
     3  O    4.049729   4.065426   0.075614  -0.030799   0.030442
     4  C    2.971532   2.968962  -0.031254   0.003286  -0.023644
     5  C    3.015244   3.011248  -0.010765  -0.012594   0.010886
     6  C    2.990310   2.958695  -0.036864  -0.022103  -0.006975
     7  C    3.023146   2.979154   0.016966  -0.032017  -0.005833
     8  C    3.042899   2.865499   0.031433   0.005293   0.000622
     9  Br  17.517604  17.222049   0.219235  -0.030231   0.001034
    10  C    3.040681   2.935110   0.024155   0.031919   0.002779
    11  C    2.984097   2.992083  -0.020161   0.044243   0.002632
    12  C    3.078810   2.847332  -0.056672   0.006345  -0.011841
    13  H    0.463482   0.462050  -0.120556  -0.119276  -0.016629
    14  H    0.474670   0.474493   0.019170  -0.006392   0.153744
    15  H    0.468307   0.467734   0.052334  -0.147043   0.053894
    16  H    0.468519   0.465872  -0.044627  -0.036022  -0.159135
    17  H    0.462232   0.461133   0.055221  -0.168955  -0.017915
    18  H    0.460124   0.456084   0.096383   0.154929   0.017516
    19  H    0.456305   0.457889  -0.047567   0.171994   0.016507
       Tot  55.999994  54.999995   0.220293  -0.269163   0.057651

 Dip from Atomic Chgs              0.881951  -0.714341   0.180384
         Total Dipole              1.102244  -0.983504   0.238035

 Hirshfeld charges, spin densities, dipoles, and CM5 charges using IRadAn=      5:
              Q-H        S-H        Dx         Dy         Dz        Q-CM5   
     1  O   -0.170011   0.132712  -0.004016  -0.029796   0.006148  -0.213394
     2  C    0.228526  -0.009591   0.002263  -0.051946   0.003418   0.287425
     3  O   -0.115155  -0.015697   0.075614  -0.030799   0.030442  -0.189275
     4  C    0.059506   0.002570  -0.031254   0.003286  -0.023644  -0.020943
     5  C   -0.026491   0.003996  -0.010765  -0.012594   0.010886  -0.125559
     6  C    0.050995   0.031615  -0.036864  -0.022103  -0.006975   0.040198
     7  C   -0.002300   0.043991   0.016966  -0.032017  -0.005833  -0.053273
     8  C    0.091602   0.177401   0.031433   0.005293   0.000622   0.070316
     9  Br   0.260348   0.295555   0.219235  -0.030231   0.001034   0.275314
    10  C    0.024209   0.105571   0.024155   0.031919   0.002779  -0.028997
    11  C    0.023820  -0.007986  -0.020161   0.044243   0.002632  -0.027247
    12  C    0.073858   0.231478  -0.056672   0.006345  -0.011841   0.072466
    13  H    0.074468   0.001432  -0.120556  -0.119276  -0.016629   0.137604
    14  H    0.050837   0.000177   0.019170  -0.006392   0.153744   0.113320
    15  H    0.063959   0.000573   0.052334  -0.147043   0.053894   0.119149
    16  H    0.065609   0.002647  -0.044627  -0.036022  -0.159135   0.122359
    17  H    0.076635   0.001099   0.055221  -0.168955  -0.017915   0.133874
    18  H    0.083793   0.004040   0.096383   0.154929   0.017516   0.140383
    19  H    0.085806  -0.001584  -0.047567   0.171994   0.016507   0.146289
       Tot   1.000010   0.999999   0.220293  -0.269163   0.057651   1.000010
 Hirshfeld charges and spin densities with hydrogens summed into heavy atoms:
              Q-H        S-H       Q-CM5   
     1  O   -0.170011   0.132712  -0.213394
     2  C    0.228526  -0.009591   0.287425
     3  O   -0.115155  -0.015697  -0.189275
     4  C    0.184810   0.004179   0.229980
     5  C    0.103077   0.007216   0.115949
     6  C    0.050995   0.031615   0.040198
     7  C    0.074334   0.045090   0.080601
     8  C    0.091602   0.177401   0.070316
     9  Br   0.260348   0.295555   0.275314
    10  C    0.108002   0.109611   0.111387
    11  C    0.109627  -0.009570   0.119043
    12  C    0.073858   0.231478   0.072466
 
 EQQ= 0.749739399104E-01 EQD=-0.362621489675E-01 EDD= 0.382534447351E-02
 EQQ+QD+DD= 0.425371354164E-01
 
                          Isotropic Fermi Contact Couplings
        Atom                 a.u.       MegaHertz       Gauss      10(-4) cm-1
     1  O(17)              0.02214     -13.42323      -4.78974      -4.47751
     2  C(13)             -0.01529     -17.19420      -6.13532      -5.73537
     3  O(17)             -0.00626       3.79705       1.35488       1.26656
     4  C(13)              0.00097       1.08497       0.38714       0.36191
     5  C(13)             -0.00071      -0.79738      -0.28453      -0.26598
     6  C(13)             -0.00534      -6.00399      -2.14237      -2.00271
     7  C(13)             -0.00063      -0.70316      -0.25091      -0.23455
     8  C(13)              0.01918      21.56612       7.69533       7.19368
     9  Br(79)             0.02187      24.58119       8.77118       8.19940
    10  C(13)              0.00926      10.41329       3.71572       3.47350
    11  C(13)             -0.01333     -14.98012      -5.34528      -4.99683
    12  C(13)              0.03472      39.02930      13.92663      13.01877
    13  H(1)               0.00085       3.80475       1.35763       1.26913
    14  H(1)              -0.00020      -0.87992      -0.31398      -0.29351
    15  H(1)               0.00027       1.21524       0.43363       0.40536
    16  H(1)               0.00152       6.79611       2.42502       2.26694
    17  H(1)              -0.00069      -3.08597      -1.10115      -1.02937
    18  H(1)              -0.00186      -8.32533      -2.97069      -2.77703
    19  H(1)               0.00059       2.61738       0.93395       0.87306
 --------------------------------------------------------
       Center         ----  Spin Dipole Couplings  ----
                      3XX-RR        3YY-RR        3ZZ-RR
 --------------------------------------------------------
     1   Atom       -0.099449     -0.270983      0.370431
     2   Atom        0.028652      0.030604     -0.059256
     3   Atom        0.037533      0.026401     -0.063934
     4   Atom        0.004535     -0.000925     -0.003610
     5   Atom       -0.004643      0.001945      0.002698
     6   Atom       -0.008961     -0.002040      0.011000
     7   Atom       -0.020715     -0.017201      0.037915
     8   Atom       -0.127468     -0.125021      0.252489
     9   Atom       -1.757491     -1.598909      3.356401
    10   Atom       -0.070902     -0.060057      0.130959
    11   Atom        0.027837      0.024394     -0.052231
    12   Atom       -0.167591     -0.167780      0.335371
    13   Atom        0.001051      0.000062     -0.001114
    14   Atom        0.000561      0.000091     -0.000651
    15   Atom       -0.000730      0.002894     -0.002164
    16   Atom       -0.000942      0.001655     -0.000713
    17   Atom       -0.004049      0.008837     -0.004788
    18   Atom       -0.005083      0.010391     -0.005308
    19   Atom        0.001784      0.002968     -0.004752
 --------------------------------------------------------
                        XY            XZ            YZ
 --------------------------------------------------------
     1   Atom        0.004411     -0.346280     -0.027340
     2   Atom       -0.010451      0.006269     -0.006315
     3   Atom        0.004187     -0.009213     -0.041299
     4   Atom        0.005358     -0.001299     -0.000332
     5   Atom        0.003072     -0.002352     -0.000286
     6   Atom       -0.002197     -0.009301     -0.000422
     7   Atom        0.004225     -0.009918     -0.003519
     8   Atom       -0.001588     -0.007092     -0.038370
     9   Atom        0.023777     -0.060500     -0.500074
    10   Atom       -0.000184     -0.008784     -0.020584
    11   Atom        0.003698      0.002104      0.006271
    12   Atom       -0.007999      0.038175     -0.064214
    13   Atom        0.001751     -0.000167      0.000031
    14   Atom        0.002646     -0.002119     -0.001521
    15   Atom        0.000722     -0.000032     -0.000028
    16   Atom        0.002063      0.001700      0.002063
    17   Atom        0.000310     -0.000120      0.001178
    18   Atom        0.009426      0.001106      0.002173
    19   Atom        0.003039      0.000920      0.001192
 --------------------------------------------------------


 ---------------------------------------------------------------------------------
              Anisotropic Spin Dipole Couplings in Principal Axis System
 ---------------------------------------------------------------------------------

       Atom             a.u.   MegaHertz   Gauss  10(-4) cm-1        Axes

              Baa    -0.2879    20.832     7.433     6.949  0.7660  0.4841  0.4230
     1 O(17)  Bbb    -0.2669    19.312     6.891     6.442 -0.4410  0.8744 -0.2021
              Bcc     0.5548   -40.144   -14.324   -13.390 -0.4677 -0.0317  0.8833
 
              Baa    -0.0600    -8.058    -2.875    -2.688 -0.0631  0.0621  0.9961
     2 C(13)  Bbb     0.0191     2.568     0.916     0.856  0.7379  0.6749  0.0046
              Bcc     0.0409     5.490     1.959     1.831 -0.6719  0.7353 -0.0884
 
              Baa    -0.0804     5.817     2.076     1.940  0.0601  0.3580  0.9318
     3 O(17)  Bbb     0.0326    -2.361    -0.843    -0.788  0.8034 -0.5713  0.1677
              Bcc     0.0478    -3.456    -1.233    -1.153  0.5923  0.7386 -0.3219
 
              Baa    -0.0044    -0.595    -0.212    -0.199 -0.4971  0.7119 -0.4961
     4 C(13)  Bbb    -0.0035    -0.473    -0.169    -0.158 -0.1777  0.4761  0.8613
              Bcc     0.0080     1.068     0.381     0.356  0.8493  0.5163 -0.1102
 
              Baa    -0.0063    -0.851    -0.304    -0.284  0.9155 -0.3316  0.2277
     5 C(13)  Bbb     0.0021     0.278     0.099     0.093  0.0933  0.7257  0.6817
              Bcc     0.0043     0.573     0.204     0.191 -0.3913 -0.6029  0.6953
 
              Baa    -0.0131    -1.753    -0.625    -0.585  0.9135  0.1957  0.3566
     6 C(13)  Bbb    -0.0016    -0.216    -0.077    -0.072 -0.1730  0.9803 -0.0948
              Bcc     0.0147     1.969     0.703     0.657 -0.3681  0.0249  0.9294
 
              Baa    -0.0243    -3.255    -1.161    -1.086  0.8763 -0.4683  0.1133
     7 C(13)  Bbb    -0.0156    -2.093    -0.747    -0.698  0.4523  0.8805  0.1417
              Bcc     0.0399     5.348     1.908     1.784 -0.1661 -0.0730  0.9834
 
              Baa    -0.1306   -17.527    -6.254    -5.846  0.6037  0.7921  0.0905
     8 C(13)  Bbb    -0.1259   -16.889    -6.026    -5.634  0.7970 -0.6022 -0.0461
              Bcc     0.2565    34.416    12.281    11.480 -0.0180 -0.1000  0.9948
 
              Baa    -1.7610  -236.219   -84.289   -78.794  0.9878 -0.1558 -0.0035
     9 Br(79) Bbb    -1.6461  -220.803   -78.788   -73.652  0.1554  0.9828  0.1001
              Bcc     3.4071   457.022   163.077   152.446 -0.0121 -0.0994  0.9950
 
              Baa    -0.0714    -9.582    -3.419    -3.196  0.9918  0.1155  0.0548
    10 C(13)  Bbb    -0.0621    -8.335    -2.974    -2.780 -0.1205  0.9877  0.0998
              Bcc     0.1335    17.918     6.393     5.977 -0.0426 -0.1056  0.9935
 
              Baa    -0.0528    -7.083    -2.527    -2.363 -0.0223 -0.0799  0.9966
    11 C(13)  Bbb     0.0223     2.987     1.066     0.996 -0.5656  0.8230  0.0533
              Bcc     0.0305     4.096     1.461     1.366  0.8244  0.5624  0.0636
 
              Baa    -0.1773   -23.795    -8.491    -7.937  0.4216  0.9031  0.0817
    12 C(13)  Bbb    -0.1691   -22.685    -8.095    -7.567  0.9036 -0.4110 -0.1207
              Bcc     0.3464    46.481    16.585    15.504  0.0754 -0.1247  0.9893
 
              Baa    -0.0013    -0.712    -0.254    -0.238 -0.5355  0.6821 -0.4981
    13 H(1)   Bbb    -0.0010    -0.558    -0.199    -0.186 -0.2775  0.4149  0.8665
              Bcc     0.0024     1.270     0.453     0.424  0.7977  0.6022 -0.0329
 
              Baa    -0.0025    -1.327    -0.473    -0.443  0.7433 -0.5023  0.4418
    14 H(1)   Bbb    -0.0018    -0.985    -0.351    -0.328 -0.0254  0.6389  0.7689
              Bcc     0.0043     2.312     0.825     0.771  0.6685  0.5828 -0.4621
 
              Baa    -0.0022    -1.155    -0.412    -0.385  0.0212  0.0024  0.9998
    15 H(1)   Bbb    -0.0009    -0.463    -0.165    -0.155  0.9819 -0.1884 -0.0203
              Bcc     0.0030     1.618     0.577     0.540  0.1884  0.9821 -0.0064
 
              Baa    -0.0025    -1.354    -0.483    -0.452  0.7618 -0.0574 -0.6452
    16 H(1)   Bbb    -0.0017    -0.891    -0.318    -0.297 -0.4583  0.6561 -0.5995
              Bcc     0.0042     2.245     0.801     0.749  0.4578  0.7525  0.4736
 
              Baa    -0.0049    -2.622    -0.936    -0.875  0.1679 -0.0879  0.9819
    17 H(1)   Bbb    -0.0040    -2.151    -0.767    -0.717  0.9855 -0.0082 -0.1693
              Bcc     0.0089     4.773     1.703     1.592  0.0230  0.9961  0.0852
 
              Baa    -0.0095    -5.091    -1.817    -1.698  0.9046 -0.4258 -0.0178
    18 H(1)   Bbb    -0.0056    -2.986    -1.066    -0.996 -0.0344 -0.1146  0.9928
              Bcc     0.0151     8.078     2.882     2.694  0.4248  0.8975  0.1183
 
              Baa    -0.0050    -2.651    -0.946    -0.884 -0.0821 -0.1172  0.9897
    19 H(1)   Bbb    -0.0007    -0.384    -0.137    -0.128  0.7734 -0.6338 -0.0109
              Bcc     0.0057     3.036     1.083     1.013  0.6286  0.7645  0.1426
 

 ---------------------------------------------------------------------------------

 Running external command "gaunbo6 R"
         input file       "/home/rpaton/opt/midi/fukui/Gau-1677765.EIn"
         output file      "/home/rpaton/opt/midi/fukui/Gau-1677765.EOu"
         message file     "/home/rpaton/opt/midi/fukui/Gau-1677765.EMs"
         fchk file        "/home/rpaton/opt/midi/fukui/Gau-1677765.EFC"
         mat. el file     "/home/rpaton/opt/midi/fukui/Gau-1677765.EUF"

 Writing WrtUnf unformatted file "/home/rpaton/opt/midi/fukui/Gau-1677765.EUF"
 Gaussian matrix elements                                         Version   2 NLab=11 Len12L=8 Len4L=8
 Write SHELL TO ATOM MAP                   from file      0 offset           0 length                  82 to matrix element file.
 Write SHELL TYPES                         from file      0 offset           0 length                  82 to matrix element file.
 Write NUMBER OF PRIMITIVES PER SHELL      from file      0 offset           0 length                  82 to matrix element file.
 Write PRIMITIVE EXPONENTS                 from file      0 offset           0 length                 147 to matrix element file.
 Write CONTRACTION COEFFICIENTS            from file      0 offset           0 length                 147 to matrix element file.
 Write P(S=P) CONTRACTION COEFFICIENTS     from file      0 offset           0 length                 147 to matrix element file.
 Write COORDINATES OF EACH SHELL           from file      0 offset           0 length                 246 to matrix element file.
 Write BONDS PER ATOM                      from file      0 offset           0 length                  19 to matrix element file.
 Write BONDED ATOMS                        from file      0 offset           0 length                  40 to matrix element file.
 Write BOND TYPES                          from file      0 offset           0 length                  40 to matrix element file.
 Write ONIOM CHARGE/MULT                   from file      0 offset           0 length                  32 to matrix element file.
 Write ONIOM ATOM LAYERS                   from file      0 offset           0 length                  19 to matrix element file.
 Write ONIOM ATOM MODIFIERS                from file      0 offset           0 length                  19 to matrix element file.
 Write ONIOM ATOM TYPES                    from file      0 offset           0 length                  19 to matrix element file.
 Write ONIOM LINK ATOMS                    from file      0 offset           0 length                  19 to matrix element file.
 Write ONIOM LINK CHARGES                  from file      0 offset           0 length                  19 to matrix element file.
 Write ONIOM LINK DISTANCES                from file      0 offset           0 length                  76 to matrix element file.
 Write SYMINF INTS                         from file      0 offset           0 length                  26 to matrix element file.
 Write ROTTR TO SO                         from file      0 offset           0 length                  12 to matrix element file.
 Write GAUSSIAN SCALARS                    from file    501 offset           0 to matrix element file.
 Write OPTIMIZATION FLAGS                  from file      0 offset           0 length                  19 to matrix element file.
 Write INTEGER ISO                         from file      0 offset           0 length                  19 to matrix element file.
 Write INTEGER SPIN                        from file      0 offset           0 length                  19 to matrix element file.
 Write REAL ZEFFECTIVE                     from file      0 offset           0 length                  19 to matrix element file.
 Write REAL QUADRUPOLEMOMENT               from file      0 offset           0 length                  19 to matrix element file.
 Write REAL GFACTOR                        from file      0 offset           0 length                  19 to matrix element file.
 Write REAL ZNUCLEAR                       from file      0 offset           0 length                  19 to matrix element file.
 Write MULLIKEN CHARGES                    from file      0 offset           0 length                  19 to matrix element file.
 Write TYPE 6 CHARGES                      from file      0 offset           0 length                  19 to matrix element file.
 Write TYPE 7 CHARGES                      from file      0 offset           0 length                  19 to matrix element file.
 Write NUCLEAR GRADIENT                    from file  10584 offset           0 length                  57 to matrix element file.
 Array NUCLEAR FORCE CONSTANTS              on  file  10585 does not exist.
 Write ELECTRIC DIPOLE MOMENT              from file      0 offset           0 length                   3 to matrix element file.
 Write NON-ADIABATIC COUPLING              from file  10810 offset           0 length                  57 to matrix element file.
 Write FINITE EM FIELD                     from file  10521 offset           0 length                  35 to matrix element file.
 Write OVERLAP                             from file  10514 offset           0 length               11325 to matrix element file.
 Write CORE HAMILTONIAN ALPHA              from file  10515 offset           0 length               11325 to matrix element file.
 Write CORE HAMILTONIAN BETA               from file  10515 offset       11325 length               11325 to matrix element file.
 Write KINETIC ENERGY                      from file  10516 offset           0 length               11325 to matrix element file.
 Write ORTHOGONAL BASIS                    from file  10685 offset           0 length               22500 to matrix element file.
 Write DIPOLE INTEGRALS                    from file  10518 offset           0 length               33975 to matrix element file.
 Array DIP VEL INTEGRALS                    on  file  10572 does not exist.
 Array R X DEL INTEGRALS                    on  file  10572 does not exist.
 Write ALPHA ORBITAL ENERGIES              from file      0 offset           0 length                 150 to matrix element file.
 Write BETA ORBITAL ENERGIES               from file      0 offset           0 length                 150 to matrix element file.
 Write ALPHA MO COEFFICIENTS               from file  10524 offset           0 length               22500 to matrix element file.
 Write BETA MO COEFFICIENTS                from file  10526 offset           0 length               22500 to matrix element file.
 Write ALPHA DENSITY MATRIX                from file      0 offset           0 length               11325 to matrix element file.
 Write BETA DENSITY MATRIX                 from file      0 offset           0 length               11325 to matrix element file.
 Write ALPHA FOCK MATRIX                   from file  10536 offset           0 length               11325 to matrix element file.
 Write BETA FOCK MATRIX                    from file  10538 offset           0 length               11325 to matrix element file.
 Write ENERGY-WEIGHTED DENSITY             from file  10571 offset           0 length               11325 to matrix element file.
 Write ALPHA SCF DENSITY MATRIX            from file      0 offset           0 length               11325 to matrix element file.
 Write BETA SCF DENSITY MATRIX             from file      0 offset           0 length               11325 to matrix element file.
 No 2e integrals to process.
 Perform NBO analysis...

 *********************************** NBO 7.0 ***********************************
             N A T U R A L   A T O M I C   O R B I T A L   A N D
          N A T U R A L   B O N D   O R B I T A L   A N A L Y S I S
 **************************** Robert Paton (I101709) ***************************
  (c) Copyright 1996-2019 Board of Regents of the University of Wisconsin System
      on behalf of the Theoretical Chemistry Institute.  All rights reserved.

          Cite this program [NBO 7.0.5 (4-Jun-2019)] as:

          NBO 7.0.  E. D. Glendening, J. K. Badenhoop, A. E. Reed,
          J. E. Carpenter, J. A. Bohmann, C. M. Morales, P. Karafiloglou,
          C. R. Landis, and F. Weinhold, Theoretical Chemistry Institute,
          University of Wisconsin, Madison, WI (2018)

 Filename set to /home/rpaton/opt/midi/fukui/Gau-1677765

 Job title:  arbr32_wb97xd_popncreated by GaussianPrep


 NATURAL POPULATIONS:  Natural atomic orbital occupancies

  NAO Atom No lang   Type(AO)    Occupancy     Spin
 -----------------------------------------------------
   1    O  1  s      Cor( 1s)     1.99989     0.00000
   2    O  1  s      Val( 2s)     1.70821     0.00212
   3    O  1  s      Ryd( 3s)     0.00081    -0.00001
   4    O  1  px     Val( 2p)     1.77130     0.02956
   5    O  1  px     Ryd( 3p)     0.00074    -0.00001
   6    O  1  py     Val( 2p)     1.61223     0.00129
   7    O  1  py     Ryd( 3p)     0.00024    -0.00001
   8    O  1  pz     Val( 2p)     1.31842     0.11937
   9    O  1  pz     Ryd( 3p)     0.00040     0.00003
  10    O  1  dxy    Ryd( 3d)     0.00464     0.00006
  11    O  1  dxz    Ryd( 3d)     0.00102     0.00001
  12    O  1  dyz    Ryd( 3d)     0.00384     0.00019
  13    O  1  dx2y2  Ryd( 3d)     0.00525     0.00001
  14    O  1  dz2    Ryd( 3d)     0.00190     0.00002

  15    C  2  s      Cor( 1s)     1.99983     0.00000
  16    C  2  s      Val( 2s)     0.77767    -0.00561
  17    C  2  s      Ryd( 3s)     0.00375    -0.00007
  18    C  2  px     Val( 2p)     0.86533    -0.00626
  19    C  2  px     Ryd( 3p)     0.01304    -0.00004
  20    C  2  py     Val( 2p)     0.71493    -0.00276
  21    C  2  py     Ryd( 3p)     0.01776    -0.00005
  22    C  2  pz     Val( 2p)     0.84323    -0.04103
  23    C  2  pz     Ryd( 3p)     0.00240    -0.00002

  24    O  3  s      Cor( 1s)     1.99985     0.00000
  25    O  3  s      Val( 2s)     1.62359    -0.00067
  26    O  3  s      Ryd( 3s)     0.00147    -0.00003
  27    O  3  px     Val( 2p)     1.71153     0.00019
  28    O  3  px     Ryd( 3p)     0.00140    -0.00001
  29    O  3  py     Val( 2p)     1.38512    -0.00124
  30    O  3  py     Ryd( 3p)     0.00026     0.00000
  31    O  3  pz     Val( 2p)     1.73985    -0.01381
  32    O  3  pz     Ryd( 3p)     0.00079    -0.00003
  33    O  3  dxy    Ryd( 3d)     0.00545     0.00002
  34    O  3  dxz    Ryd( 3d)     0.00283     0.00002
  35    O  3  dyz    Ryd( 3d)     0.00095     0.00001
  36    O  3  dx2y2  Ryd( 3d)     0.00188     0.00000
  37    O  3  dz2    Ryd( 3d)     0.00226     0.00000

  38    C  4  s      Cor( 1s)     1.99977     0.00000
  39    C  4  s      Val( 2s)     1.05188     0.00008
  40    C  4  s      Ryd( 3s)     0.00136     0.00000
  41    C  4  px     Val( 2p)     1.07915     0.00124
  42    C  4  px     Ryd( 3p)     0.00416     0.00000
  43    C  4  py     Val( 2p)     0.87307     0.00015
  44    C  4  py     Ryd( 3p)     0.00322    -0.00001
  45    C  4  pz     Val( 2p)     1.15090     0.00027
  46    C  4  pz     Ryd( 3p)     0.00139    -0.00001

  47    C  5  s      Cor( 1s)     1.99976     0.00000
  48    C  5  s      Val( 2s)     1.04421    -0.00015
  49    C  5  s      Ryd( 3s)     0.00109     0.00000
  50    C  5  px     Val( 2p)     1.08293    -0.00028
  51    C  5  px     Ryd( 3p)     0.00309    -0.00002
  52    C  5  py     Val( 2p)     1.16851    -0.00010
  53    C  5  py     Ryd( 3p)     0.00232     0.00001
  54    C  5  pz     Val( 2p)     1.25669     0.00340
  55    C  5  pz     Ryd( 3p)     0.00100    -0.00001

  56    C  6  s      Cor( 1s)     1.99989     0.00000
  57    C  6  s      Val( 2s)     0.86499    -0.00156
  58    C  6  s      Ryd( 3s)     0.00130     0.00003
  59    C  6  px     Val( 2p)     1.09932    -0.00084
  60    C  6  px     Ryd( 3p)     0.00538     0.00005
  61    C  6  py     Val( 2p)     1.08605    -0.00438
  62    C  6  py     Ryd( 3p)     0.00468     0.00004
  63    C  6  pz     Val( 2p)     0.90237     0.01221
  64    C  6  pz     Ryd( 3p)     0.00116     0.00001

  65    C  7  s      Cor( 1s)     1.99985     0.00000
  66    C  7  s      Val( 2s)     0.95003     0.00011
  67    C  7  s      Ryd( 3s)     0.00135     0.00000
  68    C  7  px     Val( 2p)     1.08193    -0.00065
  69    C  7  px     Ryd( 3p)     0.00640     0.00001
  70    C  7  py     Val( 2p)     1.20870    -0.00124
  71    C  7  py     Ryd( 3p)     0.00657     0.00001
  72    C  7  pz     Val( 2p)     0.95865     0.03687
  73    C  7  pz     Ryd( 3p)     0.00047     0.00000

  74    C  8  s      Cor( 1s)     1.99989     0.00000
  75    C  8  s      Val( 2s)     0.96476     0.00665
  76    C  8  s      Ryd( 3s)     0.00052    -0.00003
  77    C  8  px     Val( 2p)     1.02531     0.00187
  78    C  8  px     Ryd( 3p)     0.00666    -0.00015
  79    C  8  py     Val( 2p)     1.11181     0.00327
  80    C  8  py     Ryd( 3p)     0.00847    -0.00008
  81    C  8  pz     Val( 2p)     0.92552     0.18452
  82    C  8  pz     Ryd( 3p)     0.00108    -0.00023

  83   Br  9  s      Cor( 3s)     2.00000     0.00000
  84   Br  9  s      Cor( 1s)     2.00000     0.00000
  85   Br  9  s      Cor( 2s)     1.99999     0.00000
  86   Br  9  s      Val( 4s)     1.87930     0.00208
  87   Br  9  s      Ryd( 5s)     0.00292     0.00009
  88   Br  9  px     Cor( 3p)     2.00000     0.00000
  89   Br  9  px     Cor( 2p)     1.99999     0.00000
  90   Br  9  px     Val( 4p)     1.09296    -0.00450
  91   Br  9  px     Ryd( 5p)     0.00327     0.00014
  92   Br  9  py     Cor( 3p)     2.00000     0.00000
  93   Br  9  py     Cor( 2p)     1.99999     0.00000
  94   Br  9  py     Val( 4p)     1.95725     0.00333
  95   Br  9  py     Ryd( 5p)     0.00164    -0.00006
  96   Br  9  pz     Cor( 3p)     2.00000     0.00000
  97   Br  9  pz     Cor( 2p)     2.00000     0.00000
  98   Br  9  pz     Val( 4p)     1.64620     0.29970
  99   Br  9  pz     Ryd( 5p)     0.00057     0.00011
 100   Br  9  dxy    Cor( 3d)     1.99968     0.00000
 101   Br  9  dxy    Ryd( 4d)     0.00125    -0.00006
 102   Br  9  dxz    Cor( 3d)     1.99986     0.00001
 103   Br  9  dxz    Ryd( 4d)     0.00304    -0.00095
 104   Br  9  dyz    Cor( 3d)     1.99999     0.00000
 105   Br  9  dyz    Ryd( 4d)     0.00012    -0.00002
 106   Br  9  dx2y2  Cor( 3d)     1.99944     0.00000
 107   Br  9  dx2y2  Ryd( 4d)     0.00499    -0.00009
 108   Br  9  dz2    Cor( 3d)     1.99980     0.00000
 109   Br  9  dz2    Ryd( 4d)     0.00172     0.00011

 110    C 10  s      Cor( 1s)     1.99986     0.00000
 111    C 10  s      Val( 2s)     0.96812     0.00354
 112    C 10  s      Ryd( 3s)     0.00120    -0.00001
 113    C 10  px     Val( 2p)     1.14027     0.00280
 114    C 10  px     Ryd( 3p)     0.00715     0.00003
 115    C 10  py     Val( 2p)     1.15396     0.00039
 116    C 10  py     Ryd( 3p)     0.00535    -0.00001
 117    C 10  pz     Val( 2p)     0.91151     0.11489
 118    C 10  pz     Ryd( 3p)     0.00055     0.00001

 119    C 11  s      Cor( 1s)     1.99984     0.00000
 120    C 11  s      Val( 2s)     0.96221    -0.00414
 121    C 11  s      Ryd( 3s)     0.00111     0.00003
 122    C 11  px     Val( 2p)     1.07713    -0.00509
 123    C 11  px     Ryd( 3p)     0.00745     0.00003
 124    C 11  py     Val( 2p)     1.21484    -0.00469
 125    C 11  py     Ryd( 3p)     0.00615     0.00007
 126    C 11  pz     Val( 2p)     0.91583    -0.04333
 127    C 11  pz     Ryd( 3p)     0.00033     0.00003

 128    C 12  s      Cor( 1s)     1.99988     0.00000
 129    C 12  s      Val( 2s)     0.90718     0.01158
 130    C 12  s      Ryd( 3s)     0.00184     0.00000
 131    C 12  px     Val( 2p)     1.13510     0.00809
 132    C 12  px     Ryd( 3p)     0.00451    -0.00001
 133    C 12  py     Val( 2p)     1.09995     0.00931
 134    C 12  py     Ryd( 3p)     0.00324    -0.00003
 135    C 12  pz     Val( 2p)     0.84777     0.28484
 136    C 12  pz     Ryd( 3p)     0.00023     0.00005

 137    H 13  s      Val( 1s)     0.71313     0.00154
 138    H 13  s      Ryd( 2s)     0.00080     0.00001

 139    H 14  s      Val( 1s)     0.74778    -0.00073
 140    H 14  s      Ryd( 2s)     0.00157    -0.00002

 141    H 15  s      Val( 1s)     0.70022     0.00053
 142    H 15  s      Ryd( 2s)     0.00110     0.00000

 143    H 16  s      Val( 1s)     0.68852     0.00239
 144    H 16  s      Ryd( 2s)     0.00182     0.00001

 145    H 17  s      Val( 1s)     0.69993    -0.00147
 146    H 17  s      Ryd( 2s)     0.00103    -0.00002

 147    H 18  s      Val( 1s)     0.69510    -0.00401
 148    H 18  s      Ryd( 2s)     0.00102    -0.00002

 149    H 19  s      Val( 1s)     0.68669     0.00133
 150    H 19  s      Ryd( 2s)     0.00309    -0.00008


 Summary of Natural Population Analysis:

                                     Natural Population                 Natural
             Natural    ---------------------------------------------    Spin
  Atom No    Charge        Core      Valence    Rydberg      Total      Density
 -------------------------------------------------------------------------------
    O  1   -0.42889      1.99989     6.41017    0.01883     8.42889     0.15264
    C  2    0.76206      1.99983     3.20116    0.03695     5.23794    -0.05584
    O  3   -0.47722      1.99985     6.46009    0.01728     8.47722    -0.01555
    C  4   -0.16491      1.99977     4.15501    0.01014     6.16491     0.00171
    C  5   -0.55960      1.99976     4.55234    0.00751     6.55960     0.00286
    C  6    0.03487      1.99989     3.95273    0.01252     5.96513     0.00554
    C  7   -0.21396      1.99985     4.19932    0.01480     6.21396     0.03511
    C  8   -0.04403      1.99989     4.02740    0.01673     6.04403     0.19582
   Br  9    0.40604     27.99874     6.57570    0.01951    34.59396     0.29988
    C 10   -0.18796      1.99986     4.17385    0.01425     6.18796     0.12165
    C 11   -0.18489      1.99984     4.17001    0.01504     6.18489    -0.05708
    C 12    0.00028      1.99988     3.99000    0.00983     5.99972     0.31383
    H 13    0.28607      0.00000     0.71313    0.00080     0.71393     0.00155
    H 14    0.25066      0.00000     0.74778    0.00157     0.74934    -0.00075
    H 15    0.29868      0.00000     0.70022    0.00110     0.70132     0.00053
    H 16    0.30966      0.00000     0.68852    0.00182     0.69034     0.00239
    H 17    0.29904      0.00000     0.69993    0.00103     0.70096    -0.00149
    H 18    0.30388      0.00000     0.69510    0.00102     0.69612    -0.00403
    H 19    0.31022      0.00000     0.68669    0.00309     0.68978     0.00125
 ===============================================================================
 * Total *  1.00000     49.99705    60.79913    0.20383   111.00000     1.00000

                                 Natural Population
 ---------------------------------------------------------
   Core                      49.99705 ( 99.9941% of   50)
   Valence                   60.79913 ( 99.6707% of   61)
   Natural Minimal Basis    110.79617 ( 99.8164% of  111)
   Natural Rydberg Basis      0.20383 (  0.1836% of  111)
 ---------------------------------------------------------

    Atom No         Natural Electron Configuration
 ----------------------------------------------------------------------------
      O  1      [core]2s( 1.71)2p( 4.70)3d( 0.02)
      C  2      [core]2s( 0.78)2p( 2.42)3p( 0.03)
      O  3      [core]2s( 1.62)2p( 4.84)3d( 0.01)
      C  4      [core]2s( 1.05)2p( 3.10)3p( 0.01)
      C  5      [core]2s( 1.04)2p( 3.51)3p( 0.01)
      C  6      [core]2s( 0.86)2p( 3.09)3p( 0.01)
      C  7      [core]2s( 0.95)2p( 3.25)3p( 0.01)
      C  8      [core]2s( 0.96)2p( 3.06)3p( 0.02)
     Br  9      [core]4s( 1.88)4p( 4.70)4d( 0.01)5p( 0.01)
      C 10      [core]2s( 0.97)2p( 3.21)3p( 0.01)
      C 11      [core]2s( 0.96)2p( 3.21)3p( 0.01)
      C 12      [core]2s( 0.91)2p( 3.08)3p( 0.01)
      H 13            1s( 0.71)
      H 14            1s( 0.75)
      H 15            1s( 0.70)
      H 16            1s( 0.69)
      H 17            1s( 0.70)
      H 18            1s( 0.70)
      H 19            1s( 0.69)


 ***************************************************
 *******         Alpha spin orbitals         *******
 ***************************************************


 NATURAL POPULATIONS:  Natural atomic orbital occupancies

  NAO Atom No lang   Type(AO)    Occupancy      Energy
 -------------------------------------------------------
   1    O  1  s      Cor( 1s)     0.99995     -19.30643
   2    O  1  s      Val( 2s)     0.85517      -0.91632
   3    O  1  s      Ryd( 3s)     0.00040       1.65155
   4    O  1  px     Val( 2p)     0.90043      -0.48335
   5    O  1  px     Ryd( 3p)     0.00036       1.71143
   6    O  1  py     Val( 2p)     0.80676      -0.48683
   7    O  1  py     Ryd( 3p)     0.00012       1.81222
   8    O  1  pz     Val( 2p)     0.71890      -0.44457
   9    O  1  pz     Ryd( 3p)     0.00022       1.52199
  10    O  1  dxy    Ryd( 3d)     0.00235       2.12547
  11    O  1  dxz    Ryd( 3d)     0.00052       1.73697
  12    O  1  dyz    Ryd( 3d)     0.00201       1.79410
  13    O  1  dx2y2  Ryd( 3d)     0.00263       2.13199
  14    O  1  dz2    Ryd( 3d)     0.00096       1.92466

  15    C  2  s      Cor( 1s)     0.99991     -10.53081
  16    C  2  s      Val( 2s)     0.38603      -0.25152
  17    C  2  s      Ryd( 3s)     0.00184       0.59073
  18    C  2  px     Val( 2p)     0.42953      -0.15574
  19    C  2  px     Ryd( 3p)     0.00650       0.88451
  20    C  2  py     Val( 2p)     0.35608      -0.08764
  21    C  2  py     Ryd( 3p)     0.00885       0.93985
  22    C  2  pz     Val( 2p)     0.40110      -0.28253
  23    C  2  pz     Ryd( 3p)     0.00119       0.74262

  24    O  3  s      Cor( 1s)     0.99993     -19.34532
  25    O  3  s      Val( 2s)     0.81146      -0.93346
  26    O  3  s      Ryd( 3s)     0.00072       1.75109
  27    O  3  px     Val( 2p)     0.85586      -0.52341
  28    O  3  px     Ryd( 3p)     0.00070       1.70245
  29    O  3  py     Val( 2p)     0.69194      -0.46533
  30    O  3  py     Ryd( 3p)     0.00013       2.00961
  31    O  3  pz     Val( 2p)     0.86302      -0.50980
  32    O  3  pz     Ryd( 3p)     0.00038       1.59313
  33    O  3  dxy    Ryd( 3d)     0.00273       2.13283
  34    O  3  dxz    Ryd( 3d)     0.00142       1.76105
  35    O  3  dyz    Ryd( 3d)     0.00048       1.84386
  36    O  3  dx2y2  Ryd( 3d)     0.00094       1.98112
  37    O  3  dz2    Ryd( 3d)     0.00113       1.88385

  38    C  4  s      Cor( 1s)     0.99988     -10.44222
  39    C  4  s      Val( 2s)     0.52598      -0.36476
  40    C  4  s      Ryd( 3s)     0.00068       0.94059
  41    C  4  px     Val( 2p)     0.54019      -0.24356
  42    C  4  px     Ryd( 3p)     0.00208       0.86952
  43    C  4  py     Val( 2p)     0.43661      -0.22198
  44    C  4  py     Ryd( 3p)     0.00160       0.86799
  45    C  4  pz     Val( 2p)     0.57559      -0.26051
  46    C  4  pz     Ryd( 3p)     0.00069       0.85585

  47    C  5  s      Cor( 1s)     0.99988     -10.41015
  48    C  5  s      Val( 2s)     0.52203      -0.34516
  49    C  5  s      Ryd( 3s)     0.00054       1.02337
  50    C  5  px     Val( 2p)     0.54133      -0.25711
  51    C  5  px     Ryd( 3p)     0.00153       0.85089
  52    C  5  py     Val( 2p)     0.58421      -0.27211
  53    C  5  py     Ryd( 3p)     0.00116       0.83064
  54    C  5  pz     Val( 2p)     0.63005      -0.29478
  55    C  5  pz     Ryd( 3p)     0.00050       0.89348

  56    C  6  s      Cor( 1s)     0.99994     -10.46744
  57    C  6  s      Val( 2s)     0.43171      -0.24684
  58    C  6  s      Ryd( 3s)     0.00066       0.55943
  59    C  6  px     Val( 2p)     0.54924      -0.23991
  60    C  6  px     Ryd( 3p)     0.00271       1.23461
  61    C  6  py     Val( 2p)     0.54083      -0.24114
  62    C  6  py     Ryd( 3p)     0.00236       1.20725
  63    C  6  pz     Val( 2p)     0.45729      -0.31152
  64    C  6  pz     Ryd( 3p)     0.00058       0.82194

  65    C  7  s      Cor( 1s)     0.99992     -10.45471
  66    C  7  s      Val( 2s)     0.47507      -0.28499
  67    C  7  s      Ryd( 3s)     0.00067       0.53852
  68    C  7  px     Val( 2p)     0.54064      -0.23258
  69    C  7  px     Ryd( 3p)     0.00321       0.85585
  70    C  7  py     Val( 2p)     0.60373      -0.28563
  71    C  7  py     Ryd( 3p)     0.00329       1.13378
  72    C  7  pz     Val( 2p)     0.49776      -0.32691
  73    C  7  pz     Ryd( 3p)     0.00024       0.74191

  74    C  8  s      Cor( 1s)     0.99995     -10.53011
  75    C  8  s      Val( 2s)     0.48570      -0.38803
  76    C  8  s      Ryd( 3s)     0.00025       0.51310
  77    C  8  px     Val( 2p)     0.51359      -0.35534
  78    C  8  px     Ryd( 3p)     0.00325       1.13733
  79    C  8  py     Val( 2p)     0.55754      -0.28652
  80    C  8  py     Ryd( 3p)     0.00420       0.89409
  81    C  8  pz     Val( 2p)     0.55502      -0.39655
  82    C  8  pz     Ryd( 3p)     0.00043       0.72692

  83   Br  9  s      Cor( 3s)     1.00000     -23.72093
  84   Br  9  s      Cor( 1s)     1.00000    -448.56209
  85   Br  9  s      Cor( 2s)     1.00000     -80.02374
  86   Br  9  s      Val( 4s)     0.94069      -0.99385
  87   Br  9  s      Ryd( 5s)     0.00150       0.66408
  88   Br  9  px     Cor( 3p)     1.00000      -7.35886
  89   Br  9  px     Cor( 2p)     0.99999     -55.94168
  90   Br  9  px     Val( 4p)     0.54423      -0.43509
  91   Br  9  px     Ryd( 5p)     0.00170       0.54083
  92   Br  9  py     Cor( 3p)     1.00000      -7.34352
  93   Br  9  py     Cor( 2p)     1.00000     -55.93783
  94   Br  9  py     Val( 4p)     0.98029      -0.56748
  95   Br  9  py     Ryd( 5p)     0.00079       0.57097
  96   Br  9  pz     Cor( 3p)     1.00000      -7.35066
  97   Br  9  pz     Cor( 2p)     1.00000     -55.94009
  98   Br  9  pz     Val( 4p)     0.97295      -0.58130
  99   Br  9  pz     Ryd( 5p)     0.00034       0.52790
 100   Br  9  dxy    Cor( 3d)     0.99984      -2.99787
 101   Br  9  dxy    Ryd( 4d)     0.00060       0.71372
 102   Br  9  dxz    Cor( 3d)     0.99993      -3.00306
 103   Br  9  dxz    Ryd( 4d)     0.00104       0.50209
 104   Br  9  dyz    Cor( 3d)     1.00000      -2.99103
 105   Br  9  dyz    Ryd( 4d)     0.00005       0.43205
 106   Br  9  dx2y2  Cor( 3d)     0.99972      -2.99807
 107   Br  9  dx2y2  Ryd( 4d)     0.00245       0.77619
 108   Br  9  dz2    Cor( 3d)     0.99990      -2.99685
 109   Br  9  dz2    Ryd( 4d)     0.00091       0.53867

 110    C 10  s      Cor( 1s)     0.99993     -10.46033
 111    C 10  s      Val( 2s)     0.48583      -0.30564
 112    C 10  s      Ryd( 3s)     0.00059       0.54480
 113    C 10  px     Val( 2p)     0.57154      -0.25193
 114    C 10  px     Ryd( 3p)     0.00359       0.94370
 115    C 10  py     Val( 2p)     0.57717      -0.26994
 116    C 10  py     Ryd( 3p)     0.00267       1.04018
 117    C 10  pz     Val( 2p)     0.51320      -0.33762
 118    C 10  pz     Ryd( 3p)     0.00028       0.73355

 119    C 11  s      Cor( 1s)     0.99992     -10.44624
 120    C 11  s      Val( 2s)     0.47903      -0.27791
 121    C 11  s      Ryd( 3s)     0.00057       0.55969
 122    C 11  px     Val( 2p)     0.53602      -0.21727
 123    C 11  px     Ryd( 3p)     0.00374       0.93160
 124    C 11  py     Val( 2p)     0.60508      -0.26732
 125    C 11  py     Ryd( 3p)     0.00311       1.13223
 126    C 11  pz     Val( 2p)     0.43625      -0.29791
 127    C 11  pz     Ryd( 3p)     0.00018       0.74932

 128    C 12  s      Cor( 1s)     0.99994     -10.48004
 129    C 12  s      Val( 2s)     0.45938      -0.28572
 130    C 12  s      Ryd( 3s)     0.00092       0.54000
 131    C 12  px     Val( 2p)     0.57159      -0.28450
 132    C 12  px     Ryd( 3p)     0.00225       1.31625
 133    C 12  py     Val( 2p)     0.55463      -0.24644
 134    C 12  py     Ryd( 3p)     0.00161       1.23809
 135    C 12  pz     Val( 2p)     0.56630      -0.36736
 136    C 12  pz     Ryd( 3p)     0.00014       0.80573

 137    H 13  s      Val( 1s)     0.35733       0.00480
 138    H 13  s      Ryd( 2s)     0.00041       0.46039

 139    H 14  s      Val( 1s)     0.37352      -0.03054
 140    H 14  s      Ryd( 2s)     0.00077       0.47819

 141    H 15  s      Val( 1s)     0.35037      -0.02145
 142    H 15  s      Ryd( 2s)     0.00055       0.48180

 143    H 16  s      Val( 1s)     0.34546      -0.01583
 144    H 16  s      Ryd( 2s)     0.00091       0.47835

 145    H 17  s      Val( 1s)     0.34923      -0.02461
 146    H 17  s      Ryd( 2s)     0.00050       0.45610

 147    H 18  s      Val( 1s)     0.34554      -0.01431
 148    H 18  s      Ryd( 2s)     0.00050       0.44326

 149    H 19  s      Val( 1s)     0.34401       0.00367
 150    H 19  s      Ryd( 2s)     0.00151       0.48143


 Summary of Natural Population Analysis:

                                     Natural Population
             Natural    ---------------------------------------------
  Atom No    Charge        Core      Valence    Rydberg      Total
 --------------------------------------------------------------------
    O  1   -0.29077      0.99995     3.28125    0.00957     4.29077
    C  2    0.40895      0.99991     1.57275    0.01838     2.59105
    O  3   -0.23084      0.99993     3.22228    0.00863     4.23084
    C  4   -0.08331      0.99988     2.07837    0.00506     3.08331
    C  5   -0.28123      0.99988     2.27761    0.00374     3.28123
    C  6    0.01466      0.99994     1.97908    0.00632     2.98534
    C  7   -0.12453      0.99992     2.11721    0.00741     3.12453
    C  8   -0.11992      0.99995     2.11186    0.00812     3.11992
   Br  9    0.05308     13.99938     3.43816    0.00938    17.44692
    C 10   -0.15480      0.99993     2.14774    0.00714     3.15480
    C 11   -0.06390      0.99992     2.05638    0.00760     3.06390
    C 12   -0.15677      0.99994     2.15191    0.00492     3.15677
    H 13    0.14226      0.00000     0.35733    0.00041     0.35774
    H 14    0.12570      0.00000     0.37352    0.00077     0.37430
    H 15    0.14908      0.00000     0.35037    0.00055     0.35092
    H 16    0.15363      0.00000     0.34546    0.00091     0.34637
    H 17    0.15027      0.00000     0.34923    0.00050     0.34973
    H 18    0.15395      0.00000     0.34554    0.00050     0.34605
    H 19    0.15449      0.00000     0.34401    0.00151     0.34551
 ====================================================================
 * Total *  0.00000     24.99853    30.90005    0.10142    56.00000

                                 Natural Population
 ---------------------------------------------------------
   Core                      24.99853 ( 99.9941% of   25)
   Valence                   30.90005 ( 99.6776% of   31)
   Natural Minimal Basis     55.89858 ( 99.8189% of   56)
   Natural Rydberg Basis      0.10142 (  0.1811% of   56)
 ---------------------------------------------------------

    Atom No         Natural Electron Configuration
 ----------------------------------------------------------------------------
      O  1      [core]2s( 0.86)2p( 2.43)3d( 0.01)
      C  2      [core]2s( 0.39)2p( 1.19)3p( 0.02)
      O  3      [core]2s( 0.81)2p( 2.41)3d( 0.01)
      C  4      [core]2s( 0.53)2p( 1.55)
      C  5      [core]2s( 0.52)2p( 1.76)
      C  6      [core]2s( 0.43)2p( 1.55)3p( 0.01)
      C  7      [core]2s( 0.48)2p( 1.64)3p( 0.01)
      C  8      [core]2s( 0.49)2p( 1.63)3p( 0.01)
     Br  9      [core]4s( 0.94)4p( 2.50)4d( 0.01)
      C 10      [core]2s( 0.49)2p( 1.66)3p( 0.01)
      C 11      [core]2s( 0.48)2p( 1.58)3p( 0.01)
      C 12      [core]2s( 0.46)2p( 1.69)
      H 13            1s( 0.36)
      H 14            1s( 0.37)
      H 15            1s( 0.35)
      H 16            1s( 0.35)
      H 17            1s( 0.35)
      H 18            1s( 0.35)
      H 19            1s( 0.34)


 NATURAL BOND ORBITAL ANALYSIS, alpha spin orbitals:

                            Occupancies       Lewis Structure    Low   High
         Max    Occ     -------------------  -----------------   occ   occ
  Cycle  Ctr   Thresh    Lewis   non-Lewis     CR  BD  nC  LP    (L)   (NL)
 ============================================================================
    1     2     0.95    54.02676   1.97324     25  21   0  10     5      4
[...]
   45. BD ( 1) C  6- C 12     107. RY ( 1) C  5            0.60    1.86   0.042
   45. BD ( 1) C  6- C 12     115. RY ( 1) C  7            0.26    2.08   0.029
   45. BD ( 1) C  6- C 12     116. RY ( 2) C  7            0.90    1.73   0.050
   45. BD ( 1) C  6- C 12     136. RY ( 1) C 11            1.04    2.02   0.058
   46. BD ( 1) C  7- C  8      65. BD*( 1) C  5- C  6      1.02    1.26   0.045
   46. BD ( 1) C  7- C  8      68. BD*( 1) C  6- C  7      1.21    1.41   0.052
   46. BD ( 1) C  7- C  8      72. BD*( 1) C  7- H 17      0.94    1.33   0.045
   46. BD ( 1) C  7- C  8      75. BD*( 1) C  8- C 10      1.55    1.38   0.058
   46. BD ( 1) C  7- C  8      78. BD*( 1) C 10- H 18      0.74    1.34   0.040
   46. BD ( 1) C  7- C  8     111. RY ( 1) C  6            0.43    2.25   0.039
   46. BD ( 1) C  7- C  8     112. RY ( 2) C  6            1.10    2.04   0.060
   46. BD ( 1) C  7- C  8     132. RY ( 1) C 10            0.79    2.08   0.051
   46. BD ( 1) C  7- C  8     133. RY ( 2) C 10            0.39    1.79   0.033
   47. BD ( 1) C  7- H 17      65. BD*( 1) C  5- C  6      0.31    1.09   0.023
   47. BD ( 1) C  7- H 17      68. BD*( 1) C  6- C  7      0.72    1.25   0.038
   47. BD ( 1) C  7- H 17      70. BD*( 1) C  6- C 12      1.56    1.24   0.056
   47. BD ( 1) C  7- H 17      71. BD*( 1) C  7- C  8      0.44    1.22   0.029
   47. BD ( 1) C  7- H 17      73. BD*( 1) C  8-Br  9      0.48    0.74   0.024
   47. BD ( 1) C  7- H 17      75. BD*( 1) C  8- C 10      1.41    1.21   0.052
   47. BD ( 1) C  7- H 17     111. RY ( 1) C  6            0.88    2.08   0.054
   47. BD ( 1) C  7- H 17     120. RY ( 2) C  8            0.81    1.92   0.050
   48. BD ( 1) C  8-Br  9      68. BD*( 1) C  6- C  7      1.18    1.32   0.050
   48. BD ( 1) C  8-Br  9      76. BD*( 1) C 10- C 11      1.09    1.32   0.048
   48. BD ( 1) C  8-Br  9     115. RY ( 1) C  7            1.35    2.01   0.066
   48. BD ( 1) C  8-Br  9     132. RY ( 1) C 10            1.32    1.98   0.065
   49. BD ( 2) C  8-Br  9      69. BD*( 2) C  6- C  7      7.13    0.47   0.073
   49. BD ( 2) C  8-Br  9      74. BD*( 2) C  8-Br  9      0.79    0.32   0.020
   49. BD ( 2) C  8-Br  9      77. BD*( 2) C 10- C 11      7.77    0.47   0.076
   49. BD ( 2) C  8-Br  9     118. RY ( 4) C  7            0.38    1.31   0.028
   49. BD ( 2) C  8-Br  9     135. RY ( 4) C 10            0.38    1.30   0.028
   50. BD ( 1) C  8- C 10      71. BD*( 1) C  7- C  8      1.56    1.38   0.059
   50. BD ( 1) C  8- C 10      72. BD*( 1) C  7- H 17      0.79    1.33   0.041
   50. BD ( 1) C  8- C 10      76. BD*( 1) C 10- C 11      0.97    1.42   0.047
   50. BD ( 1) C  8- C 10      78. BD*( 1) C 10- H 18      0.84    1.34   0.042
   50. BD ( 1) C  8- C 10      80. BD*( 1) C 11- H 19      0.68    1.36   0.038
   50. BD ( 1) C  8- C 10     115. RY ( 1) C  7            0.62    2.11   0.046
   50. BD ( 1) C  8- C 10     116. RY ( 2) C  7            0.62    1.76   0.042
   50. BD ( 1) C  8- C 10     137. RY ( 2) C 11            1.46    1.88   0.066
   51. BD ( 1) C 10- C 11      60. BD*( 1) C  2- C 12      1.00    1.22   0.044
   51. BD ( 1) C 10- C 11      73. BD*( 1) C  8-Br  9      1.90    0.88   0.052
   51. BD ( 1) C 10- C 11      75. BD*( 1) C  8- C 10      1.14    1.35   0.050
   51. BD ( 1) C 10- C 11      78. BD*( 1) C 10- H 18      0.88    1.31   0.043
   51. BD ( 1) C 10- C 11      79. BD*( 1) C 11- C 12      1.12    1.38   0.050
   51. BD ( 1) C 10- C 11      80. BD*( 1) C 11- H 19      0.86    1.32   0.042
   51. BD ( 1) C 10- C 11     119. RY ( 1) C  8            0.88    1.79   0.050
   51. BD ( 1) C 10- C 11     120. RY ( 2) C  8            0.43    2.06   0.037
   51. BD ( 1) C 10- C 11     141. RY ( 2) C 12            1.13    2.08   0.061
   52. BD ( 2) C 10- C 11      56. LV ( 1) C 12           49.28    0.25   0.141
   52. BD ( 2) C 10- C 11      74. BD*( 2) C  8-Br  9     19.74    0.27   0.091
   52. BD ( 2) C 10- C 11     121. RY ( 3) C  8            0.28    1.25   0.024
   52. BD ( 2) C 10- C 11     143. RY ( 4) C 12            0.27    1.33   0.024
   53. BD ( 1) C 10- H 18      71. BD*( 1) C  7- C  8      1.43    1.22   0.053
   53. BD ( 1) C 10- H 18      73. BD*( 1) C  8-Br  9      0.49    0.74   0.024
   53. BD ( 1) C 10- H 18      75. BD*( 1) C  8- C 10      0.38    1.21   0.027
   53. BD ( 1) C 10- H 18      76. BD*( 1) C 10- C 11      0.61    1.25   0.035
   53. BD ( 1) C 10- H 18      79. BD*( 1) C 11- C 12      1.38    1.24   0.052
   53. BD ( 1) C 10- H 18     120. RY ( 2) C  8            0.77    1.93   0.049
   53. BD ( 1) C 10- H 18     136. RY ( 1) C 11            0.62    1.88   0.043
   54. BD ( 1) C 11- C 12      59. BD*( 1) C  2- O  3      0.97    1.17   0.043
   54. BD ( 1) C 11- C 12      60. BD*( 1) C  2- C 12      1.10    1.22   0.046
   54. BD ( 1) C 11- C 12      65. BD*( 1) C  5- C  6      1.01    1.22   0.044
   54. BD ( 1) C 11- C 12      70. BD*( 1) C  6- C 12      1.90    1.37   0.064
   54. BD ( 1) C 11- C 12      76. BD*( 1) C 10- C 11      0.99    1.38   0.047
   54. BD ( 1) C 11- C 12      78. BD*( 1) C 10- H 18      0.78    1.31   0.040
   54. BD ( 1) C 11- C 12      80. BD*( 1) C 11- H 19      0.79    1.32   0.041
   54. BD ( 1) C 11- C 12      90. RY ( 1) C  2            1.17    1.73   0.057
   54. BD ( 1) C 11- C 12     111. RY ( 1) C  6            0.61    2.21   0.047
   54. BD ( 1) C 11- C 12     112. RY ( 2) C  6            0.61    2.00   0.044
   54. BD ( 1) C 11- C 12     133. RY ( 2) C 10            1.18    1.75   0.057
   55. BD ( 1) C 11- H 19      60. BD*( 1) C  2- C 12      0.40    1.07   0.026
   55. BD ( 1) C 11- H 19      70. BD*( 1) C  6- C 12      1.67    1.22   0.057
   55. BD ( 1) C 11- H 19      75. BD*( 1) C  8- C 10      1.50    1.20   0.053
   55. BD ( 1) C 11- H 19      76. BD*( 1) C 10- C 11      0.57    1.24   0.034
   55. BD ( 1) C 11- H 19      79. BD*( 1) C 11- C 12      0.52    1.23   0.032
   55. BD ( 1) C 11- H 19     132. RY ( 1) C 10            0.70    1.89   0.046
   55. BD ( 1) C 11- H 19     140. RY ( 1) C 12            0.78    2.07   0.051


 NATURAL BOND ORBITALS (Summary):

                                                     Principal Delocalizations
           NBO                 Occupancy    Energy   (geminal,vicinal,remote)
 ===============================================================================
 Molecular unit  1  (C9H7O2Br)
 ------ Lewis --------------------------------------
    1. CR ( 1) O  1             0.99995   -19.30306  82(g)
    2. CR ( 1) C  2             0.99991   -10.53174
    3. CR ( 1) O  3             0.99993   -19.34576  94(g)
    4. CR ( 1) C  4             0.99988   -10.44216
    5. CR ( 1) C  5             0.99988   -10.41011
    6. CR ( 1) C  6             0.99994   -10.46746
    7. CR ( 1) C  7             0.99992   -10.45431
    8. CR ( 1) C  8             0.99995   -10.52713
    9. CR ( 1)Br  9             1.00000   -23.71966
   10. CR ( 2)Br  9             1.00000  -448.56111
   11. CR ( 3)Br  9             1.00000   -80.02336
   12. CR ( 4)Br  9             1.00000    -7.35841
   13. CR ( 5)Br  9             0.99999   -55.94130
   14. CR ( 6)Br  9             1.00000    -7.34300
   15. CR ( 7)Br  9             1.00000   -55.93739
   16. CR ( 8)Br  9             1.00000    -7.34750
   17. CR ( 9)Br  9             1.00000   -55.93791
   18. CR (10)Br  9             0.99984    -2.99765
   19. CR (11)Br  9             0.99993    -3.00166
   20. CR (12)Br  9             1.00000    -2.98962
   21. CR (13)Br  9             0.99972    -2.99785  124(g)
   22. CR (14)Br  9             0.99990    -2.99502
   23. CR ( 1) C 10             0.99993   -10.45875
   24. CR ( 1) C 11             0.99992   -10.44710
   25. CR ( 1) C 12             0.99994   -10.47579
   26. LP ( 1) O  1             0.98967    -0.79763  90(v),60(v),59(v)
   27. LP ( 2) O  1             0.90243    -0.47324  59(v),60(v),56(r),58(g)
                                                     91(v),61(r),80(r)
   28. LP ( 1) O  3             0.97949    -0.72840  60(v),57(v),91(v),62(v)
                                                     63(v),104(v),103(v)
   29. LP ( 2) O  3             0.89980    -0.52619  58(v),64(v),62(v),57(v)
                                                     66(r)
   30. LP ( 1)Br  9             0.99868    -0.96638  120(v)
   31. LP ( 2)Br  9             0.99014    -0.56497  75(v),71(v),119(v)
   32. BD ( 1) O  1- C  2       0.99848    -1.17899  61(v),60(g),70(v)
   33. BD ( 2) O  1- C  2       0.93645    -0.60468  56(v)
   34. BD ( 1) C  2- O  3       0.99592    -1.04208  103(v),79(v),63(v)
   35. BD ( 1) C  2- C 12       0.99039    -0.88306  70(g),136(v),68(v),111(v)
                                                     79(g),76(v),81(v),95(v)
   36. BD ( 1) O  3- C  4       0.99262    -0.95568  57(v),91(v),58(v),66(v)
   37. BD ( 1) C  4- C  5       0.99081    -0.80316  68(v),69(v),65(g),66(g)
                                                     67(g),112(v),63(g)
   38. BD ( 1) C  4- H 13       0.99195    -0.72895  65(v),59(v)
   39. BD ( 1) C  4- H 14       0.99533    -0.73483  67(v),107(v),96(v)
   40. BD ( 1) C  5- C  6       0.98786    -0.82475  68(g),79(v),70(g),115(v)
                                                     71(v),140(v),63(v),104(v)
                                                     66(g),67(g),62(g)
   41. BD ( 1) C  5- H 15       0.98683    -0.72738  61(v),70(v),69(v),67(g)
                                                     62(g)
   42. BD ( 1) C  5- H 16       0.97838    -0.71855  69(v),64(v),61(v),103(v)
                                                     113(v)
   43. BD ( 1) C  6- C  7       0.98521    -0.90539  70(g),73(v),71(g),65(g)
                                                     60(v),72(g),119(v),140(v)
                                                     107(v),120(v)
   44. BD ( 2) C  6- C  7       0.84691    -0.52002  56(v),74(v),67(v),62(v)
                                                     121(v),143(v)
   45. BD ( 1) C  6- C 12       0.98530    -0.91016  79(g),68(g),65(g),136(v)
                                                     60(g),116(v),72(v),57(v)
                                                     80(v),91(v),107(v),115(v)
   46. BD ( 1) C  7- C  8       0.99107    -0.93891  75(g),68(g),112(v),65(v)
                                                     72(g),132(v),78(v),111(v)
                                                     133(v)
   47. BD ( 1) C  7- H 17       0.98992    -0.77062  70(v),75(v),111(v),120(v)
                                                     68(g),73(v),71(g),65(v)
   48. BD ( 1) C  8-Br  9       0.99369    -0.84514  115(v),132(v),68(v),76(v)
   49. BD ( 2) C  8-Br  9       0.91685    -0.56797  77(v),69(v),74(g),118(v)
                                                     135(v)
   50. BD ( 1) C  8- C 10       0.99141    -0.93976  71(g),137(v),76(g),78(g)
                                                     72(v),80(v),115(v),116(v)
   51. BD ( 1) C 10- C 11       0.98765    -0.90555  73(v),75(g),141(v),79(g)
                                                     60(v),78(g),119(v),80(g)
                                                     120(v)
   52. BD ( 2) C 10- C 11       0.83630    -0.51316  56(v),74(v),121(v),143(v)
   53. BD ( 1) C 10- H 18       0.99043    -0.77123  71(v),79(v),120(v),136(v)
                                                     76(g),73(v),75(g)
   54. BD ( 1) C 11- C 12       0.98727    -0.90423  70(g),133(v),90(v),60(g)
                                                     65(v),76(g),59(v),80(g)
                                                     78(v),111(v),112(v)
   55. BD ( 1) C 11- H 19       0.99003    -0.75644  70(v),75(v),140(v),132(v)
                                                     76(g),79(g),60(v)
 ------ non-Lewis ----------------------------------
   56. LV ( 1) C 12             0.27771    -0.25928
   57. BD*( 1) O  1- C  2       0.00884     0.52834
   58. BD*( 2) O  1- C  2       0.09605    -0.08777
   59. BD*( 1) C  2- O  3       0.04981     0.26520
   60. BD*( 1) C  2- C 12       0.04096     0.31737
   61. BD*( 1) O  3- C  4       0.01145     0.17714
   62. BD*( 1) C  4- C  5       0.00947     0.28791
   63. BD*( 1) C  4- H 13       0.00461     0.41570
   64. BD*( 1) C  4- H 14       0.00893     0.38125
   65. BD*( 1) C  5- C  6       0.01057     0.31868
   66. BD*( 1) C  5- H 15       0.00427     0.37711
   67. BD*( 1) C  5- H 16       0.00588     0.37441
   68. BD*( 1) C  6- C  7       0.01117     0.47522
   69. BD*( 2) C  6- C  7       0.05597    -0.10265
   70. BD*( 1) C  6- C 12       0.01404     0.46739
   71. BD*( 1) C  7- C  8       0.01061     0.44518
   72. BD*( 1) C  7- H 17       0.00578     0.39231
   73. BD*( 1) C  8-Br  9       0.01318    -0.02768
   74. BD*( 2) C  8-Br  9       0.12359    -0.24787
   75. BD*( 1) C  8- C 10       0.01098     0.43974
   76. BD*( 1) C 10- C 11       0.00741     0.47893
   77. BD*( 2) C 10- C 11       0.03785    -0.09860
   78. BD*( 1) C 10- H 18       0.00534     0.40328
   79. BD*( 1) C 11- C 12       0.00995     0.47188
   80. BD*( 1) C 11- H 19       0.00675     0.41654
   81. RY ( 1) O  1             0.00044     1.71285
   82. RY ( 2) O  1             0.00031     1.96988
   83. RY ( 3) O  1             0.00019     1.53892
   84. RY ( 4) O  1             0.00006     2.20720
   85. RY ( 5) O  1             0.00002     1.88702
   86. RY ( 6) O  1             0.00001     1.85203
   87. RY ( 7) O  1             0.00000     1.78259
   88. RY ( 8) O  1             0.00000     1.74552
   89. RY ( 9) O  1             0.00000     1.77388
   90. RY ( 1) C  2             0.00851     0.83063
   91. RY ( 2) C  2             0.00521     0.89758
   92. RY ( 3) C  2             0.00064     0.66894
   93. RY ( 4) C  2             0.00024     0.74582
   94. RY ( 1) O  3             0.00093     1.72388
   95. RY ( 2) O  3             0.00057     1.77702
   96. RY ( 3) O  3             0.00044     1.69854
   97. RY ( 4) O  3             0.00011     2.00831
   98. RY ( 5) O  3             0.00011     2.01479
   99. RY ( 6) O  3             0.00008     1.97319
  100. RY ( 7) O  3             0.00001     1.82115
  101. RY ( 8) O  3             0.00001     1.85823
  102. RY ( 9) O  3             0.00000     1.78267
  103. RY ( 1) C  4             0.00139     0.89621
  104. RY ( 2) C  4             0.00103     0.88679
  105. RY ( 3) C  4             0.00033     0.83720
  106. RY ( 4) C  4             0.00017     0.90667
  107. RY ( 1) C  5             0.00152     0.94804
  108. RY ( 2) C  5             0.00066     0.82737
  109. RY ( 3) C  5             0.00039     0.88488
  110. RY ( 4) C  5             0.00012     0.92987
  111. RY ( 1) C  6             0.00261     1.30797
  112. RY ( 2) C  6             0.00192     1.09633
  113. RY ( 3) C  6             0.00069     0.76680
  114. RY ( 4) C  6             0.00024     0.65555
  115. RY ( 1) C  7             0.00308     1.16730
  116. RY ( 2) C  7             0.00186     0.81925
  117. RY ( 3) C  7             0.00033     0.53682
  118. RY ( 4) C  7             0.00018     0.74054
  119. RY ( 1) C  8             0.00362     0.88446
  120. RY ( 2) C  8             0.00251     1.15392
  121. RY ( 3) C  8             0.00057     0.73940
  122. RY ( 4) C  8             0.00017     0.51185
  123. RY ( 1)Br  9             0.00052     0.55041
  124. RY ( 2)Br  9             0.00032     0.91376
  125. RY ( 3)Br  9             0.00025     0.47439
  126. RY ( 4)Br  9             0.00013     0.62228
  127. RY ( 5)Br  9             0.00005     0.73608
  128. RY ( 6)Br  9             0.00003     0.44797
  129. RY ( 7)Br  9             0.00001     0.47541
  130. RY ( 8)Br  9             0.00001     0.57328
  131. RY ( 9)Br  9             0.00001     0.52619
  132. RY ( 1) C 10             0.00288     1.13736
  133. RY ( 2) C 10             0.00164     0.84935
  134. RY ( 3) C 10             0.00027     0.54169
  135. RY ( 4) C 10             0.00020     0.73595
  136. RY ( 1) C 11             0.00332     1.11075
  137. RY ( 2) C 11             0.00196     0.94166
  138. RY ( 3) C 11             0.00022     0.56264
  139. RY ( 4) C 11             0.00008     0.74396
  140. RY ( 1) C 12             0.00221     1.31172
  141. RY ( 2) C 12             0.00163     1.17282
  142. RY ( 3) C 12             0.00069     0.62736
  143. RY ( 4) C 12             0.00004     0.81631
  144. RY ( 1) H 13             0.00040     0.45967
  145. RY ( 1) H 14             0.00080     0.47630
  146. RY ( 1) H 15             0.00055     0.48108
  147. RY ( 1) H 16             0.00091     0.47696
  148. RY ( 1) H 17             0.00053     0.45460
  149. RY ( 1) H 18             0.00052     0.44194
  150. RY ( 1) H 19             0.00160     0.47807
          -------------------------------
                 Total Lewis   54.09579  ( 98.3560%)
           Valence non-Lewis    0.84117  (  1.5294%)
           Rydberg non-Lewis    0.06304  (  0.1146%)
          -------------------------------
               Total unit  1   55.00000  (100.0000%)
              Charge unit  1    1.00000

 $CHOOSE
  ALPHA
   LONE 1 2 3 2 9 3 END
   BOND D 1 2 S 2 3 S 2 12 S 3 4 S 4 5 S 4 13 S 4 14 S 5 6 S 5 15 S 5 16 S 6 7
        D 6 12 D 7 8 S 7 17 S 8 9 S 8 10 D 10 11 S 10 18 S 11 12 S 11 19 END
  END
  BETA
   LONE 1 2 3 2 9 2 END
   BOND D 1 2 S 2 3 S 2 12 S 3 4 S 4 5 S 4 13 S 4 14 S 5 6 S 5 15 S 5 16 D 6 7
        S 6 12 S 7 8 S 7 17 D 8 9 S 8 10 D 10 11 S 10 18 S 11 12 S 11 19 END
  END
 $END

 NBO analysis completed in 0.81 CPU seconds (1 wall second)
 Maximum scratch memory used by NBO was 644591 words (4.92 MB)
 Maximum scratch memory used by G16NBO was 54153 words (0.41 MB)

 Opening RunExU unformatted file "/home/rpaton/opt/midi/fukui/Gau-1677765.EUF"
 Read unf file /home/rpaton/opt/midi/fukui/Gau-1677765.EUF:
 Label Gaussian matrix elements                                         IVers= 2 NLab= 2 Version=ES64L-G16RevC.01
 Title arbr32_wb97xd_popncreated by GaussianPrep                       
 NAtoms=    19 NBasis=   150 NBsUse=   150 ICharg=     1 Multip=     2 NE=   111 Len12L=8 Len4L=8 IOpCl= 1 ICGU=112
 GAUSSIAN SCALARS                    NI= 1 NR= 1 NTot=       1 LenBuf=    2 NRI=1 N=    1000
 NPA CHARGES                         NI= 0 NR= 1 NTot=      19 LenBuf= 2048 NRI=1 N=      19
 Recovered energy= -3056.31206589     dipole=      1.102295800902     -0.983481319490      0.238047664768
 Unable to Open any file for archive entry.
 1\1\GINC-DYNAMO\SP\UwB97XD\MIDIx\C9H7Br1O2(1+,2)\RPATON\27-Sep-2024\0\
 \# pop=(nbo6,hirshfeld) wb97xd/midix\\arbr32_wb97xd_popncreated by Gau
 ssianPrep\\1,2\O,0,-3.328469,1.909496,-0.200703\C,0,-2.861784,0.799533
 ,-0.069619\O,0,-3.696193,-0.280256,-0.008163\C,0,-3.12721,-1.518547,0.
 479858\C,0,-1.856245,-1.883209,-0.289003\C,0,-0.873943,-0.750549,-0.14
 1729\C,0,0.502538,-0.942098,-0.138656\C,0,1.348244,0.151146,-0.001868\
 Br,0,3.223578,-0.120205,0.013452\C,0,0.839704,1.440004,0.125097\C,0,-0
 .534426,1.626304,0.112862\C,0,-1.389605,0.536774,-0.013279\H,0,-3.9157
 78,-2.26173,0.337797\H,0,-2.911789,-1.425344,1.554043\H,0,-1.439906,-2
 .822663,0.095034\H,0,-2.10693,-2.035188,-1.349227\H,0,0.917484,-1.9413
 53,-0.239001\H,0,1.513651,2.284422,0.227411\H,0,-0.968314,2.61898,0.19
 206\\Version=ES64L-G16RevC.01\State=2-A\HF=-3056.3120659\S2=0.773179\S
 2-1=0.\S2A=0.750263\RMSD=5.528e-09\Dipole=1.1022959,-0.9834812,0.23804
 77\Quadrupole=6.6603387,1.5804395,-8.2407781,8.7375894,-1.4311294,0.72
 7077\PG=C01 [X(C9H7Br1O2)]\\@
 The archive entry for this job was punched.


  ON THE CHOICE OF THE CORRECT LANGUAGE -
 I SPEAK SPANISH TO GOD, ITALIAN TO WOMEN,
 FRENCH TO MEN, AND GERMAN TO MY HORSE.
          -- CHARLES V
 Job cpu time:       0 days  0 hours 12 minutes  3.5 seconds.
 Elapsed time:       0 days  0 hours  0 minutes 30.4 seconds.
 File lengths (MBytes):  RWF=     27 Int=      0 D2E=      0 Chk=      3 Scr=      1
 Normal termination of Gaussian 16 at Fri Sep 27 17:31:23 2024.
