 Entering Gaussian System, Link 0=/usr/local/Gaussian/G16C/g16/g16
 Input=arbr31_wb97xd_red.com
 Output=arbr31_wb97xd_red.log
 Initial command:
 /usr/local/Gaussian/G16C/g16/l1.exe "/home/rpaton/arbr500/midi/fukui/Gau-2429489.inp" -scrdir="/home/rpaton/arbr500/midi/fukui/"
 Entering Link 1 = /usr/local/Gaussian/G16C/g16/l1.exe PID=   2429490.
  
 Copyright (c) 1988-2019, Gaussian, Inc.  All Rights Reserved.
  
 This is part of the Gaussian(R) 16 program.  It is based on
 the Gaussian(R) 09 system (copyright 2009, Gaussian, Inc.),
 the Gaussian(R) 03 system (copyright 2003, Gaussian, Inc.),
 the Gaussian(R) 98 system (copyright 1998, Gaussian, Inc.),
 the Gaussian(R) 94 system (copyright 1995, Gaussian, Inc.),
 the Gaussian 92(TM) system (copyright 1992, Gaussian, Inc.),
 the Gaussian 90(TM) system (copyright 1990, Gaussian, Inc.),
 the Gaussian 88(TM) system (copyright 1988, Gaussian, Inc.),
 the Gaussian 86(TM) system (copyright 1986, Carnegie Mellon
 University), and the Gaussian 82(TM) system (copyright 1983,
 Carnegie Mellon University). Gaussian is a federally registered
 trademark of Gaussian, Inc.
  
 This software contains proprietary and confidential information,
 including trade secrets, belonging to Gaussian, Inc.
  
 This software is provided under written license and may be
 used, copied, transmitted, or stored only in accord with that
 written license.
  
 The following legend is applicable only to US Government
 contracts under FAR:
  
                    RESTRICTED RIGHTS LEGEND
  
 Use, reproduction and disclosure by the US Government is
 subject to restrictions as set forth in subparagraphs (a)
 and (c) of the Commercial Computer Software - Restricted
 Rights clause in FAR 52.227-19.
  
 Gaussian, Inc.
 340 Quinnipiac St., Bldg. 40, Wallingford CT 06492
  
  
 ---------------------------------------------------------------
 Warning -- This program may not be used in any manner that
 competes with the business of Gaussian, Inc. or will provide
 assistance to any competitor of Gaussian, Inc.  The licensee
 of this program is prohibited from giving any competitor of
 Gaussian, Inc. access to this program.  By using this program,
 the user acknowledges that Gaussian, Inc. is engaged in the
 business of creating and licensing software in the field of
 computational chemistry and represents and warrants to the
 licensee that it is not a competitor of Gaussian, Inc. and that
 it will not use this program in any manner prohibited above.
 ---------------------------------------------------------------
  

 Cite this work as:
 Gaussian 16, Revision C.01,
 M. J. Frisch, G. W. Trucks, H. B. Schlegel, G. E. Scuseria, 
 M. A. Robb, J. R. Cheeseman, G. Scalmani, V. Barone, 
 G. A. Petersson, H. Nakatsuji, X. Li, M. Caricato, A. V. Marenich, 
 J. Bloino, B. G. Janesko, R. Gomperts, B. Mennucci, H. P. Hratchian, 
 J. V. Ortiz, A. F. Izmaylov, J. L. Sonnenberg, D. Williams-Young, 
 F. Ding, F. Lipparini, F. Egidi, J. Goings, B. Peng, A. Petrone, 
 T. Henderson, D. Ranasinghe, V. G. Zakrzewski, J. Gao, N. Rega, 
 G. Zheng, W. Liang, M. Hada, M. Ehara, K. Toyota, R. Fukuda, 
 J. Hasegawa, M. Ishida, T. Nakajima, Y. Honda, O. Kitao, H. Nakai, 
 T. Vreven, K. Throssell, J. A. Montgomery, Jr., J. E. Peralta, 
 F. Ogliaro, M. J. Bearpark, J. J. Heyd, E. N. Brothers, K. N. Kudin, 
 V. N. Staroverov, T. A. Keith, R. Kobayashi, J. Normand, 
 K. Raghavachari, A. P. Rendell, J. C. Burant, S. S. Iyengar, 
 J. Tomasi, M. Cossi, J. M. Millam, M. Klene, C. Adamo, R. Cammi, 
 J. W. Ochterski, R. L. Martin, K. Morokuma, O. Farkas, 
 J. B. Foresman, and D. J. Fox, Gaussian, Inc., Wallingford CT, 2019.
 
 ******************************************
 Gaussian 16:  ES64L-G16RevC.01  3-Jul-2019
                30-Sep-2024 
 ******************************************
 %chk=arbr31_wb97xd_red.chk
 %mem=48GB
 %nprocshared=24
 Will use up to   24 processors via shared memory.
 -----------------------------------
 # pop=(nbo6,hirshfeld) wb97xd/midix
 -----------------------------------
 1/38=1,172=1/1;
 2/12=2,17=6,18=5,40=1/2;
 3/5=20,11=2,25=1,30=1,74=-58/1,2,3;
 4//1;
 5/5=2,38=5/2;
 6/7=2,8=2,9=2,10=2,28=1,40=1,79=1,113=1,114=1,124=3103,126=1/1,12;
 99/5=1,9=1/99;
 ----------------------------------------
 arbr31_wb97xd_redcreated by GaussianPrep
 ----------------------------------------
 Symbolic Z-matrix:
 Charge = -1 Multiplicity = 2
 O                     3.84262   1.41659  -0.00033 
 C                     3.09769   0.45737   0.00065 
 C                     3.50942  -1.03708  -0.00029 
 C                     2.18621  -1.85319  -0.00001 
 C                     1.09116  -0.79931   0.00018 
 C                    -0.28333  -0.98969   0.00016 
 C                    -1.10267   0.135     0.00006 
 Br                   -2.98518  -0.09599  -0.00006 
 C                    -0.57889   1.42961  -0.00002 
 C                     0.79818   1.60563   0.00004 
 C                     1.61397   0.48482   0.0002 
 H                     4.12836  -1.23376  -0.8844 
 H                     4.12913  -1.23442   0.88311 
 H                     2.10716  -2.4984    0.88435 
 H                     2.10681  -2.49831  -0.88441 
 H                    -0.71898  -1.98508   0.00012 
 H                    -1.25057   2.28207  -0.00009 
 H                     1.24804   2.59579   0.00009 
 
                          Input orientation:                          
 ---------------------------------------------------------------------
 Center     Atomic      Atomic             Coordinates (Angstroms)
 Number     Number       Type             X           Y           Z
 ---------------------------------------------------------------------
      1          8           0        3.842615    1.416587   -0.000329
      2          6           0        3.097688    0.457366    0.000653
      3          6           0        3.509418   -1.037081   -0.000294
      4          6           0        2.186211   -1.853192   -0.000009
      5          6           0        1.091157   -0.799310    0.000184
      6          6           0       -0.283334   -0.989693    0.000160
      7          6           0       -1.102674    0.134998    0.000064
      8         35           0       -2.985180   -0.095985   -0.000057
      9          6           0       -0.578886    1.429614   -0.000022
     10          6           0        0.798184    1.605630    0.000037
     11          6           0        1.613969    0.484816    0.000197
     12          1           0        4.128357   -1.233764   -0.884401
     13          1           0        4.129134   -1.234421    0.883112
     14          1           0        2.107155   -2.498401    0.884354
     15          1           0        2.106813   -2.498312   -0.884406
     16          1           0       -0.718975   -1.985078    0.000118
     17          1           0       -1.250565    2.282068   -0.000088
     18          1           0        1.248040    2.595791    0.000090
 ---------------------------------------------------------------------
                    Distance matrix (angstroms):
                    1          2          3          4          5
     1  O    0.000000
     2  C    1.214505   0.000000
     3  C    2.476188   1.550127   0.000000
     4  C    3.665396   2.483842   1.554643   0.000000
     5  C    3.532806   2.367573   2.429922   1.519806   0.000000
     6  C    4.776363   3.677675   3.793048   2.616158   1.387613
     7  C    5.108655   4.212714   4.758693   3.843132   2.384497
     8  Br   6.993330   6.107985   6.562428   5.461782   4.136567
     9  C    4.421520   3.802955   4.774810   4.292153   2.785165
    10  C    3.050295   2.570259   3.786121   3.726938   2.422719
    11  C    2.415587   1.483973   2.430822   2.407019   1.386475
    12  H    2.808486   2.169221   1.097003   2.222110   3.193090
    13  H    2.808986   2.169045   1.096995   2.222100   3.193460
    14  H    4.372827   3.240161   2.210068   1.097562   2.168160
    15  H    4.372761   3.240555   2.210012   1.097562   2.168102
    16  H    5.690292   4.531275   4.333360   2.908178   2.163937
    17  H    5.166192   4.715596   5.802947   5.376970   3.870213
    18  H    2.849972   2.827377   4.279204   4.546825   3.398724
                    6          7          8          9         10
     6  C    0.000000
     7  C    1.391491   0.000000
     8  Br   2.845819   1.896624   0.000000
     9  C    2.437293   1.396562   2.849158   0.000000
    10  C    2.811651   2.403335   4.148414   1.388274   0.000000
    11  C    2.402901   2.739073   4.635677   2.387730   1.386264
    12  H    4.506111   5.479003   7.258031   5.480314   4.464800
    13  H    4.506592   5.479680   7.258752   5.481100   4.465528
    14  H    2.961830   4.244969   5.699619   4.840066   4.397555
    15  H    2.961620   4.244693   5.699267   4.839805   4.397396
    16  H    1.086542   2.154518   2.950315   3.417564   3.898071
    17  H    3.411738   2.152157   2.943472   1.085279   2.157531
    18  H    3.898821   3.403140   5.016554   2.167401   1.087561
                   11         12         13         14         15
    11  C    0.000000
    12  H    3.171463   0.000000
    13  H    3.171966   1.767513   0.000000
    14  H    3.150325   2.968680   2.384543   0.000000
    15  H    3.150313   2.384475   2.968387   1.768760   0.000000
    16  H    3.397500   4.984323   4.984709   3.005393   3.005141
    17  H    3.381667   6.486593   6.487442   5.908418   5.908133
    18  H    2.142456   4.872786   4.873495   5.241259   5.241155
                   16         17         18
    16  H    0.000000
    17  H    4.300131   0.000000
    18  H    4.985329   2.518223   0.000000
 Stoichiometry    C9H7BrO(1-,2)
 Framework group  C1[X(C9H7BrO)]
 Deg. of freedom    48
 Full point group                 C1      NOp   1
 Largest Abelian subgroup         C1      NOp   1
 Largest concise Abelian subgroup C1      NOp   1
                         Standard orientation:                         
 ---------------------------------------------------------------------
 Center     Atomic      Atomic             Coordinates (Angstroms)
 Number     Number       Type             X           Y           Z
 ---------------------------------------------------------------------
      1          8           0        3.842615   -1.416587    0.000329
      2          6           0        3.097688   -0.457366   -0.000653
      3          6           0        3.509418    1.037081    0.000294
      4          6           0        2.186211    1.853192    0.000009
      5          6           0        1.091157    0.799310   -0.000184
      6          6           0       -0.283334    0.989693   -0.000160
      7          6           0       -1.102674   -0.134998   -0.000064
      8         35           0       -2.985180    0.095985    0.000057
      9          6           0       -0.578886   -1.429614    0.000022
     10          6           0        0.798184   -1.605630   -0.000037
     11          6           0        1.613969   -0.484816   -0.000197
     12          1           0        4.128357    1.233764    0.884401
     13          1           0        4.129134    1.234421   -0.883112
     14          1           0        2.107155    2.498401   -0.884354
     15          1           0        2.106813    2.498312    0.884406
     16          1           0       -0.718975    1.985078   -0.000118
     17          1           0       -1.250565   -2.282068    0.000088
     18          1           0        1.248040   -2.595791   -0.000090
 ---------------------------------------------------------------------
 Rotational constants (GHZ):           2.5054398           0.3672674           0.3215977
 Standard basis: MIDIx (5D, 7F)
 There are   139 symmetry adapted cartesian basis functions of A   symmetry.
 There are   136 symmetry adapted basis functions of A   symmetry.
   136 basis functions,   240 primitive gaussians,   139 cartesian basis functions
    53 alpha electrons       52 beta electrons
       nuclear repulsion energy       786.8718373607 Hartrees.
 NAtoms=   18 NActive=   18 NUniq=   18 SFac= 1.00D+00 NAtFMM=   60 NAOKFM=F Big=F
 Integral buffers will be    131072 words long.
 Raffenetti 2 integral format.
 Two-electron integral symmetry is turned on.
 Nuclear repulsion after empirical dispersion term =      786.8614070722 Hartrees.
 One-electron integrals computed using PRISM.
 NBasis=   136 RedAO= T EigKep=  1.13D-03  NBF=   136
 NBsUse=   136 1.00D-06 EigRej= -1.00D+00 NBFU=   136
 ExpMin= 1.47D-01 ExpMax= 6.10D+03 ExpMxC= 6.10D+03 IAcc=3 IRadAn=         5 AccDes= 0.00D+00
 Harris functional with IExCor= 4639 and IRadAn=       5 diagonalized for initial guess.
 HarFok:  IExCor= 4639 AccDes= 0.00D+00 IRadAn=         5 IDoV= 1 UseB2=F ITyADJ=14
 ICtDFT=  3500011 ScaDFX=  1.000000  1.000000  1.000000  1.000000
 FoFCou: FMM=F IPFlag=           0 FMFlag=      100000 FMFlg1=           0
         NFxFlg=           0 DoJE=T BraDBF=F KetDBF=T FulRan=T
         wScrn=  0.000000 ICntrl=       500 IOpCl=  0 I1Cent=   200000004 NGrid=           0
         NMat0=    1 NMatS0=      1 NMatT0=    0 NMatD0=    1 NMtDS0=    0 NMtDT0=    0
 Petite list used in FoFCou.
 Initial guess <Sx>= 0.0000 <Sy>= 0.0000 <Sz>= 0.5000 <S**2>= 0.7500 S= 0.5000
 Requested convergence on RMS density matrix=1.00D-08 within 128 cycles.
 Requested convergence on MAX density matrix=1.00D-06.
 Requested convergence on             energy=1.00D-06.
 No special actions if energy rises.
 Integral accuracy reduced to 1.0D-05 until final iterations.
 Initial convergence to 1.0D-05 achieved.  Increase integral accuracy.
 SCF Done:  E(UwB97XD) =  -2981.83515337     A.U. after   28 cycles
            NFock= 28  Conv=0.40D-08     -V/T= 2.0020
 <Sx>= 0.0000 <Sy>= 0.0000 <Sz>= 0.5000 <S**2>= 0.7685 S= 0.5092
 <L.S>= 0.000000000000E+00
 Annihilation of the first spin contaminant:
 S**2 before annihilation     0.7685,   after     0.7502

 **********************************************************************

            Population analysis using the SCF Density.

 **********************************************************************

 Orbital symmetries:
 Alpha Orbitals:
       Occupied  (A) (A) (A) (A) (A) (A) (A) (A) (A) (A) (A) (A)
                 (A) (A) (A) (A) (A) (A) (A) (A) (A) (A) (A) (A)
                 (A) (A) (A) (A) (A) (A) (A) (A) (A) (A) (A) (A)
                 (A) (A) (A) (A) (A) (A) (A) (A) (A) (A) (A) (A)
                 (A) (A) (A) (A) (A)
       Virtual   (A) (A) (A) (A) (A) (A) (A) (A) (A) (A) (A) (A)
                 (A) (A) (A) (A) (A) (A) (A) (A) (A) (A) (A) (A)
                 (A) (A) (A) (A) (A) (A) (A) (A) (A) (A) (A) (A)
                 (A) (A) (A) (A) (A) (A) (A) (A) (A) (A) (A) (A)
                 (A) (A) (A) (A) (A) (A) (A) (A) (A) (A) (A) (A)
                 (A) (A) (A) (A) (A) (A) (A) (A) (A) (A) (A) (A)
                 (A) (A) (A) (A) (A) (A) (A) (A) (A) (A) (A)
 Beta  Orbitals:
       Occupied  (A) (A) (A) (A) (A) (A) (A) (A) (A) (A) (A) (A)
                 (A) (A) (A) (A) (A) (A) (A) (A) (A) (A) (A) (A)
                 (A) (A) (A) (A) (A) (A) (A) (A) (A) (A) (A) (A)
                 (A) (A) (A) (A) (A) (A) (A) (A) (A) (A) (A) (A)
                 (A) (A) (A) (A)
       Virtual   (A) (A) (A) (A) (A) (A) (A) (A) (A) (A) (A) (A)
                 (A) (A) (A) (A) (A) (A) (A) (A) (A) (A) (A) (A)
                 (A) (A) (A) (A) (A) (A) (A) (A) (A) (A) (A) (A)
                 (A) (A) (A) (A) (A) (A) (A) (A) (A) (A) (A) (A)
                 (A) (A) (A) (A) (A) (A) (A) (A) (A) (A) (A) (A)
                 (A) (A) (A) (A) (A) (A) (A) (A) (A) (A) (A) (A)
                 (A) (A) (A) (A) (A) (A) (A) (A) (A) (A) (A) (A)
 The electronic state is 2-A.
 Alpha  occ. eigenvalues -- -479.99738 -62.43135 -56.01993 -56.01633 -56.01610
 Alpha  occ. eigenvalues --  -18.91595 -10.10324 -10.10262 -10.09518 -10.07718
 Alpha  occ. eigenvalues --  -10.07652 -10.07405 -10.07030 -10.05555 -10.03879
 Alpha  occ. eigenvalues --   -8.73966  -6.52319  -6.51100  -6.51070  -2.62657
 Alpha  occ. eigenvalues --   -2.62228  -2.62177  -2.61176  -2.61171  -0.93588
 Alpha  occ. eigenvalues --   -0.82067  -0.77314  -0.72817  -0.68473  -0.65147
 Alpha  occ. eigenvalues --   -0.60483  -0.54937  -0.50786  -0.47687  -0.40773
 Alpha  occ. eigenvalues --   -0.40428  -0.39289  -0.37208  -0.35096  -0.33620
 Alpha  occ. eigenvalues --   -0.31864  -0.31165  -0.30137  -0.29102  -0.27341
 Alpha  occ. eigenvalues --   -0.26608  -0.25947  -0.22775  -0.21789  -0.17132
 Alpha  occ. eigenvalues --   -0.15564  -0.12221   0.02057
 Alpha virt. eigenvalues --    0.23396   0.24573   0.28074   0.31718   0.34334
 Alpha virt. eigenvalues --    0.36032   0.36255   0.38316   0.41375   0.43646
 Alpha virt. eigenvalues --    0.44345   0.44959   0.46320   0.52377   0.54445
 Alpha virt. eigenvalues --    0.56316   0.58941   0.61986   0.64843   0.67010
 Alpha virt. eigenvalues --    0.71166   0.72719   0.75916   0.76932   0.77998
 Alpha virt. eigenvalues --    0.78553   0.78936   0.79842   0.81789   0.84029
 Alpha virt. eigenvalues --    0.86066   0.86417   0.88312   0.92657   0.93532
 Alpha virt. eigenvalues --    0.97781   0.99308   1.02098   1.02714   1.04849
 Alpha virt. eigenvalues --    1.05557   1.08465   1.10741   1.11330   1.12412
 Alpha virt. eigenvalues --    1.14038   1.14773   1.15267   1.15866   1.16808
 Alpha virt. eigenvalues --    1.17315   1.18985   1.20364   1.20979   1.21531
 Alpha virt. eigenvalues --    1.22381   1.24875   1.25402   1.30086   1.30523
 Alpha virt. eigenvalues --    1.32610   1.35455   1.38560   1.42561   1.45751
 Alpha virt. eigenvalues --    1.48913   1.55035   1.55642   1.68856   1.73727
 Alpha virt. eigenvalues --    1.77236   1.83079   1.85949   1.87686   1.94238
 Alpha virt. eigenvalues --    1.98979   2.09101   2.11313   2.18563   2.19761
 Alpha virt. eigenvalues --    2.31135   2.52436   3.28526
  Beta  occ. eigenvalues -- -479.99737 -62.43133 -56.02000 -56.01632 -56.01599
  Beta  occ. eigenvalues --  -18.91070 -10.10082 -10.09894 -10.09520 -10.07780
  Beta  occ. eigenvalues --  -10.07745 -10.07329 -10.07011 -10.05294 -10.03737
  Beta  occ. eigenvalues --   -8.73964  -6.52331  -6.51100  -6.51053  -2.62662
  Beta  occ. eigenvalues --   -2.62234  -2.62168  -2.61168  -2.61163  -0.92411
  Beta  occ. eigenvalues --   -0.81583  -0.76929  -0.72588  -0.68058  -0.64837
  Beta  occ. eigenvalues --   -0.60115  -0.54425  -0.50272  -0.47345  -0.40508
  Beta  occ. eigenvalues --   -0.40111  -0.38850  -0.36882  -0.34932  -0.33357
  Beta  occ. eigenvalues --   -0.31251  -0.29890  -0.29738  -0.28812  -0.27105
  Beta  occ. eigenvalues --   -0.25738  -0.24847  -0.21763  -0.21324  -0.15803
  Beta  occ. eigenvalues --   -0.12985  -0.11613
  Beta virt. eigenvalues --    0.22116   0.23703   0.25150   0.31717   0.32121
  Beta virt. eigenvalues --    0.34989   0.36129   0.36294   0.38379   0.41550
  Beta virt. eigenvalues --    0.44454   0.44755   0.46033   0.46575   0.52845
  Beta virt. eigenvalues --    0.54643   0.56815   0.59205   0.62338   0.65060
  Beta virt. eigenvalues --    0.67407   0.71299   0.72921   0.76040   0.77066
  Beta virt. eigenvalues --    0.78133   0.78644   0.79418   0.79971   0.81922
  Beta virt. eigenvalues --    0.84197   0.86411   0.86656   0.88665   0.92874
  Beta virt. eigenvalues --    0.93740   0.97943   0.99529   1.02626   1.03052
  Beta virt. eigenvalues --    1.05471   1.05735   1.08915   1.10749   1.11475
  Beta virt. eigenvalues --    1.12889   1.14105   1.14893   1.16051   1.16107
  Beta virt. eigenvalues --    1.16956   1.17394   1.19145   1.20737   1.21099
  Beta virt. eigenvalues --    1.22552   1.22600   1.25022   1.25506   1.30728
  Beta virt. eigenvalues --    1.30982   1.32794   1.35578   1.38730   1.42791
  Beta virt. eigenvalues --    1.45964   1.49107   1.55424   1.56066   1.69138
  Beta virt. eigenvalues --    1.73962   1.77424   1.83284   1.88025   1.88250
  Beta virt. eigenvalues --    1.94615   1.99331   2.10381   2.12059   2.19920
  Beta virt. eigenvalues --    2.20576   2.31680   2.52730   3.29196
          Condensed to atoms (all electrons):
               1          2          3          4          5          6
     1  O    8.297503   0.516462  -0.073774   0.002566   0.002014  -0.000002
     2  C    0.516462   4.516749   0.296794  -0.061162  -0.021952   0.000435
     3  C   -0.073774   0.296794   5.629965   0.230889  -0.046473   0.002527
     4  C    0.002566  -0.061162   0.230889   5.178094   0.291593   0.001735
     5  C    0.002014  -0.021952  -0.046473   0.291593   5.124889   0.522689
     6  C   -0.000002   0.000435   0.002527   0.001735   0.522689   4.929004
     7  C   -0.000010   0.000637  -0.000388   0.000630  -0.028107   0.426982
     8  Br   0.000000   0.000001   0.000001  -0.000035   0.002388  -0.038955
     9  C    0.000238   0.001840   0.000283   0.000520  -0.036989  -0.027956
    10  C   -0.005005  -0.011699  -0.000733   0.001559  -0.018578  -0.021603
    11  C   -0.086286   0.353966  -0.260958  -0.002301   0.362833  -0.032748
    12  H    0.004617  -0.031015   0.342575  -0.023342   0.002531  -0.000028
    13  H    0.004605  -0.031146   0.342726  -0.023392   0.002529  -0.000028
    14  H   -0.000029   0.002341  -0.025090   0.379801  -0.029377  -0.003935
    15  H   -0.000029   0.002358  -0.025137   0.379867  -0.029382  -0.003939
    16  H    0.000000  -0.000061   0.000227  -0.006037  -0.022131   0.395268
    17  H    0.000001  -0.000019   0.000002   0.000005   0.000179   0.002858
    18  H    0.009254  -0.001220   0.001086  -0.000273   0.004488   0.000154
               7          8          9         10         11         12
     1  O   -0.000010   0.000000   0.000238  -0.005005  -0.086286   0.004617
     2  C    0.000637   0.000001   0.001840  -0.011699   0.353966  -0.031015
     3  C   -0.000388   0.000001   0.000283  -0.000733  -0.260958   0.342575
     4  C    0.000630  -0.000035   0.000520   0.001559  -0.002301  -0.023342
     5  C   -0.028107   0.002388  -0.036989  -0.018578   0.362833   0.002531
     6  C    0.426982  -0.038955  -0.027956  -0.021603  -0.032748  -0.000028
     7  C    5.226412   0.181653   0.449501  -0.038278  -0.043349   0.000005
     8  Br   0.181653  35.109568  -0.038990   0.001805   0.000452  -0.000000
     9  C    0.449501  -0.038990   4.969702   0.504412  -0.030633  -0.000002
    10  C   -0.038278   0.001805   0.504412   5.018032   0.379155   0.000053
    11  C   -0.043349   0.000452  -0.030633   0.379155   5.547428   0.008106
    12  H    0.000005  -0.000000  -0.000002   0.000053   0.008106   0.580426
    13  H    0.000005  -0.000000  -0.000002   0.000054   0.008158  -0.032620
    14  H    0.000038   0.000000   0.000008  -0.000090  -0.000846   0.001894
    15  H    0.000038   0.000000   0.000008  -0.000090  -0.000857  -0.006937
    16  H   -0.027544  -0.000401   0.002982  -0.000071   0.002999  -0.000007
    17  H   -0.029944  -0.000092   0.398458  -0.023752   0.003835  -0.000000
    18  H    0.002387  -0.000064  -0.021834   0.383794  -0.031050  -0.000025
              13         14         15         16         17         18
     1  O    0.004605  -0.000029  -0.000029   0.000000   0.000001   0.009254
     2  C   -0.031146   0.002341   0.002358  -0.000061  -0.000019  -0.001220
     3  C    0.342726  -0.025090  -0.025137   0.000227   0.000002   0.001086
     4  C   -0.023392   0.379801   0.379867  -0.006037   0.000005  -0.000273
     5  C    0.002529  -0.029377  -0.029382  -0.022131   0.000179   0.004488
     6  C   -0.000028  -0.003935  -0.003939   0.395268   0.002858   0.000154
     7  C    0.000005   0.000038   0.000038  -0.027544  -0.029944   0.002387
     8  Br  -0.000000   0.000000   0.000000  -0.000401  -0.000092  -0.000064
     9  C   -0.000002   0.000008   0.000008   0.002982   0.398458  -0.021834
    10  C    0.000054  -0.000090  -0.000090  -0.000071  -0.023752   0.383794
    11  C    0.008158  -0.000846  -0.000857   0.002999   0.003835  -0.031050
    12  H   -0.032620   0.001894  -0.006937  -0.000007  -0.000000  -0.000025
    13  H    0.580453  -0.006936   0.001893  -0.000007  -0.000000  -0.000025
    14  H   -0.006936   0.547433  -0.029927   0.001311  -0.000000   0.000007
    15  H    0.001893  -0.029927   0.547398   0.001312  -0.000000   0.000007
    16  H   -0.000007   0.001311   0.001312   0.515115  -0.000082   0.000013
    17  H   -0.000000  -0.000000  -0.000000  -0.000082   0.507807  -0.004211
    18  H   -0.000025   0.000007   0.000007   0.000013  -0.004211   0.511227
          Atomic-Atomic Spin Densities.
               1          2          3          4          5          6
     1  O    0.312496  -0.083946   0.000049  -0.000042   0.000257   0.000002
     2  C   -0.083946   0.170386   0.016182   0.001389  -0.012155  -0.000604
     3  C    0.000049   0.016182  -0.033457   0.004939  -0.000143  -0.000035
     4  C   -0.000042   0.001389   0.004939  -0.002854  -0.006118  -0.002558
     5  C    0.000257  -0.012155  -0.000143  -0.006118   0.093256   0.052687
     6  C    0.000002  -0.000604  -0.000035  -0.002558   0.052687   0.046152
     7  C   -0.000001   0.000195  -0.000000   0.000240  -0.016824  -0.087652
     8  Br   0.000000  -0.000000  -0.000000  -0.000000   0.000144   0.001613
     9  C   -0.000000  -0.000208   0.000000  -0.000041   0.004250  -0.000842
    10  C    0.001624  -0.012220   0.000083   0.000101   0.006208   0.006848
    11  C   -0.008052   0.084563   0.000079   0.003058  -0.069235  -0.011684
    12  H    0.001307  -0.008761  -0.005291  -0.001487   0.000862   0.000043
    13  H    0.001290  -0.008880  -0.005043  -0.001546   0.000852   0.000043
    14  H    0.000000  -0.000068   0.000054   0.000903   0.000156  -0.000070
    15  H    0.000000  -0.000066   0.000057   0.000899   0.000153  -0.000070
    16  H   -0.000000  -0.000001  -0.000006   0.000097  -0.000784   0.001515
    17  H   -0.000000  -0.000001  -0.000000  -0.000000  -0.000007   0.000054
    18  H   -0.000152   0.000027  -0.000027   0.000002   0.000056  -0.000027
               7          8          9         10         11         12
     1  O   -0.000001   0.000000  -0.000000   0.001624  -0.008052   0.001307
     2  C    0.000195  -0.000000  -0.000208  -0.012220   0.084563  -0.008761
     3  C   -0.000000  -0.000000   0.000000   0.000083   0.000079  -0.005291
     4  C    0.000240  -0.000000  -0.000041   0.000101   0.003058  -0.001487
     5  C   -0.016824   0.000144   0.004250   0.006208  -0.069235   0.000862
     6  C   -0.087652   0.001613  -0.000842   0.006848  -0.011684   0.000043
     7  C    0.513886  -0.020392  -0.027975  -0.022201   0.011111  -0.000003
     8  Br  -0.020392   0.015269   0.000150   0.000212  -0.000061   0.000000
     9  C   -0.027975   0.000150  -0.134038   0.030775  -0.007081   0.000001
    10  C   -0.022201   0.000212   0.030775   0.324195  -0.098993   0.000062
    11  C    0.011111  -0.000061  -0.007081  -0.098993   0.227749  -0.001753
    12  H   -0.000003   0.000000   0.000001   0.000062  -0.001753   0.043701
    13  H   -0.000003   0.000000   0.000001   0.000063  -0.001706  -0.013417
    14  H   -0.000003   0.000000  -0.000001   0.000003   0.000135  -0.000033
    15  H   -0.000003   0.000000  -0.000001   0.000003   0.000136   0.000066
    16  H   -0.000629   0.000174   0.000010  -0.000001   0.000004   0.000000
    17  H   -0.000445   0.000098   0.001792  -0.000494   0.000041   0.000000
    18  H    0.000077  -0.000000  -0.001161   0.001730  -0.001400   0.000001
              13         14         15         16         17         18
     1  O    0.001290   0.000000   0.000000  -0.000000  -0.000000  -0.000152
     2  C   -0.008880  -0.000068  -0.000066  -0.000001  -0.000001   0.000027
     3  C   -0.005043   0.000054   0.000057  -0.000006  -0.000000  -0.000027
     4  C   -0.001546   0.000903   0.000899   0.000097  -0.000000   0.000002
     5  C    0.000852   0.000156   0.000153  -0.000784  -0.000007   0.000056
     6  C    0.000043  -0.000070  -0.000070   0.001515   0.000054  -0.000027
     7  C   -0.000003  -0.000003  -0.000003  -0.000629  -0.000445   0.000077
     8  Br   0.000000   0.000000   0.000000   0.000174   0.000098  -0.000000
     9  C    0.000001  -0.000001  -0.000001   0.000010   0.001792  -0.001161
    10  C    0.000063   0.000003   0.000003  -0.000001  -0.000494   0.001730
    11  C   -0.001706   0.000135   0.000136   0.000004   0.000041  -0.001400
    12  H   -0.013417  -0.000033   0.000066   0.000000   0.000000   0.000001
    13  H    0.043569   0.000070  -0.000032   0.000000   0.000000   0.000001
    14  H    0.000070  -0.001840   0.000514  -0.000008   0.000000  -0.000000
    15  H   -0.000032   0.000514  -0.001835  -0.000008   0.000000  -0.000000
    16  H    0.000000  -0.000008  -0.000008  -0.002592   0.000000  -0.000000
    17  H    0.000000   0.000000   0.000000   0.000000   0.003620   0.000098
    18  H    0.000001  -0.000000  -0.000000  -0.000000   0.000098  -0.013184
 Mulliken charges and spin densities:
               1          2
     1  O   -0.672123   0.224833
     2  C    0.466691   0.145832
     3  C   -0.414520  -0.022560
     4  C   -0.350717  -0.003018
     5  C   -0.083143   0.053618
     6  C   -0.152455   0.005415
     7  C   -0.120667   0.349379
     8  Br  -0.217332  -0.002794
     9  C   -0.171545  -0.134369
    10  C   -0.168963   0.237994
    11  C   -0.177903   0.126913
    12  H    0.153771   0.015297
    13  H    0.153734   0.015262
    14  H    0.163399  -0.000187
    15  H    0.163417  -0.000186
    16  H    0.137115  -0.002228
    17  H    0.144957   0.004757
    18  H    0.146285  -0.013959
 Sum of Mulliken charges =  -1.00000   1.00000
 Mulliken charges and spin densities with hydrogens summed into heavy atoms:
               1          2
     1  O   -0.672123   0.224833
     2  C    0.466691   0.145832
     3  C   -0.107015   0.007999
     4  C   -0.023901  -0.003391
     5  C   -0.083143   0.053618
     6  C   -0.015340   0.003187
     7  C   -0.120667   0.349379
     8  Br  -0.217332  -0.002794
     9  C   -0.026588  -0.129612
    10  C   -0.022678   0.224036
    11  C   -0.177903   0.126913
 Electronic spatial extent (au):  <R**2>=           3036.4984
 Charge=             -1.0000 electrons
 Dipole moment (field-independent basis, Debye):
    X=             -5.1056    Y=              2.8917    Z=             -0.0002  Tot=              5.8676
 Quadrupole moment (field-independent basis, Debye-Ang):
   XX=           -118.9490   YY=            -83.2306   ZZ=            -80.9714
   XY=             10.6785   XZ=             -0.0023   YZ=              0.0014
 Traceless Quadrupole moment (field-independent basis, Debye-Ang):
   XX=            -24.5654   YY=             11.1530   ZZ=             13.4123
   XY=             10.6785   XZ=             -0.0023   YZ=              0.0014
 Octapole moment (field-independent basis, Debye-Ang**2):
  XXX=           -195.6967  YYY=              0.1919  ZZZ=              0.0076  XYY=            -51.9518
  XXY=             39.0970  XXZ=             -0.0087  XZZ=            -26.9780  YZZ=              1.7492
  YYZ=             -0.0000  XYZ=              0.0045
 Hexadecapole moment (field-independent basis, Debye-Ang**3):
 XXXX=          -3339.2080 YYYY=           -648.3611 ZZZZ=            -96.9994 XXXY=            121.4683
 XXXZ=             -0.0475 YYYX=            -18.9617 YYYZ=             -0.0002 ZZZX=              0.0096
 ZZZY=             -0.0009 XXYY=           -659.2845 XXZZ=           -483.7542 YYZZ=           -126.4717
 XXYZ=              0.0140 YYXZ=             -0.0076 ZZXY=             -7.9129
 N-N= 7.868614070722D+02 E-N=-8.691892628899D+03  KE= 2.975988043650D+03
 There are a total of      409748 grid points.
 ElSum from          density=      105.0000115100
 ElSum from atomic densities=      104.0000031525
 Hirshfeld populations at iteration   1 (CA, CB, DipXYZ):
               1          2          3          4          5
     1  O    4.291717   4.080015  -0.066228   0.074496   0.000005
     2  C    3.042463   2.905264   0.036979   0.041497  -0.000042
     3  C    3.041163   3.032264  -0.037592  -0.009399   0.000018
     4  C    3.029486   3.024275   0.007578  -0.032497   0.000001
     5  C    3.047878   2.987245   0.049742   0.048264   0.000012
     6  C    3.076310   3.030026  -0.009264   0.018221   0.000019
     7  C    3.138715   2.927727  -0.048056   0.010186   0.000008
     8  Br  17.601550  17.569710   0.096192  -0.011940  -0.000003
     9  C    3.032381   3.051072  -0.013310  -0.024103   0.000011
    10  C    3.123019   2.970798   0.034770  -0.015259   0.000006
    11  C    3.104795   2.986232  -0.004435  -0.017326  -0.000027
    12  H    0.501811   0.490778   0.073581   0.016110   0.106542
    13  H    0.501819   0.490803   0.073673   0.016164  -0.106449
    14  H    0.493466   0.492665  -0.008026   0.079851  -0.109160
    15  H    0.493466   0.492662  -0.008064   0.079840   0.109170
    16  H    0.494783   0.491743  -0.045057   0.136359   0.000005
    17  H    0.490470   0.491940  -0.075803  -0.124425   0.000006
    18  H    0.494713   0.484786   0.061476  -0.133187  -0.000014
       Tot  53.000005  52.000007   0.118155   0.152851   0.000108

 Dip from Atomic Chgs             -2.126863   0.984812  -0.000190
         Total Dipole             -2.008708   1.137662  -0.000081

 Hirshfeld charges, spin densities, dipoles, and CM5 charges using IRadAn=      5:
              Q-H        S-H        Dx         Dy         Dz        Q-CM5   
     1  O   -0.371733   0.211702  -0.066228   0.074496   0.000005  -0.416989
     2  C    0.052273   0.137199   0.036979   0.041497  -0.000042   0.080644
     3  C   -0.073428   0.008899  -0.037592  -0.009399   0.000018  -0.171763
     4  C   -0.053761   0.005210   0.007578  -0.032497   0.000001  -0.153809
     5  C   -0.035123   0.060633   0.049742   0.048264   0.000012  -0.045782
     6  C   -0.106336   0.046284  -0.009264   0.018221   0.000019  -0.157015
     7  C   -0.066442   0.210988  -0.048056   0.010186   0.000008  -0.087611
     8  Br  -0.171260   0.031840   0.096192  -0.011940  -0.000003  -0.156375
     9  C   -0.083453  -0.018691  -0.013310  -0.024103   0.000011  -0.136598
    10  C   -0.093817   0.152221   0.034770  -0.015259   0.000006  -0.145053
    11  C   -0.091028   0.118563  -0.004435  -0.017326  -0.000027  -0.094190
    12  H    0.007411   0.011033   0.073581   0.016110   0.106542   0.062868
    13  H    0.007378   0.011016   0.073673   0.016164  -0.106449   0.062834
    14  H    0.013868   0.000801  -0.008026   0.079851  -0.109160   0.068133
    15  H    0.013872   0.000804  -0.008064   0.079840   0.109170   0.068138
    16  H    0.013474   0.003040  -0.045057   0.136359   0.000005   0.070354
    17  H    0.017590  -0.001470  -0.075803  -0.124425   0.000006   0.074177
    18  H    0.020501   0.009927   0.061476  -0.133187  -0.000014   0.078025
       Tot  -1.000012   0.999998   0.118155   0.152851   0.000108  -1.000012
 Hirshfeld charges and spin densities with hydrogens summed into heavy atoms:
              Q-H        S-H       Q-CM5   
     1  O   -0.371733   0.211702  -0.416989
     2  C    0.052273   0.137199   0.080644
     3  C   -0.058638   0.030948  -0.046062
     4  C   -0.026021   0.006815  -0.017538
     5  C   -0.035123   0.060633  -0.045782
     6  C   -0.092862   0.049324  -0.086661
     7  C   -0.066442   0.210988  -0.087611
     8  Br  -0.171260   0.031840  -0.156375
     9  C   -0.065862  -0.020161  -0.062421
    10  C   -0.073317   0.162148  -0.067028
    11  C   -0.091028   0.118563  -0.094190
 
 EQQ= 0.901502392480E-01 EQD=-0.222344379223E-01 EDD=-0.577066985188E-04
 EQQ+QD+DD= 0.678580946272E-01
 
                          Isotropic Fermi Contact Couplings
        Atom                 a.u.       MegaHertz       Gauss      10(-4) cm-1
     1  O(17)              0.04085     -24.76085      -8.83529      -8.25933
     2  C(13)              0.00724       8.13534       2.90289       2.71366
     3  C(13)             -0.00754      -8.47526      -3.02418      -2.82704
     4  C(13)             -0.00161      -1.81412      -0.64732      -0.60513
     5  C(13)              0.00313       3.52062       1.25624       1.17435
     6  C(13)             -0.00452      -5.08452      -1.81428      -1.69601
     7  C(13)              0.03893      43.76092      15.61498      14.59707
     8  Br(79)            -0.00157      -1.76787      -0.63082      -0.58970
     9  C(13)             -0.01864     -20.95374      -7.47682      -6.98942
    10  C(13)              0.02020      22.71146       8.10401       7.57573
    11  C(13)              0.00433       4.86376       1.73551       1.62238
    12  H(1)               0.00483      21.57025       7.69680       7.19506
    13  H(1)               0.00482      21.56552       7.69511       7.19348
    14  H(1)               0.00036       1.60497       0.57269       0.53536
    15  H(1)               0.00036       1.61163       0.57507       0.53758
    16  H(1)              -0.00046      -2.07585      -0.74071      -0.69243
    17  H(1)               0.00098       4.36425       1.55727       1.45576
    18  H(1)              -0.00291     -13.00635      -4.64099      -4.33845
 --------------------------------------------------------
       Center         ----  Spin Dipole Couplings  ----
                      3XX-RR        3YY-RR        3ZZ-RR
 --------------------------------------------------------
     1   Atom       -0.420936     -0.427397      0.848334
     2   Atom       -0.077811     -0.082778      0.160589
     3   Atom        0.001795      0.004103     -0.005899
     4   Atom       -0.002242      0.003614     -0.001373
     5   Atom       -0.031344     -0.035420      0.066763
     6   Atom       -0.014832     -0.016319      0.031152
     7   Atom       -0.166130     -0.183352      0.349482
     8   Atom       -0.240074     -0.023617      0.263691
     9   Atom        0.043298      0.039627     -0.082925
    10   Atom       -0.107198     -0.106628      0.213826
    11   Atom       -0.062769     -0.075591      0.138360
    12   Atom       -0.000119      0.003280     -0.003161
    13   Atom       -0.000118      0.003283     -0.003165
    14   Atom       -0.000841      0.003429     -0.002588
    15   Atom       -0.000841      0.003427     -0.002586
    16   Atom       -0.001921      0.005365     -0.003443
    17   Atom        0.003037      0.001107     -0.004144
    18   Atom       -0.008815      0.013127     -0.004312
 --------------------------------------------------------
                        XY            XZ            YZ
 --------------------------------------------------------
     1   Atom        0.009926     -0.000823      0.000471
     2   Atom       -0.010091      0.000005     -0.000049
     3   Atom        0.003084     -0.000002      0.000001
     4   Atom        0.000106     -0.000003      0.000006
     5   Atom       -0.004184      0.000001     -0.000025
     6   Atom        0.003184     -0.000033      0.000004
     7   Atom       -0.001069      0.000044      0.000047
     8   Atom        0.027584     -0.000002      0.000025
     9   Atom       -0.006542     -0.000021     -0.000005
    10   Atom        0.000258      0.000034      0.000038
    11   Atom        0.001491      0.000325     -0.000029
    12   Atom        0.003829      0.000605      0.002395
    13   Atom        0.003833     -0.000601     -0.002390
    14   Atom        0.001203     -0.000548     -0.001916
    15   Atom        0.001203      0.000549      0.001917
    16   Atom       -0.003641     -0.000001     -0.000000
    17   Atom       -0.003032     -0.000001     -0.000001
    18   Atom       -0.010560     -0.000000      0.000001
 --------------------------------------------------------


 ---------------------------------------------------------------------------------
              Anisotropic Spin Dipole Couplings in Principal Axis System
 ---------------------------------------------------------------------------------

       Atom             a.u.   MegaHertz   Gauss  10(-4) cm-1        Axes

              Baa    -0.4346    31.448    11.221    10.490 -0.5876  0.8092 -0.0007
     1 O(17)  Bbb    -0.4137    29.937    10.682     9.986  0.8092  0.5876  0.0003
              Bcc     0.8483   -61.385   -21.904   -20.476 -0.0006  0.0004  1.0000
 
              Baa    -0.0907   -12.169    -4.342    -4.059  0.6168  0.7871  0.0001
     2 C(13)  Bbb    -0.0699    -9.380    -3.347    -3.129  0.7871 -0.6168 -0.0001
              Bcc     0.1606    21.550     7.689     7.188  0.0000 -0.0002  1.0000
 
              Baa    -0.0059    -0.792    -0.282    -0.264  0.0004 -0.0003  1.0000
     3 C(13)  Bbb    -0.0003    -0.046    -0.016    -0.015  0.8217 -0.5699 -0.0005
              Bcc     0.0062     0.838     0.299     0.279  0.5699  0.8217 -0.0000
 
              Baa    -0.0022    -0.301    -0.107    -0.100  0.9998 -0.0180  0.0033
     4 C(13)  Bbb    -0.0014    -0.184    -0.066    -0.061 -0.0033 -0.0011  1.0000
              Bcc     0.0036     0.485     0.173     0.162  0.0180  0.9998  0.0011
 
              Baa    -0.0380    -5.104    -1.821    -1.703  0.5301  0.8479  0.0002
     5 C(13)  Bbb    -0.0287    -3.855    -1.376    -1.286  0.8479 -0.5301 -0.0002
              Bcc     0.0668     8.959     3.197     2.988  0.0000 -0.0002  1.0000
 
              Baa    -0.0188    -2.529    -0.902    -0.844 -0.6216  0.7834 -0.0005
     6 C(13)  Bbb    -0.0123    -1.651    -0.589    -0.551  0.7834  0.6216  0.0005
              Bcc     0.0312     4.180     1.492     1.394 -0.0007  0.0000  1.0000
 
              Baa    -0.1834   -24.613    -8.783    -8.210  0.0617  0.9981 -0.0001
     7 C(13)  Bbb    -0.1661   -22.284    -7.952    -7.433  0.9981 -0.0617 -0.0001
              Bcc     0.3495    46.897    16.734    15.643  0.0001  0.0001  1.0000
 
              Baa    -0.2435   -32.667   -11.656   -10.897  0.9922 -0.1245  0.0000
     8 Br(79) Bbb    -0.0202    -2.704    -0.965    -0.902  0.1245  0.9922 -0.0001
              Bcc     0.2637    35.371    12.621    11.798  0.0000  0.0001  1.0000
 
              Baa    -0.0829   -11.128    -3.971    -3.712  0.0002  0.0000  1.0000
     9 C(13)  Bbb     0.0347     4.652     1.660     1.552  0.6041  0.7969 -0.0001
              Bcc     0.0483     6.476     2.311     2.160  0.7969 -0.6041 -0.0001
 
              Baa    -0.1073   -14.398    -5.138    -4.803  0.9331 -0.3595 -0.0001
    10 C(13)  Bbb    -0.1065   -14.295    -5.101    -4.768  0.3595  0.9331 -0.0001
              Bcc     0.2138    28.693    10.239     9.571  0.0001  0.0001  1.0000
 
              Baa    -0.0758   -10.167    -3.628    -3.391 -0.1140  0.9935  0.0003
    11 C(13)  Bbb    -0.0626    -8.400    -2.997    -2.802  0.9935  0.1140 -0.0016
              Bcc     0.1384    18.567     6.625     6.193  0.0016 -0.0001  1.0000
 
              Baa    -0.0041    -2.204    -0.787    -0.735  0.2693 -0.4192  0.8670
    12 H(1)   Bbb    -0.0022    -1.183    -0.422    -0.395  0.8163 -0.3784 -0.4365
              Bcc     0.0063     3.387     1.209     1.130  0.5111  0.8253  0.2403
 
              Baa    -0.0041    -2.205    -0.787    -0.736 -0.2702  0.4191  0.8668
    13 H(1)   Bbb    -0.0022    -1.183    -0.422    -0.395  0.8158 -0.3784  0.4373
              Bcc     0.0064     3.389     1.209     1.130  0.5113  0.8253 -0.2396
 
              Baa    -0.0032    -1.688    -0.602    -0.563  0.0908  0.2626  0.9606
    14 H(1)   Bbb    -0.0012    -0.617    -0.220    -0.206  0.9650 -0.2614 -0.0197
              Bcc     0.0043     2.304     0.822     0.769  0.2459  0.9288 -0.2771
 
              Baa    -0.0032    -1.687    -0.602    -0.563 -0.0908 -0.2629  0.9606
    15 H(1)   Bbb    -0.0012    -0.617    -0.220    -0.206  0.9650 -0.2616  0.0196
              Bcc     0.0043     2.304     0.822     0.769  0.2461  0.9287  0.2774
 
              Baa    -0.0034    -1.837    -0.656    -0.613  0.0932  0.0386  0.9949
    16 H(1)   Bbb    -0.0034    -1.830    -0.653    -0.610  0.9192  0.3806 -0.1008
              Bcc     0.0069     3.667     1.308     1.223 -0.3826  0.9239  0.0000
 
              Baa    -0.0041    -2.211    -0.789    -0.738  0.0003  0.0003  1.0000
    17 H(1)   Bbb    -0.0011    -0.592    -0.211    -0.198  0.5902  0.8072 -0.0004
              Bcc     0.0053     2.803     1.000     0.935  0.8072 -0.5902 -0.0000
 
              Baa    -0.0131    -6.974    -2.489    -2.326  0.9275  0.3738 -0.0000
    18 H(1)   Bbb    -0.0043    -2.301    -0.821    -0.767  0.0000 -0.0001  1.0000
              Bcc     0.0174     9.275     3.310     3.094 -0.3738  0.9275  0.0001
 

 ---------------------------------------------------------------------------------

 Running external command "gaunbo6 R"
         input file       "/home/rpaton/arbr500/midi/fukui/Gau-2429490.EIn"
         output file      "/home/rpaton/arbr500/midi/fukui/Gau-2429490.EOu"
         message file     "/home/rpaton/arbr500/midi/fukui/Gau-2429490.EMs"
         fchk file        "/home/rpaton/arbr500/midi/fukui/Gau-2429490.EFC"
         mat. el file     "/home/rpaton/arbr500/midi/fukui/Gau-2429490.EUF"

 Writing WrtUnf unformatted file "/home/rpaton/arbr500/midi/fukui/Gau-2429490.EUF"
 Gaussian matrix elements                                         Version   2 NLab=11 Len12L=8 Len4L=8
 Write SHELL TO ATOM MAP                   from file      0 offset           0 length                  76 to matrix element file.
 Write SHELL TYPES                         from file      0 offset           0 length                  76 to matrix element file.
 Write NUMBER OF PRIMITIVES PER SHELL      from file      0 offset           0 length                  76 to matrix element file.
 Write PRIMITIVE EXPONENTS                 from file      0 offset           0 length                 137 to matrix element file.
 Write CONTRACTION COEFFICIENTS            from file      0 offset           0 length                 137 to matrix element file.
 Write P(S=P) CONTRACTION COEFFICIENTS     from file      0 offset           0 length                 137 to matrix element file.
 Write COORDINATES OF EACH SHELL           from file      0 offset           0 length                 228 to matrix element file.
 Write BONDS PER ATOM                      from file      0 offset           0 length                  18 to matrix element file.
 Write BONDED ATOMS                        from file      0 offset           0 length                  38 to matrix element file.
 Write BOND TYPES                          from file      0 offset           0 length                  38 to matrix element file.
 Write ONIOM CHARGE/MULT                   from file      0 offset           0 length                  32 to matrix element file.
 Write ONIOM ATOM LAYERS                   from file      0 offset           0 length                  18 to matrix element file.
 Write ONIOM ATOM MODIFIERS                from file      0 offset           0 length                  18 to matrix element file.
 Write ONIOM ATOM TYPES                    from file      0 offset           0 length                  18 to matrix element file.
 Write ONIOM LINK ATOMS                    from file      0 offset           0 length                  18 to matrix element file.
 Write ONIOM LINK CHARGES                  from file      0 offset           0 length                  18 to matrix element file.
 Write ONIOM LINK DISTANCES                from file      0 offset           0 length                  72 to matrix element file.
 Write SYMINF INTS                         from file      0 offset           0 length                  26 to matrix element file.
 Write ROTTR TO SO                         from file      0 offset           0 length                  12 to matrix element file.
 Write GAUSSIAN SCALARS                    from file    501 offset           0 to matrix element file.
 Write OPTIMIZATION FLAGS                  from file      0 offset           0 length                  18 to matrix element file.
 Write INTEGER ISO                         from file      0 offset           0 length                  18 to matrix element file.
 Write INTEGER SPIN                        from file      0 offset           0 length                  18 to matrix element file.
 Write REAL ZEFFECTIVE                     from file      0 offset           0 length                  18 to matrix element file.
 Write REAL QUADRUPOLEMOMENT               from file      0 offset           0 length                  18 to matrix element file.
 Write REAL GFACTOR                        from file      0 offset           0 length                  18 to matrix element file.
 Write REAL ZNUCLEAR                       from file      0 offset           0 length                  18 to matrix element file.
 Write MULLIKEN CHARGES                    from file      0 offset           0 length                  18 to matrix element file.
 Write TYPE 6 CHARGES                      from file      0 offset           0 length                  18 to matrix element file.
 Write TYPE 7 CHARGES                      from file      0 offset           0 length                  18 to matrix element file.
 Write NUCLEAR GRADIENT                    from file  10584 offset           0 length                  54 to matrix element file.
 Array NUCLEAR FORCE CONSTANTS              on  file  10585 does not exist.
 Write ELECTRIC DIPOLE MOMENT              from file      0 offset           0 length                   3 to matrix element file.
 Write NON-ADIABATIC COUPLING              from file  10810 offset           0 length                  54 to matrix element file.
 Write FINITE EM FIELD                     from file  10521 offset           0 length                  35 to matrix element file.
 Write OVERLAP                             from file  10514 offset           0 length                9316 to matrix element file.
 Write CORE HAMILTONIAN ALPHA              from file  10515 offset           0 length                9316 to matrix element file.
 Write CORE HAMILTONIAN BETA               from file  10515 offset        9316 length                9316 to matrix element file.
 Write KINETIC ENERGY                      from file  10516 offset           0 length                9316 to matrix element file.
 Write ORTHOGONAL BASIS                    from file  10685 offset           0 length               18496 to matrix element file.
 Write DIPOLE INTEGRALS                    from file  10518 offset           0 length               27948 to matrix element file.
 Array DIP VEL INTEGRALS                    on  file  10572 does not exist.
 Array R X DEL INTEGRALS                    on  file  10572 does not exist.
 Write ALPHA ORBITAL ENERGIES              from file      0 offset           0 length                 136 to matrix element file.
 Write BETA ORBITAL ENERGIES               from file      0 offset           0 length                 136 to matrix element file.
 Write ALPHA MO COEFFICIENTS               from file  10524 offset           0 length               18496 to matrix element file.
 Write BETA MO COEFFICIENTS                from file  10526 offset           0 length               18496 to matrix element file.
 Write ALPHA DENSITY MATRIX                from file      0 offset           0 length                9316 to matrix element file.
 Write BETA DENSITY MATRIX                 from file      0 offset           0 length                9316 to matrix element file.
 Write ALPHA FOCK MATRIX                   from file  10536 offset           0 length                9316 to matrix element file.
 Write BETA FOCK MATRIX                    from file  10538 offset           0 length                9316 to matrix element file.
 Write ENERGY-WEIGHTED DENSITY             from file  10571 offset           0 length                9316 to matrix element file.
 Write ALPHA SCF DENSITY MATRIX            from file      0 offset           0 length                9316 to matrix element file.
 Write BETA SCF DENSITY MATRIX             from file      0 offset           0 length                9316 to matrix element file.
 No 2e integrals to process.
 Perform NBO analysis...

 *********************************** NBO 7.0 ***********************************
             N A T U R A L   A T O M I C   O R B I T A L   A N D
          N A T U R A L   B O N D   O R B I T A L   A N A L Y S I S
 **************************** Robert Paton (I101709) ***************************
  (c) Copyright 1996-2019 Board of Regents of the University of Wisconsin System
      on behalf of the Theoretical Chemistry Institute.  All rights reserved.

          Cite this program [NBO 7.0.5 (4-Jun-2019)] as:

          NBO 7.0.  E. D. Glendening, J. K. Badenhoop, A. E. Reed,
          J. E. Carpenter, J. A. Bohmann, C. M. Morales, P. Karafiloglou,
          C. R. Landis, and F. Weinhold, Theoretical Chemistry Institute,
          University of Wisconsin, Madison, WI (2018)

 Filename set to /home/rpaton/arbr500/midi/fukui/Gau-2429490

 Job title:  arbr31_wb97xd_redcreated by GaussianPrep


 NATURAL POPULATIONS:  Natural atomic orbital occupancies

  NAO Atom No lang   Type(AO)    Occupancy     Spin
 -----------------------------------------------------
   1    O  1  s      Cor( 1s)     1.99989     0.00000
   2    O  1  s      Val( 2s)     1.68225     0.00386
   3    O  1  s      Ryd( 3s)     0.00089    -0.00002
   4    O  1  px     Val( 2p)     1.76795     0.00114
   5    O  1  px     Ryd( 3p)     0.00096     0.00000
   6    O  1  py     Val( 2p)     1.68718     0.00109
   7    O  1  py     Ryd( 3p)     0.00054    -0.00001
   8    O  1  pz     Val( 2p)     1.46540     0.22219
   9    O  1  pz     Ryd( 3p)     0.00081     0.00062
  10    O  1  dxy    Ryd( 3d)     0.00463    -0.00002
  11    O  1  dxz    Ryd( 3d)     0.00125    -0.00010
  12    O  1  dyz    Ryd( 3d)     0.00228    -0.00012
  13    O  1  dx2y2  Ryd( 3d)     0.00319    -0.00002
  14    O  1  dz2    Ryd( 3d)     0.00160     0.00002

  15    C  2  s      Cor( 1s)     1.99987     0.00000
  16    C  2  s      Val( 2s)     0.80859     0.00348
  17    C  2  s      Ryd( 3s)     0.00408     0.00008
  18    C  2  px     Val( 2p)     0.92229    -0.00156
  19    C  2  px     Ryd( 3p)     0.01147    -0.00011
  20    C  2  py     Val( 2p)     0.86203     0.00047
  21    C  2  py     Ryd( 3p)     0.01653    -0.00008
  22    C  2  pz     Val( 2p)     0.95878     0.13774
  23    C  2  pz     Ryd( 3p)     0.00256     0.00011

  24    C  3  s      Cor( 1s)     1.99977     0.00000
  25    C  3  s      Val( 2s)     1.06309    -0.00215
  26    C  3  s      Ryd( 3s)     0.00076    -0.00001
  27    C  3  px     Val( 2p)     1.13640    -0.00159
  28    C  3  px     Ryd( 3p)     0.00227    -0.00001
  29    C  3  py     Val( 2p)     1.12357    -0.00497
  30    C  3  py     Ryd( 3p)     0.00089     0.00000
  31    C  3  pz     Val( 2p)     1.24863    -0.00421
  32    C  3  pz     Ryd( 3p)     0.00128     0.00004

  33    C  4  s      Cor( 1s)     1.99976     0.00000
  34    C  4  s      Val( 2s)     1.03067    -0.00033
  35    C  4  s      Ryd( 3s)     0.00038     0.00000
  36    C  4  px     Val( 2p)     1.05601    -0.00091
  37    C  4  px     Ryd( 3p)     0.00166     0.00000
  38    C  4  py     Val( 2p)     1.16376    -0.00069
  39    C  4  py     Ryd( 3p)     0.00163     0.00000
  40    C  4  pz     Val( 2p)     1.24823     0.00113
  41    C  4  pz     Ryd( 3p)     0.00129     0.00009

  42    C  5  s      Cor( 1s)     1.99990     0.00000
  43    C  5  s      Val( 2s)     0.84031     0.00133
  44    C  5  s      Ryd( 3s)     0.00091    -0.00001
  45    C  5  px     Val( 2p)     1.08780     0.00034
  46    C  5  px     Ryd( 3p)     0.00437     0.00000
  47    C  5  py     Val( 2p)     1.07366     0.00006
  48    C  5  py     Ryd( 3p)     0.00414    -0.00002
  49    C  5  pz     Val( 2p)     1.01147     0.05326
  50    C  5  pz     Ryd( 3p)     0.00124     0.00020

  51    C  6  s      Cor( 1s)     1.99984     0.00000
  52    C  6  s      Val( 2s)     0.92135    -0.00115
  53    C  6  s      Ryd( 3s)     0.00098     0.00003
  54    C  6  px     Val( 2p)     1.09758    -0.00326
  55    C  6  px     Ryd( 3p)     0.00605     0.00008
  56    C  6  py     Val( 2p)     1.17852    -0.00237
  57    C  6  py     Ryd( 3p)     0.00505     0.00002
  58    C  6  pz     Val( 2p)     1.09491     0.03133
  59    C  6  pz     Ryd( 3p)     0.00167     0.00122

  60    C  7  s      Cor( 1s)     1.99989     0.00000
  61    C  7  s      Val( 2s)     0.91246     0.01309
  62    C  7  s      Ryd( 3s)     0.00056    -0.00001
  63    C  7  px     Val( 2p)     0.93219     0.00998
  64    C  7  px     Ryd( 3p)     0.00574    -0.00002
  65    C  7  py     Val( 2p)     1.11167     0.00642
  66    C  7  py     Ryd( 3p)     0.00636    -0.00001
  67    C  7  pz     Val( 2p)     1.25220     0.26672
  68    C  7  pz     Ryd( 3p)     0.00129     0.00076

  69   Br  8  s      Cor( 3s)     2.00000     0.00000
  70   Br  8  s      Cor( 1s)     2.00000     0.00000
  71   Br  8  s      Cor( 2s)     1.99999     0.00000
  72   Br  8  s      Val( 4s)     1.86156     0.00037
  73   Br  8  s      Ryd( 5s)     0.00266     0.00010
  74   Br  8  px     Cor( 3p)     2.00000     0.00000
  75   Br  8  px     Cor( 2p)     1.99999     0.00000
  76   Br  8  px     Val( 4p)     1.21710    -0.01409
  77   Br  8  px     Ryd( 5p)     0.00309     0.00006
  78   Br  8  py     Cor( 3p)     2.00000     0.00000
  79   Br  8  py     Cor( 2p)     1.99999     0.00000
  80   Br  8  py     Val( 4p)     1.97288    -0.00014
  81   Br  8  py     Ryd( 5p)     0.00125     0.00001
  82   Br  8  pz     Cor( 3p)     2.00000     0.00000
  83   Br  8  pz     Cor( 2p)     2.00000     0.00000
  84   Br  8  pz     Val( 4p)     1.96905     0.01533
  85   Br  8  pz     Ryd( 5p)     0.00092     0.00033
  86   Br  8  dxy    Cor( 3d)     1.99968     0.00000
  87   Br  8  dxy    Ryd( 4d)     0.00077    -0.00002
  88   Br  8  dxz    Cor( 3d)     1.99988     0.00001
  89   Br  8  dxz    Ryd( 4d)     0.00401     0.00163
  90   Br  8  dyz    Cor( 3d)     2.00000     0.00000
  91   Br  8  dyz    Ryd( 4d)     0.00015     0.00006
  92   Br  8  dx2y2  Cor( 3d)     1.99943     0.00000
  93   Br  8  dx2y2  Ryd( 4d)     0.00448    -0.00006
  94   Br  8  dz2    Cor( 3d)     1.99980     0.00000
  95   Br  8  dz2    Ryd( 4d)     0.00154     0.00000

  96    C  9  s      Cor( 1s)     1.99986     0.00000
  97    C  9  s      Val( 2s)     0.93901    -0.00586
  98    C  9  s      Ryd( 3s)     0.00075     0.00003
  99    C  9  px     Val( 2p)     1.13509    -0.00608
 100    C  9  px     Ryd( 3p)     0.00585     0.00007
 101    C  9  py     Val( 2p)     1.14739    -0.00622
 102    C  9  py     Ryd( 3p)     0.00463     0.00003
 103    C  9  pz     Val( 2p)     1.03297    -0.06665
 104    C  9  pz     Ryd( 3p)     0.00073     0.00017

 105    C 10  s      Cor( 1s)     1.99983     0.00000
 106    C 10  s      Val( 2s)     0.92287     0.00711
 107    C 10  s      Ryd( 3s)     0.00077    -0.00001
 108    C 10  px     Val( 2p)     1.07830     0.00411
 109    C 10  px     Ryd( 3p)     0.00590     0.00001
 110    C 10  py     Val( 2p)     1.18200     0.00359
 111    C 10  py     Ryd( 3p)     0.00534    -0.00002
 112    C 10  pz     Val( 2p)     1.08446     0.18577
 113    C 10  pz     Ryd( 3p)     0.00199     0.00177

 114    C 11  s      Cor( 1s)     1.99990     0.00000
 115    C 11  s      Val( 2s)     0.85913     0.00165
 116    C 11  s      Ryd( 3s)     0.00198     0.00006
 117    C 11  px     Val( 2p)     1.12679    -0.00272
 118    C 11  px     Ryd( 3p)     0.00457     0.00005
 119    C 11  py     Val( 2p)     1.10016    -0.00043
 120    C 11  py     Ryd( 3p)     0.00474     0.00000
 121    C 11  pz     Val( 2p)     1.11758     0.12417
 122    C 11  pz     Ryd( 3p)     0.00157     0.00128

 123    H 12  s      Val( 1s)     0.76253     0.01266
 124    H 12  s      Ryd( 2s)     0.00343     0.00127

 125    H 13  s      Val( 1s)     0.76256     0.01264
 126    H 13  s      Ryd( 2s)     0.00342     0.00127

 127    H 14  s      Val( 1s)     0.75581    -0.00040
 128    H 14  s      Ryd( 2s)     0.00137    -0.00002

 129    H 15  s      Val( 1s)     0.75580    -0.00040
 130    H 15  s      Ryd( 2s)     0.00137    -0.00002

 131    H 16  s      Val( 1s)     0.77111    -0.00096
 132    H 16  s      Ryd( 2s)     0.00140     0.00000

 133    H 17  s      Val( 1s)     0.76916     0.00250
 134    H 17  s      Ryd( 2s)     0.00132     0.00000

 135    H 18  s      Val( 1s)     0.76761    -0.00702
 136    H 18  s      Ryd( 2s)     0.00348    -0.00008


 Summary of Natural Population Analysis:

                                     Natural Population                 Natural
             Natural    ---------------------------------------------    Spin
  Atom No    Charge        Core      Valence    Rydberg      Total      Density
 -------------------------------------------------------------------------------
    O  1   -0.61882      1.99989     6.60279    0.01614     8.61882     0.22863
    C  2    0.41378      1.99987     3.55171    0.03465     5.58622     0.14011
    C  3   -0.57667      1.99977     4.57170    0.00520     6.57667    -0.01290
    C  4   -0.50339      1.99976     4.49868    0.00495     6.50339    -0.00072
    C  5   -0.02380      1.99990     4.01324    0.01066     6.02380     0.05516
    C  6   -0.30595      1.99984     4.29236    0.01375     6.30595     0.02588
    C  7   -0.22236      1.99989     4.20852    0.01395     6.22236     0.29695
   Br  8   -0.03822     27.99877     7.02059    0.01887    35.03822     0.00358
    C  9   -0.26629      1.99986     4.25446    0.01196     6.26629    -0.08451
    C 10   -0.28146      1.99983     4.26763    0.01400     6.28146     0.20232
    C 11   -0.21642      1.99990     4.20366    0.01286     6.21642     0.12406
    H 12    0.23404      0.00000     0.76253    0.00343     0.76596     0.01393
    H 13    0.23401      0.00000     0.76256    0.00342     0.76599     0.01391
    H 14    0.24282      0.00000     0.75581    0.00137     0.75718    -0.00042
    H 15    0.24282      0.00000     0.75580    0.00137     0.75718    -0.00042
    H 16    0.22749      0.00000     0.77111    0.00140     0.77251    -0.00097
    H 17    0.22952      0.00000     0.76916    0.00132     0.77048     0.00250
    H 18    0.22891      0.00000     0.76761    0.00348     0.77109    -0.00710
 ===============================================================================
 * Total * -1.00000     47.99729    56.82991    0.17280   105.00000     1.00000

                                 Natural Population
 ---------------------------------------------------------
   Core                      47.99729 ( 99.9943% of   48)
   Valence                   56.82991 ( 99.7016% of   57)
   Natural Minimal Basis    104.82720 ( 99.8354% of  105)
   Natural Rydberg Basis      0.17280 (  0.1646% of  105)
 ---------------------------------------------------------

    Atom No         Natural Electron Configuration
 ----------------------------------------------------------------------------
      O  1      [core]2s( 1.68)2p( 4.92)3d( 0.01)
      C  2      [core]2s( 0.81)2p( 2.74)3p( 0.03)
      C  3      [core]2s( 1.06)2p( 3.51)
      C  4      [core]2s( 1.03)2p( 3.47)
      C  5      [core]2s( 0.84)2p( 3.17)3p( 0.01)
      C  6      [core]2s( 0.92)2p( 3.37)3p( 0.01)
      C  7      [core]2s( 0.91)2p( 3.30)3p( 0.01)
     Br  8      [core]4s( 1.86)4p( 5.16)4d( 0.01)5p( 0.01)
      C  9      [core]2s( 0.94)2p( 3.32)3p( 0.01)
      C 10      [core]2s( 0.92)2p( 3.34)3p( 0.01)
      C 11      [core]2s( 0.86)2p( 3.34)3p( 0.01)
      H 12            1s( 0.76)
      H 13            1s( 0.76)
      H 14            1s( 0.76)
      H 15            1s( 0.76)
      H 16            1s( 0.77)
      H 17            1s( 0.77)
      H 18            1s( 0.77)


 ***************************************************
 *******         Alpha spin orbitals         *******
 ***************************************************


 NATURAL POPULATIONS:  Natural atomic orbital occupancies

  NAO Atom No lang   Type(AO)    Occupancy      Energy
 -------------------------------------------------------
   1    O  1  s      Cor( 1s)     0.99995     -18.91123
   2    O  1  s      Val( 2s)     0.84305      -0.52928
   3    O  1  s      Ryd( 3s)     0.00043       1.91302
   4    O  1  px     Val( 2p)     0.88455      -0.12010
   5    O  1  px     Ryd( 3p)     0.00048       2.12516
   6    O  1  py     Val( 2p)     0.84414      -0.12137
   7    O  1  py     Ryd( 3p)     0.00027       2.13649
   8    O  1  pz     Val( 2p)     0.84380      -0.11437
   9    O  1  pz     Ryd( 3p)     0.00071       1.87489
  10    O  1  dxy    Ryd( 3d)     0.00230       2.64611
  11    O  1  dxz    Ryd( 3d)     0.00057       2.10874
  12    O  1  dyz    Ryd( 3d)     0.00108       2.11907
  13    O  1  dx2y2  Ryd( 3d)     0.00159       2.32518
  14    O  1  dz2    Ryd( 3d)     0.00081       2.29600

  15    C  2  s      Cor( 1s)     0.99993     -10.09947
  16    C  2  s      Val( 2s)     0.40604       0.12557
  17    C  2  s      Ryd( 3s)     0.00208       0.97773
  18    C  2  px     Val( 2p)     0.46037       0.21803
  19    C  2  px     Ryd( 3p)     0.00568       1.27078
  20    C  2  py     Val( 2p)     0.43125       0.23125
  21    C  2  py     Ryd( 3p)     0.00822       1.41310
  22    C  2  pz     Val( 2p)     0.54826       0.05371
  23    C  2  pz     Ryd( 3p)     0.00133       1.11897

  24    C  3  s      Cor( 1s)     0.99989     -10.07415
  25    C  3  s      Val( 2s)     0.53047      -0.02311
  26    C  3  s      Ryd( 3s)     0.00037       1.40141
  27    C  3  px     Val( 2p)     0.56741       0.07036
  28    C  3  px     Ryd( 3p)     0.00113       1.15830
  29    C  3  py     Val( 2p)     0.55930       0.06592
  30    C  3  py     Ryd( 3p)     0.00044       1.12463
  31    C  3  pz     Val( 2p)     0.62221       0.04475
  32    C  3  pz     Ryd( 3p)     0.00066       1.26827

  33    C  4  s      Cor( 1s)     0.99988     -10.09193
  34    C  4  s      Val( 2s)     0.51517      -0.01331
  35    C  4  s      Ryd( 3s)     0.00019       1.38944
  36    C  4  px     Val( 2p)     0.52755       0.07405
  37    C  4  px     Ryd( 3p)     0.00083       1.11047
  38    C  4  py     Val( 2p)     0.58153       0.05833
  39    C  4  py     Ryd( 3p)     0.00081       1.12040
  40    C  4  pz     Val( 2p)     0.62468       0.03521
  41    C  4  pz     Ryd( 3p)     0.00069       1.27058

  42    C  5  s      Cor( 1s)     0.99995     -10.07129
  43    C  5  s      Val( 2s)     0.42082       0.15291
  44    C  5  s      Ryd( 3s)     0.00045       0.91300
  45    C  5  px     Val( 2p)     0.54407       0.15027
  46    C  5  px     Ryd( 3p)     0.00219       1.62656
  47    C  5  py     Val( 2p)     0.53686       0.14366
  48    C  5  py     Ryd( 3p)     0.00206       1.53394
  49    C  5  pz     Val( 2p)     0.53236       0.05156
  50    C  5  pz     Ryd( 3p)     0.00072       1.17289

  51    C  6  s      Cor( 1s)     0.99992     -10.06715
  52    C  6  s      Val( 2s)     0.46010       0.11534
  53    C  6  s      Ryd( 3s)     0.00050       0.88667
  54    C  6  px     Val( 2p)     0.54716       0.14351
  55    C  6  px     Ryd( 3p)     0.00306       1.20665
  56    C  6  py     Val( 2p)     0.58807       0.10215
  57    C  6  py     Ryd( 3p)     0.00253       1.49132
  58    C  6  pz     Val( 2p)     0.56312       0.03562
  59    C  6  pz     Ryd( 3p)     0.00144       1.10511

  60    C  7  s      Cor( 1s)     0.99995     -10.10154
  61    C  7  s      Val( 2s)     0.46278       0.03442
  62    C  7  s      Ryd( 3s)     0.00028       0.88234
  63    C  7  px     Val( 2p)     0.47109       0.06013
  64    C  7  px     Ryd( 3p)     0.00286       1.53371
  65    C  7  py     Val( 2p)     0.55905       0.11226
  66    C  7  py     Ryd( 3p)     0.00318       1.28032
  67    C  7  pz     Val( 2p)     0.75946      -0.04618
  68    C  7  pz     Ryd( 3p)     0.00102       1.11518

  69   Br  8  s      Cor( 3s)     1.00000     -23.14374
  70   Br  8  s      Cor( 1s)     1.00000    -448.55535
  71   Br  8  s      Cor( 2s)     1.00000     -79.46842
  72   Br  8  s      Val( 4s)     0.93097      -0.62087
  73   Br  8  s      Ryd( 5s)     0.00138       0.98746
  74   Br  8  px     Cor( 3p)     1.00000      -6.92085
  75   Br  8  px     Cor( 2p)     0.99999     -55.62152
  76   Br  8  px     Val( 4p)     0.60150      -0.09869
  77   Br  8  px     Ryd( 5p)     0.00158       0.87194
  78   Br  8  py     Cor( 3p)     1.00000      -6.90876
  79   Br  8  py     Cor( 2p)     1.00000     -55.61854
  80   Br  8  py     Val( 4p)     0.98637      -0.21786
  81   Br  8  py     Ryd( 5p)     0.00063       0.90407
  82   Br  8  pz     Cor( 3p)     1.00000      -6.90827
  83   Br  8  pz     Cor( 2p)     1.00000     -55.61841
  84   Br  8  pz     Val( 4p)     0.99219      -0.21878
  85   Br  8  pz     Ryd( 5p)     0.00062       0.86745
  86   Br  8  dxy    Cor( 3d)     0.99984      -2.62168
  87   Br  8  dxy    Ryd( 4d)     0.00037       1.07119
  88   Br  8  dxz    Cor( 3d)     0.99995      -2.62137
  89   Br  8  dxz    Ryd( 4d)     0.00282       0.86513
  90   Br  8  dyz    Cor( 3d)     1.00000      -2.61185
  91   Br  8  dyz    Ryd( 4d)     0.00010       0.79128
  92   Br  8  dx2y2  Cor( 3d)     0.99972      -2.62192
  93   Br  8  dx2y2  Ryd( 4d)     0.00221       1.14614
  94   Br  8  dz2    Cor( 3d)     0.99990      -2.61496
  95   Br  8  dz2    Ryd( 4d)     0.00077       0.90813

  96    C  9  s      Cor( 1s)     0.99993     -10.07351
  97    C  9  s      Val( 2s)     0.46658       0.09959
  98    C  9  s      Ryd( 3s)     0.00039       0.89832
  99    C  9  px     Val( 2p)     0.56451       0.13103
 100    C  9  px     Ryd( 3p)     0.00296       1.30455
 101    C  9  py     Val( 2p)     0.57059       0.11329
 102    C  9  py     Ryd( 3p)     0.00233       1.40044
 103    C  9  pz     Val( 2p)     0.48316       0.05680
 104    C  9  pz     Ryd( 3p)     0.00045       1.10118

 105    C 10  s      Cor( 1s)     0.99991     -10.05228
 106    C 10  s      Val( 2s)     0.46499       0.12369
 107    C 10  s      Ryd( 3s)     0.00038       0.90049
 108    C 10  px     Val( 2p)     0.54121       0.16329
 109    C 10  px     Ryd( 3p)     0.00296       1.27367
 110    C 10  py     Val( 2p)     0.59279       0.12407
 111    C 10  py     Ryd( 3p)     0.00266       1.49114
 112    C 10  pz     Val( 2p)     0.63511       0.02408
 113    C 10  pz     Ryd( 3p)     0.00188       1.11042

 114    C 11  s      Cor( 1s)     0.99995     -10.03561
 115    C 11  s      Val( 2s)     0.43039       0.17320
 116    C 11  s      Ryd( 3s)     0.00102       0.92178
 117    C 11  px     Val( 2p)     0.56203       0.14358
 118    C 11  px     Ryd( 3p)     0.00231       1.71080
 119    C 11  py     Val( 2p)     0.54987       0.16919
 120    C 11  py     Ryd( 3p)     0.00237       1.62857
 121    C 11  pz     Val( 2p)     0.62087       0.04679
 122    C 11  pz     Ryd( 3p)     0.00143       1.19532

 123    H 12  s      Val( 1s)     0.38760       0.25521
 124    H 12  s      Ryd( 2s)     0.00235       0.75995

 125    H 13  s      Val( 1s)     0.38760       0.25520
 126    H 13  s      Ryd( 2s)     0.00234       0.75994

 127    H 14  s      Val( 1s)     0.37771       0.25295
 128    H 14  s      Ryd( 2s)     0.00067       0.75043

 129    H 15  s      Val( 1s)     0.37770       0.25295
 130    H 15  s      Ryd( 2s)     0.00067       0.75045

 131    H 16  s      Val( 1s)     0.38507       0.27344
 132    H 16  s      Ryd( 2s)     0.00070       0.77539

 133    H 17  s      Val( 1s)     0.38583       0.27588
 134    H 17  s      Ryd( 2s)     0.00066       0.76465

 135    H 18  s      Val( 1s)     0.38030       0.29815
 136    H 18  s      Ryd( 2s)     0.00170       0.79437


 Summary of Natural Population Analysis:

                                     Natural Population
             Natural    ---------------------------------------------
  Atom No    Charge        Core      Valence    Rydberg      Total
 --------------------------------------------------------------------
    O  1   -0.42372      0.99995     3.41553    0.00825     4.42372
    C  2    0.13683      0.99993     1.84592    0.01732     2.86317
    C  3   -0.28188      0.99989     2.27939    0.00261     3.28188
    C  4   -0.25134      0.99988     2.24894    0.00252     3.25134
    C  5   -0.03948      0.99995     2.03411    0.00542     3.03948
    C  6   -0.16591      0.99992     2.15845    0.00754     3.16591
    C  7   -0.25965      0.99995     2.25237    0.00734     3.25965
   Br  8   -0.02090     13.99939     3.51103    0.01048    17.52090
    C  9   -0.09089      0.99993     2.08483    0.00613     3.09089
    C 10   -0.24189      0.99991     2.23410    0.00788     3.24189
    C 11   -0.17024      0.99995     2.16317    0.00713     3.17024
    H 12    0.11005      0.00000     0.38760    0.00235     0.38995
    H 13    0.11005      0.00000     0.38760    0.00234     0.38995
    H 14    0.12162      0.00000     0.37771    0.00067     0.37838
    H 15    0.12162      0.00000     0.37770    0.00067     0.37838
    H 16    0.11423      0.00000     0.38507    0.00070     0.38577
    H 17    0.11351      0.00000     0.38583    0.00066     0.38649
    H 18    0.11801      0.00000     0.38030    0.00170     0.38199
 ====================================================================
 * Total * -1.00000     23.99865    28.90964    0.09171    53.00000

                                 Natural Population
 ---------------------------------------------------------
   Core                      23.99865 ( 99.9944% of   24)
   Valence                   28.90964 ( 99.6884% of   29)
   Natural Minimal Basis     52.90829 ( 99.8270% of   53)
   Natural Rydberg Basis      0.09171 (  0.1730% of   53)
 ---------------------------------------------------------

    Atom No         Natural Electron Configuration
 ----------------------------------------------------------------------------
      O  1      [core]2s( 0.84)2p( 2.57)3d( 0.01)
      C  2      [core]2s( 0.41)2p( 1.44)3p( 0.02)
      C  3      [core]2s( 0.53)2p( 1.75)
      C  4      [core]2s( 0.52)2p( 1.73)
      C  5      [core]2s( 0.42)2p( 1.61)
      C  6      [core]2s( 0.46)2p( 1.70)3p( 0.01)
      C  7      [core]2s( 0.46)2p( 1.79)3p( 0.01)
     Br  8      [core]4s( 0.93)4p( 2.58)4d( 0.01)
      C  9      [core]2s( 0.47)2p( 1.62)3p( 0.01)
      C 10      [core]2s( 0.46)2p( 1.77)3p( 0.01)
      C 11      [core]2s( 0.43)2p( 1.73)3p( 0.01)
      H 12            1s( 0.39)
      H 13            1s( 0.39)
      H 14            1s( 0.38)
      H 15            1s( 0.38)
      H 16            1s( 0.39)
      H 17            1s( 0.39)
      H 18            1s( 0.38)


 NATURAL BOND ORBITAL ANALYSIS, alpha spin orbitals:

                            Occupancies       Lewis Structure    Low   High
         Max    Occ     -------------------  -----------------   occ   occ
  Cycle  Ctr   Thresh    Lewis   non-Lewis     CR  BD  nC  LP    (L)   (NL)
 ============================================================================
    1     2     0.95    51.55896   1.44104     24  22   0   7     3      4
    2     2     0.92    52.00351   0.99649     24  22   0   7     2      3
    3     2     0.88    52.00351   0.99649     24  22   0   7     2      3
    4     2     0.84    52.15155   0.84845     24  22   0   7     1      3
    5     2     0.79    52.15155   0.84845     24  22   0   7     1      3
    6     2     0.78    52.15155   0.84845     24  22   0   7     1      3
    7     2     0.76    52.15155   0.84845     24  22   0   7     1      3
    8     2     0.75    52.15155   0.84845     24  22   0   7     0      3
    9     2     0.84    52.15155   0.84845     24  22   0   7     1      3
 ----------------------------------------------------------------------------

 Strongly delocalized structure accepted

 -------------------------------------------------------
   Core                     23.99865 ( 99.994% of  24)
   Valence Lewis            28.15290 ( 97.079% of  29)
  ==================      =============================
   Total Lewis              52.15155 ( 98.399% of  53)
  -----------------------------------------------------
   Valence non-Lewis         0.78341 (  1.478% of  53)
   Rydberg non-Lewis         0.06504 (  0.123% of  53)
  ==================      =============================
   Total non-Lewis           0.84845 (  1.601% of  53)
 -------------------------------------------------------


     (Occupancy)   Bond orbital / Coefficients / Hybrids
 ------------------ Lewis ------------------------------------------------------
   1. (0.99995) CR ( 1) O  1            s(100.00%)
                                         1.0000  0.0000  0.0000  0.0000  0.0000
                                         0.0000  0.0000  0.0000  0.0000  0.0000
                                         0.0000  0.0000  0.0000  0.0000
   2. (0.99993) CR ( 1) C  2            s(100.00%)
                                         1.0000  0.0000  0.0000  0.0000  0.0000
                                         0.0000  0.0000  0.0000  0.0000
   3. (0.99989) CR ( 1) C  3            s(100.00%)
                                         1.0000  0.0000  0.0000  0.0000  0.0000
                                         0.0000  0.0000  0.0000  0.0000
   4. (0.99988) CR ( 1) C  4            s(100.00%)
                                         1.0000  0.0000  0.0000  0.0000  0.0000
                                         0.0000  0.0000  0.0000  0.0000
   5. (0.99995) CR ( 1) C  5            s(100.00%)
                                         1.0000  0.0000  0.0000  0.0000  0.0000
                                         0.0000  0.0000  0.0000  0.0000
   6. (0.99992) CR ( 1) C  6            s(100.00%)
                                         1.0000  0.0000  0.0000  0.0000  0.0000
                                         0.0000  0.0000  0.0000  0.0000
   7. (0.99995) CR ( 1) C  7            s(100.00%)
                                         1.0000  0.0000  0.0000  0.0000  0.0000
                                         0.0000  0.0000  0.0000  0.0000
   8. (1.00000) CR ( 1)Br  8            s(100.00%)
                                         1.0000  0.0000  0.0000  0.0000  0.0000
                                         0.0000  0.0000  0.0000  0.0000  0.0000
                                         0.0000  0.0000  0.0000  0.0000  0.0000
                                         0.0000  0.0000  0.0000  0.0000  0.0000
                                         0.0000  0.0000  0.0000  0.0000  0.0000
                                         0.0000  0.0000
   9. (1.00000) CR ( 2)Br  8            s(100.00%)
                                         0.0000  1.0000  0.0000  0.0000  0.0000
                                         0.0000  0.0000  0.0000  0.0000  0.0000
                                         0.0000  0.0000  0.0000  0.0000  0.0000
                                         0.0000  0.0000  0.0000  0.0000  0.0000
                                         0.0000  0.0000  0.0000  0.0000  0.0000
                                         0.0000  0.0000
  10. (1.00000) CR ( 3)Br  8            s(100.00%)
                                         0.0000  0.0000  1.0000  0.0000  0.0000
                                         0.0000  0.0000  0.0000  0.0000  0.0000
                                         0.0000  0.0000  0.0000  0.0000  0.0000
                                         0.0000  0.0000  0.0000  0.0000  0.0000
                                         0.0000  0.0000  0.0000  0.0000  0.0000
                                         0.0000  0.0000
  11. (1.00000) CR ( 4)Br  8            s(  0.00%)p 1.00(100.00%)
                                         0.0000  0.0000  0.0000  0.0000  0.0000
                                         1.0000  0.0000  0.0000  0.0000  0.0000
                                         0.0000  0.0000  0.0000  0.0000  0.0000
[...]
   41. BD ( 1) C  5- C 11      93. RY ( 1) C  4            0.36    1.63   0.031
   41. BD ( 1) C  5- C 11     102. RY ( 2) C  6            0.93    1.68   0.050
   41. BD ( 1) C  5- C 11     122. RY ( 1) C 10            0.66    2.07   0.047
   41. BD ( 1) C  5- C 11     123. RY ( 2) C 10            0.35    1.68   0.031
   42. BD ( 2) C  5- C 11      54. BD*( 2) O  1- C  2     12.57    0.42   0.092
   42. BD ( 2) C  5- C 11      61. BD*( 1) C  4- H 14      1.82    0.78   0.048
   42. BD ( 2) C  5- C 11      62. BD*( 1) C  4- H 15      1.82    0.78   0.048
   42. BD ( 2) C  5- C 11      65. BD*( 2) C  5- C 11      0.39    0.39   0.016
   42. BD ( 2) C  5- C 11      67. BD*( 2) C  6- C  7     16.76    0.35   0.097
   42. BD ( 2) C  5- C 11      72. BD*( 2) C  9- C 10     20.62    0.37   0.110
   42. BD ( 2) C  5- C 11     104. RY ( 4) C  6            0.54    1.22   0.032
   42. BD ( 2) C  5- C 11     125. RY ( 4) C 10            0.55    1.24   0.033
   43. BD ( 1) C  6- C  7      60. BD*( 1) C  4- C  5      1.58    1.19   0.055
   43. BD ( 1) C  6- C  7      63. BD*( 1) C  5- C  6      1.84    1.40   0.064
   43. BD ( 1) C  6- C  7      68. BD*( 1) C  6- H 16      0.99    1.25   0.044
   43. BD ( 1) C  6- C  7      70. BD*( 1) C  7- C  9      2.21    1.36   0.069
   43. BD ( 1) C  6- C  7      73. BD*( 1) C  9- H 17      0.83    1.26   0.041
   43. BD ( 1) C  6- C  7      97. RY ( 1) C  5            0.54    2.22   0.044
   43. BD ( 1) C  6- C  7      98. RY ( 2) C  5            0.93    1.98   0.054
   43. BD ( 1) C  6- C  7     118. RY ( 1) C  9            0.60    2.03   0.044
   43. BD ( 1) C  6- C  7     119. RY ( 2) C  9            0.37    1.74   0.032
   44. BD ( 2) C  6- C  7      65. BD*( 2) C  5- C 11     17.97    0.42   0.110
   44. BD ( 2) C  6- C  7      72. BD*( 2) C  9- C 10     12.73    0.40   0.090
   44. BD ( 2) C  6- C  7      99. RY ( 3) C  5            0.33    1.32   0.026
   44. BD ( 2) C  6- C  7     109. RY ( 1)Br  8            0.81    0.98   0.036
   44. BD ( 2) C  6- C  7     121. RY ( 4) C  9            0.51    1.24   0.032
   45. BD ( 1) C  6- H 16      63. BD*( 1) C  5- C  6      0.65    1.28   0.036
   45. BD ( 1) C  6- H 16      64. BD*( 1) C  5- C 11      1.21    1.29   0.050
   45. BD ( 1) C  6- H 16      66. BD*( 1) C  6- C  7      0.47    1.25   0.031
   45. BD ( 1) C  6- H 16      69. BD*( 1) C  7-Br  8      0.42    0.76   0.022
   45. BD ( 1) C  6- H 16      70. BD*( 1) C  7- C  9      1.26    1.24   0.050
   45. BD ( 1) C  6- H 16      97. RY ( 1) C  5            0.91    2.10   0.055
   45. BD ( 1) C  6- H 16     106. RY ( 2) C  7            0.81    1.96   0.050
   46. BD ( 1) C  7-Br  8      63. BD*( 1) C  5- C  6      0.97    1.34   0.046
   46. BD ( 1) C  7-Br  8      71. BD*( 1) C  9- C 10      0.92    1.33   0.044
   46. BD ( 1) C  7-Br  8     101. RY ( 1) C  6            1.09    1.98   0.059
   46. BD ( 1) C  7-Br  8     118. RY ( 1) C  9            1.06    1.97   0.058
   47. BD ( 1) C  7- C  9      66. BD*( 1) C  6- C  7      2.22    1.37   0.070
   47. BD ( 1) C  7- C  9      68. BD*( 1) C  6- H 16      0.90    1.25   0.042
   47. BD ( 1) C  7- C  9      71. BD*( 1) C  9- C 10      1.53    1.40   0.058
   47. BD ( 1) C  7- C  9      73. BD*( 1) C  9- H 17      0.87    1.26   0.042
   47. BD ( 1) C  7- C  9      75. BD*( 1) C 10- H 18      0.91    1.28   0.043
   47. BD ( 1) C  7- C  9     101. RY ( 1) C  6            0.52    2.04   0.041
   47. BD ( 1) C  7- C  9     102. RY ( 2) C  6            0.42    1.72   0.034
   47. BD ( 1) C  7- C  9     123. RY ( 2) C 10            1.12    1.72   0.055
   48. BD ( 1) C  9- C 10      56. BD*( 1) C  2- C 11      1.39    1.26   0.053
   48. BD ( 1) C  9- C 10      69. BD*( 1) C  7-Br  8      2.14    0.86   0.054
   48. BD ( 1) C  9- C 10      70. BD*( 1) C  7- C  9      1.73    1.34   0.061
   48. BD ( 1) C  9- C 10      73. BD*( 1) C  9- H 17      0.81    1.23   0.040
   48. BD ( 1) C  9- C 10      74. BD*( 1) C 10- C 11      1.72    1.40   0.062
   48. BD ( 1) C  9- C 10      75. BD*( 1) C 10- H 18      0.82    1.25   0.041
   48. BD ( 1) C  9- C 10     105. RY ( 1) C  7            0.79    1.78   0.047
   48. BD ( 1) C  9- C 10     106. RY ( 2) C  7            0.48    2.06   0.039
   48. BD ( 1) C  9- C 10     126. RY ( 1) C 11            1.41    2.08   0.068
   49. BD ( 2) C  9- C 10      65. BD*( 2) C  5- C 11     13.78    0.41   0.095
   49. BD ( 2) C  9- C 10      67. BD*( 2) C  6- C  7     21.37    0.37   0.113
   49. BD ( 2) C  9- C 10     107. RY ( 3) C  7            0.37    1.27   0.027
   49. BD ( 2) C  9- C 10     129. RY ( 4) C 11            0.28    1.34   0.024
   50. BD ( 1) C  9- H 17      66. BD*( 1) C  6- C  7      1.26    1.26   0.050
   50. BD ( 1) C  9- H 17      69. BD*( 1) C  7-Br  8      0.43    0.77   0.023
   50. BD ( 1) C  9- H 17      70. BD*( 1) C  7- C  9      0.40    1.25   0.028
   50. BD ( 1) C  9- H 17      71. BD*( 1) C  9- C 10      0.52    1.28   0.033
   50. BD ( 1) C  9- H 17      74. BD*( 1) C 10- C 11      1.10    1.31   0.048
   50. BD ( 1) C  9- H 17     106. RY ( 2) C  7            0.77    1.97   0.049
   50. BD ( 1) C  9- H 17     122. RY ( 1) C 10            0.70    1.99   0.047
   51. BD ( 1) C 10- C 11      55. BD*( 1) C  2- C  3      0.29    1.12   0.023
   51. BD ( 1) C 10- C 11      56. BD*( 1) C  2- C 11      1.91    1.25   0.062
   51. BD ( 1) C 10- C 11      60. BD*( 1) C  4- C  5      0.84    1.15   0.039
   51. BD ( 1) C 10- C 11      64. BD*( 1) C  5- C 11      2.47    1.37   0.074
   51. BD ( 1) C 10- C 11      71. BD*( 1) C  9- C 10      1.58    1.36   0.058
   51. BD ( 1) C 10- C 11      73. BD*( 1) C  9- H 17      1.06    1.22   0.045
   51. BD ( 1) C 10- C 11      75. BD*( 1) C 10- H 18      0.97    1.24   0.044
   51. BD ( 1) C 10- C 11      85. RY ( 1) C  2            0.94    1.68   0.050
   51. BD ( 1) C 10- C 11      97. RY ( 1) C  5            0.37    2.18   0.036
   51. BD ( 1) C 10- C 11      98. RY ( 2) C  5            0.61    1.94   0.044
   51. BD ( 1) C 10- C 11     119. RY ( 2) C  9            1.07    1.70   0.054
   52. BD ( 1) C 10- H 18      64. BD*( 1) C  5- C 11      1.57    1.27   0.056
   52. BD ( 1) C 10- H 18      70. BD*( 1) C  7- C  9      1.29    1.22   0.050
   52. BD ( 1) C 10- H 18      71. BD*( 1) C  9- C 10      0.49    1.25   0.031
   52. BD ( 1) C 10- H 18      74. BD*( 1) C 10- C 11      0.69    1.28   0.037
   52. BD ( 1) C 10- H 18     118. RY ( 1) C  9            0.62    1.89   0.043
   52. BD ( 1) C 10- H 18     126. RY ( 1) C 11            0.31    1.96   0.031
   52. BD ( 1) C 10- H 18     127. RY ( 2) C 11            0.60    2.08   0.044


 NATURAL BOND ORBITALS (Summary):

                                                     Principal Delocalizations
           NBO                 Occupancy    Energy   (geminal,vicinal,remote)
 ===============================================================================
 Molecular unit  1  (C9H7OBr)
 ------ Lewis --------------------------------------
    1. CR ( 1) O  1             0.99995   -18.90588  77(g)
    2. CR ( 1) C  2             0.99993   -10.09764
    3. CR ( 1) C  3             0.99989   -10.07443
    4. CR ( 1) C  4             0.99988   -10.09196
    5. CR ( 1) C  5             0.99995   -10.07050
    6. CR ( 1) C  6             0.99992   -10.06696
    7. CR ( 1) C  7             0.99995   -10.09718
    8. CR ( 1)Br  8             1.00000   -23.14372
    9. CR ( 2)Br  8             1.00000  -448.55535
   10. CR ( 3)Br  8             1.00000   -79.46841
   11. CR ( 4)Br  8             1.00000    -6.92096
   12. CR ( 5)Br  8             0.99999   -55.62158
   13. CR ( 6)Br  8             1.00000    -6.90875
   14. CR ( 7)Br  8             1.00000   -55.61854
   15. CR ( 8)Br  8             1.00000    -6.90809
   16. CR ( 9)Br  8             1.00000   -55.61830
   17. CR (10)Br  8             0.99984    -2.62173
   18. CR (11)Br  8             0.99994    -2.62128
   19. CR (12)Br  8             1.00000    -2.61177
   20. CR (13)Br  8             0.99972    -2.62197  111(g)
   21. CR (14)Br  8             0.99990    -2.61488
   22. CR ( 1) C  9             0.99993   -10.07482
   23. CR ( 1) C 10             0.99992   -10.04961
   24. CR ( 1) C 11             0.99995   -10.03416
   25. LP ( 1) O  1             0.99011    -0.41501  85(v),56(v),55(v)
   26. LP ( 2) O  1             0.92687    -0.10909  55(v),56(v),57(r)
   27. LP ( 1)Br  8             0.99882    -0.60637  106(v)
   28. LP ( 2)Br  8             0.99249    -0.21956  70(v),66(v),105(v)
   29. LP ( 3)Br  8             0.97712    -0.21406  67(v)
   30. BD ( 1) O  1- C  2       0.99871    -0.79672  56(g)
   31. BD ( 2) O  1- C  2       0.98753    -0.23033  65(v),58(v),59(v)
   32. BD ( 1) C  2- C  3       0.99273    -0.44320  74(v),60(v),76(v),126(v)
                                                     57(g),59(g),58(g),131(v)
                                                     130(v),95(v),127(v)
   33. BD ( 1) C  2- C 11       0.98796    -0.44917  74(g),64(g),63(v),122(v)
                                                     97(v),71(v),60(v),76(v)
                                                     53(g),89(v),57(v)
   34. BD ( 1) C  3- C  4       0.99325    -0.45080  53(v),63(v),60(g),98(v)
                                                     86(v),61(g),62(g),64(v)
                                                     56(v),59(g),58(g)
   35. BD ( 1) C  3- H 12       0.99031    -0.40471  54(v),61(v),87(v),62(v)
                                                     56(v),94(v),55(g)
   36. BD ( 1) C  3- H 13       0.99032    -0.40470  54(v),62(v),87(v),61(v)
                                                     56(v),94(v),55(g)
   37. BD ( 1) C  4- C  5       0.98827    -0.45882  74(v),63(g),64(g),101(v)
                                                     55(v),66(v),57(g),126(v)
                                                     127(v),56(v),61(g),62(g)
   38. BD ( 1) C  4- H 14       0.99113    -0.41476  65(v),99(v),58(v),64(v)
                                                     60(g),90(v),59(v)
   39. BD ( 1) C  4- H 15       0.99113    -0.41476  65(v),99(v),59(v),64(v)
                                                     60(g),90(v),58(v)
   40. BD ( 1) C  5- C  6       0.98413    -0.51301  64(g),69(v),66(g),60(g)
                                                     127(v),68(g),105(v),56(v)
                                                     93(v),106(v)
   41. BD ( 1) C  5- C 11       0.98220    -0.49509  74(g),63(g),68(v),56(g)
                                                     53(v),60(g),102(v),75(v)
                                                     86(v),122(v),93(v),57(v)
                                                     123(v)
   42. BD ( 2) C  5- C 11       0.80704    -0.11368  72(v),67(v),54(v),61(v)
                                                     62(v),125(v),104(v),65(g)
   43. BD ( 1) C  6- C  7       0.98872    -0.53302  70(g),63(g),60(v),68(g)
                                                     98(v),73(v),118(v),97(v)
                                                     119(v)
   44. BD ( 2) C  6- C  7       0.84361    -0.14336  65(v),72(v),109(v),121(v)
                                                     99(v)
   45. BD ( 1) C  6- H 16       0.99148    -0.41360  70(v),64(v),97(v),106(v)
                                                     63(g),66(g),69(v)
   46. BD ( 1) C  7-Br  8       0.99470    -0.47226  101(v),118(v),63(v),71(v)
   47. BD ( 1) C  7- C  9       0.98946    -0.53352  66(g),71(g),123(v),75(v)
                                                     68(v),73(g),101(v),102(v)
   48. BD ( 1) C  9- C 10       0.98602    -0.50940  69(v),70(g),74(g),126(v)
                                                     56(v),75(g),73(g),105(v)
                                                     106(v)
   49. BD ( 2) C  9- C 10       0.84365    -0.13581  67(v),65(v),107(v),129(v)
   50. BD ( 1) C  9- H 17       0.99198    -0.41888  66(v),74(v),106(v),122(v)
                                                     71(g),69(v),70(g)
   51. BD ( 1) C 10- C 11       0.98552    -0.49618  64(g),56(g),71(g),119(v)
                                                     73(v),75(g),85(v),60(v)
                                                     98(v),97(v),55(v)
   52. BD ( 1) C 10- H 18       0.99121    -0.39220  64(v),70(v),74(g),118(v)
                                                     127(v),71(g),126(v)
 ------ non-Lewis ----------------------------------
   53. BD*( 1) O  1- C  2       0.00388     0.90013
   54. BD*( 2) O  1- C  2       0.04714     0.31064
   55. BD*( 1) C  2- C  3       0.04196     0.62436
   56. BD*( 1) C  2- C 11       0.03507     0.75097
   57. BD*( 1) C  3- C  4       0.00444     0.59470
   58. BD*( 1) C  3- H 12       0.00365     0.67912
   59. BD*( 1) C  3- H 13       0.00365     0.67909
   60. BD*( 1) C  4- C  5       0.01305     0.65836
   61. BD*( 1) C  4- H 14       0.00576     0.66864
   62. BD*( 1) C  4- H 15       0.00576     0.66864
   63. BD*( 1) C  5- C  6       0.01174     0.86614
   64. BD*( 1) C  5- C 11       0.01293     0.87592
   65. BD*( 2) C  5- C 11       0.16877     0.27634
   66. BD*( 1) C  6- C  7       0.01077     0.83721
   67. BD*( 2) C  6- C  7       0.18100     0.23873
   68. BD*( 1) C  6- H 16       0.00688     0.71827
   69. BD*( 1) C  7-Br  8       0.01352     0.34860
   70. BD*( 1) C  7- C  9       0.01113     0.82623
   71. BD*( 1) C  9- C 10       0.00770     0.86215
   72. BD*( 2) C  9- C 10       0.15569     0.25621
   73. BD*( 1) C  9- H 17       0.00600     0.72263
   74. BD*( 1) C 10- C 11       0.01121     0.88848
   75. BD*( 1) C 10- H 18       0.00776     0.74272
   76. RY ( 1) O  1             0.00072     1.96878
   77. RY ( 2) O  1             0.00027     2.19077
   78. RY ( 3) O  1             0.00005     1.88338
   79. RY ( 4) O  1             0.00002     2.58750
   80. RY ( 5) O  1             0.00001     2.39538
   81. RY ( 6) O  1             0.00001     2.17349
   82. RY ( 7) O  1             0.00000     2.25170
   83. RY ( 8) O  1             0.00000     2.09544
   84. RY ( 9) O  1             0.00000     2.08680
   85. RY ( 1) C  2             0.00831     1.18301
   86. RY ( 2) C  2             0.00299     1.34615
   87. RY ( 3) C  2             0.00060     1.13166
   88. RY ( 4) C  2             0.00058     1.12184
   89. RY ( 1) C  3             0.00106     1.21689
   90. RY ( 2) C  3             0.00057     1.26960
   91. RY ( 3) C  3             0.00028     1.16221
   92. RY ( 4) C  3             0.00017     1.30230
   93. RY ( 1) C  4             0.00091     1.13871
   94. RY ( 2) C  4             0.00050     1.27191
   95. RY ( 3) C  4             0.00047     1.11770
   96. RY ( 4) C  4             0.00012     1.35894
   97. RY ( 1) C  5             0.00207     1.68478
   98. RY ( 2) C  5             0.00172     1.44209
   99. RY ( 3) C  5             0.00052     1.17748
  100. RY ( 4) C  5             0.00031     0.94988
  101. RY ( 1) C  6             0.00250     1.50458
  102. RY ( 2) C  6             0.00181     1.18650
  103. RY ( 3) C  6             0.00028     0.88327
  104. RY ( 4) C  6             0.00015     1.10878
  105. RY ( 1) C  7             0.00260     1.27263
  106. RY ( 2) C  7             0.00236     1.54690
  107. RY ( 3) C  7             0.00026     1.13484
  108. RY ( 4) C  7             0.00022     0.88591
  109. RY ( 1)Br  8             0.00123     0.83485
  110. RY ( 2)Br  8             0.00053     0.89378
  111. RY ( 3)Br  8             0.00029     1.24876
  112. RY ( 4)Br  8             0.00018     0.98512
  113. RY ( 5)Br  8             0.00005     1.07729
  114. RY ( 6)Br  8             0.00003     0.79131
  115. RY ( 7)Br  8             0.00002     0.82053
  116. RY ( 8)Br  8             0.00001     0.90181
  117. RY ( 9)Br  8             0.00000     0.85049
  118. RY ( 1) C  9             0.00240     1.49493
  119. RY ( 2) C  9             0.00165     1.20672
  120. RY ( 3) C  9             0.00020     0.88915
  121. RY ( 4) C  9             0.00014     1.09957
  122. RY ( 1) C 10             0.00255     1.57065
  123. RY ( 2) C 10             0.00182     1.18982
  124. RY ( 3) C 10             0.00019     0.90117
  125. RY ( 4) C 10             0.00007     1.12345
  126. RY ( 1) C 11             0.00221     1.57143
  127. RY ( 2) C 11             0.00209     1.68687
  128. RY ( 3) C 11             0.00056     1.00929
  129. RY ( 4) C 11             0.00015     1.20391
  130. RY ( 1) H 12             0.00107     0.75737
  131. RY ( 1) H 13             0.00107     0.75737
  132. RY ( 1) H 14             0.00070     0.74990
  133. RY ( 1) H 15             0.00070     0.74992
  134. RY ( 1) H 16             0.00071     0.77407
  135. RY ( 1) H 17             0.00066     0.76314
  136. RY ( 1) H 18             0.00179     0.79227
          -------------------------------
                 Total Lewis   51.17506  ( 98.4136%)
           Valence non-Lewis    0.76945  (  1.4797%)
           Rydberg non-Lewis    0.05549  (  0.1067%)
          -------------------------------
               Total unit  1   52.00000  (100.0000%)
              Charge unit  1    0.00000

 $CHOOSE
  ALPHA
   LONE 1 3 7 1 8 3 END
   BOND S 1 2 S 2 3 D 2 11 S 3 4 S 3 12 S 3 13 S 4 5 S 4 14 S 4 15 D 5 6 S 5 11
        S 6 7 S 6 16 S 7 8 S 7 9 D 9 10 S 9 17 S 10 11 S 10 18 END
  END
  BETA
   LONE 1 2 8 3 END
   BOND D 1 2 S 2 3 S 2 11 S 3 4 S 3 12 S 3 13 S 4 5 S 4 14 S 4 15 S 5 6 D 5 11
        D 6 7 S 6 16 S 7 8 S 7 9 D 9 10 S 9 17 S 10 11 S 10 18 END
  END
 $END

 NBO analysis completed in 0.55 CPU seconds (0 wall seconds)
 Maximum scratch memory used by NBO was 610193 words (4.66 MB)
 Maximum scratch memory used by G16NBO was 46052 words (0.35 MB)

 Opening RunExU unformatted file "/home/rpaton/arbr500/midi/fukui/Gau-2429490.EUF"
 Read unf file /home/rpaton/arbr500/midi/fukui/Gau-2429490.EUF:
 Label Gaussian matrix elements                                         IVers= 2 NLab= 2 Version=ES64L-G16RevC.01
 Title arbr31_wb97xd_redcreated by GaussianPrep                        
 NAtoms=    18 NBasis=   136 NBsUse=   136 ICharg=    -1 Multip=     2 NE=   105 Len12L=8 Len4L=8 IOpCl= 1 ICGU=112
 GAUSSIAN SCALARS                    NI= 1 NR= 1 NTot=       1 LenBuf=    2 NRI=1 N=    1000
 NPA CHARGES                         NI= 0 NR= 1 NTot=      18 LenBuf= 2048 NRI=1 N=      18
 Recovered energy= -2981.83515337     dipole=     -2.008688122919      1.137673652612     -0.000081613706
 Unable to Open any file for archive entry.
 1\1\GINC-DYNAMO\SP\UwB97XD\MIDIx\C9H7Br1O1(1-,2)\RPATON\30-Sep-2024\0\
 \# pop=(nbo6,hirshfeld) wb97xd/midix\\arbr31_wb97xd_redcreated by Gaus
 sianPrep\\-1,2\O,0,3.842615,1.416587,-0.000329\C,0,3.097688,0.457366,0
 .000653\C,0,3.509418,-1.037081,-0.000294\C,0,2.186211,-1.853192,-0.000
 009\C,0,1.091157,-0.79931,0.000184\C,0,-0.283334,-0.989693,0.00016\C,0
 ,-1.102674,0.134998,0.000064\Br,0,-2.98518,-0.095985,-0.000057\C,0,-0.
 578886,1.429614,-0.000022\C,0,0.798184,1.60563,0.000037\C,0,1.613969,0
 .484816,0.000197\H,0,4.128357,-1.233764,-0.884401\H,0,4.129134,-1.2344
 21,0.883112\H,0,2.107155,-2.498401,0.884354\H,0,2.106813,-2.498312,-0.
 884406\H,0,-0.718975,-1.985078,0.000118\H,0,-1.250565,2.282068,-0.0000
 88\H,0,1.24804,2.595791,0.00009\\Version=ES64L-G16RevC.01\State=2-A\HF
 =-2981.8351534\S2=0.76854\S2-1=0.\S2A=0.75018\RMSD=4.012e-09\Dipole=-2
 .008688,-1.1376739,0.0000816\Quadrupole=-18.2637402,8.2920104,9.971729
 8,-7.9391773,0.001739,0.0010109\PG=C01 [X(C9H7Br1O1)]\\@
 The archive entry for this job was punched.


 You never know when you're making a memory.
                        -- Rickie Lee Jones
 Job cpu time:       0 days  0 hours  6 minutes  0.0 seconds.
 Elapsed time:       0 days  0 hours  0 minutes 15.3 seconds.
 File lengths (MBytes):  RWF=     21 Int=      0 D2E=      0 Chk=      2 Scr=      1
 Normal termination of Gaussian 16 at Mon Sep 30 12:55:23 2024.
