 Entering Gaussian System, Link 0=/usr/local/Gaussian/G16C/g16/g16
 Input=arbr41_wb97xd_oxd.com
 Output=arbr41_wb97xd_oxd.log
 Initial command:
 /usr/local/Gaussian/G16C/g16/l1.exe "/home/rpaton/opt/midi/fukui/Gau-1692115.inp" -scrdir="/home/rpaton/opt/midi/fukui/"
 Entering Link 1 = /usr/local/Gaussian/G16C/g16/l1.exe PID=   1692116.
  
 Copyright (c) 1988-2019, Gaussian, Inc.  All Rights Reserved.
  
 This is part of the Gaussian(R) 16 program.  It is based on
 the Gaussian(R) 09 system (copyright 2009, Gaussian, Inc.),
 the Gaussian(R) 03 system (copyright 2003, Gaussian, Inc.),
 the Gaussian(R) 98 system (copyright 1998, Gaussian, Inc.),
 the Gaussian(R) 94 system (copyright 1995, Gaussian, Inc.),
 the Gaussian 92(TM) system (copyright 1992, Gaussian, Inc.),
 the Gaussian 90(TM) system (copyright 1990, Gaussian, Inc.),
 the Gaussian 88(TM) system (copyright 1988, Gaussian, Inc.),
 the Gaussian 86(TM) system (copyright 1986, Carnegie Mellon
 University), and the Gaussian 82(TM) system (copyright 1983,
 Carnegie Mellon University). Gaussian is a federally registered
 trademark of Gaussian, Inc.
  
 This software contains proprietary and confidential information,
 including trade secrets, belonging to Gaussian, Inc.
  
 This software is provided under written license and may be
 used, copied, transmitted, or stored only in accord with that
 written license.
  
 The following legend is applicable only to US Government
 contracts under FAR:
  
                    RESTRICTED RIGHTS LEGEND
  
 Use, reproduction and disclosure by the US Government is
 subject to restrictions as set forth in subparagraphs (a)
 and (c) of the Commercial Computer Software - Restricted
 Rights clause in FAR 52.227-19.
  
 Gaussian, Inc.
 340 Quinnipiac St., Bldg. 40, Wallingford CT 06492
  
  
 ---------------------------------------------------------------
 Warning -- This program may not be used in any manner that
 competes with the business of Gaussian, Inc. or will provide
 assistance to any competitor of Gaussian, Inc.  The licensee
 of this program is prohibited from giving any competitor of
 Gaussian, Inc. access to this program.  By using this program,
 the user acknowledges that Gaussian, Inc. is engaged in the
 business of creating and licensing software in the field of
 computational chemistry and represents and warrants to the
 licensee that it is not a competitor of Gaussian, Inc. and that
 it will not use this program in any manner prohibited above.
 ---------------------------------------------------------------
  

 Cite this work as:
 Gaussian 16, Revision C.01,
 M. J. Frisch, G. W. Trucks, H. B. Schlegel, G. E. Scuseria, 
 M. A. Robb, J. R. Cheeseman, G. Scalmani, V. Barone, 
 G. A. Petersson, H. Nakatsuji, X. Li, M. Caricato, A. V. Marenich, 
 J. Bloino, B. G. Janesko, R. Gomperts, B. Mennucci, H. P. Hratchian, 
 J. V. Ortiz, A. F. Izmaylov, J. L. Sonnenberg, D. Williams-Young, 
 F. Ding, F. Lipparini, F. Egidi, J. Goings, B. Peng, A. Petrone, 
 T. Henderson, D. Ranasinghe, V. G. Zakrzewski, J. Gao, N. Rega, 
 G. Zheng, W. Liang, M. Hada, M. Ehara, K. Toyota, R. Fukuda, 
 J. Hasegawa, M. Ishida, T. Nakajima, Y. Honda, O. Kitao, H. Nakai, 
 T. Vreven, K. Throssell, J. A. Montgomery, Jr., J. E. Peralta, 
 F. Ogliaro, M. J. Bearpark, J. J. Heyd, E. N. Brothers, K. N. Kudin, 
 V. N. Staroverov, T. A. Keith, R. Kobayashi, J. Normand, 
 K. Raghavachari, A. P. Rendell, J. C. Burant, S. S. Iyengar, 
 J. Tomasi, M. Cossi, J. M. Millam, M. Klene, C. Adamo, R. Cammi, 
 J. W. Ochterski, R. L. Martin, K. Morokuma, O. Farkas, 
 J. B. Foresman, and D. J. Fox, Gaussian, Inc., Wallingford CT, 2019.
 
 ******************************************
 Gaussian 16:  ES64L-G16RevC.01  3-Jul-2019
                27-Sep-2024 
 ******************************************
 %chk=arbr41_wb97xd_popn.chk
 %mem=48GB
 %nprocshared=24
 Will use up to   24 processors via shared memory.
 -----------------------------------
 # pop=(nbo6,hirshfeld) wb97xd/midix
 -----------------------------------
 1/38=1,172=1/1;
 2/12=2,17=6,18=5,40=1/2;
 3/5=20,11=2,25=1,30=1,74=-58/1,2,3;
 4//1;
 5/5=2,38=5/2;
 6/7=2,8=2,9=2,10=2,28=1,40=1,79=1,113=1,114=1,124=3103,126=1/1,12;
 99/5=1,9=1/99;
 -----------------------------------------
 arbr41_wb97xd_popncreated by GaussianPrep
 -----------------------------------------
 Symbolic Z-matrix:
 Charge =  1 Multiplicity = 2
 N                    -3.15654  -2.39342  -1.1888 
 C                    -2.81158  -1.67244  -0.35636 
 C                    -2.38186  -0.75436   0.70933 
 C                    -3.3763    0.45117   0.84964 
 C                    -2.81336   1.53637  -0.11255 
 C                    -1.33058   1.23265  -0.13144 
 C                    -0.2772    2.03482  -0.54125 
 C                     1.02372   1.53889  -0.48104 
 C                     1.2554    0.24744  -0.0188 
 Br                    3.0322   -0.41258   0.06255 
 C                     0.20471  -0.56906   0.38881 
 C                    -1.07974  -0.05636   0.32972 
 H                    -2.2969   -1.31396   1.64848 
 H                    -4.40841   0.16701   0.62458 
 H                    -3.3272    0.81278   1.8841 
 H                    -3.24191   1.42097  -1.11925 
 H                    -3.03821   2.5513    0.23476 
 H                    -0.45423   3.04422  -0.90501 
 H                     1.8607    2.15645  -0.79178 
 H                     0.39581  -1.57926   0.74015 
 
                          Input orientation:                          
 ---------------------------------------------------------------------
 Center     Atomic      Atomic             Coordinates (Angstroms)
 Number     Number       Type             X           Y           Z
 ---------------------------------------------------------------------
      1          7           0       -3.156538   -2.393419   -1.188800
      2          6           0       -2.811580   -1.672441   -0.356364
      3          6           0       -2.381864   -0.754359    0.709332
      4          6           0       -3.376296    0.451172    0.849638
      5          6           0       -2.813360    1.536368   -0.112546
      6          6           0       -1.330577    1.232653   -0.131437
      7          6           0       -0.277196    2.034815   -0.541246
      8          6           0        1.023723    1.538888   -0.481040
      9          6           0        1.255398    0.247443   -0.018799
     10         35           0        3.032195   -0.412580    0.062547
     11          6           0        0.204706   -0.569058    0.388814
     12          6           0       -1.079735   -0.056355    0.329720
     13          1           0       -2.296904   -1.313963    1.648479
     14          1           0       -4.408408    0.167013    0.624584
     15          1           0       -3.327200    0.812779    1.884096
     16          1           0       -3.241911    1.420965   -1.119251
     17          1           0       -3.038212    2.551299    0.234760
     18          1           0       -0.454234    3.044216   -0.905006
     19          1           0        1.860699    2.156445   -0.791779
     20          1           0        0.395805   -1.579264    0.740151
 ---------------------------------------------------------------------
                    Distance matrix (angstroms):
                    1          2          3          4          5
     1  N    0.000000
     2  C    1.154017   0.000000
     3  C    2.624794   1.470795   0.000000
     4  C    3.506454   2.506607   1.569040   0.000000
     5  C    4.088926   3.218059   2.471660   1.555746   0.000000
     6  C    4.195301   3.268567   2.400065   2.399622   1.513686
     7  C    5.321578   4.494556   3.711208   3.747920   2.619993
     8  C    5.782607   5.003771   4.274809   4.723769   3.854737
     9  C    5.273351   4.510013   3.842324   4.716808   4.269064
    10  Br   6.617402   5.992699   5.463257   6.514164   6.164379
    11  C    4.137042   3.297078   2.612932   3.751907   3.713880
    12  C    3.475756   2.466117   1.525403   2.408753   2.395375
    13  H    3.155051   2.100665   1.096527   2.217867   3.390033
    14  H    3.378069   2.625968   2.227777   1.093915   2.227706
    15  H    4.444268   3.385534   2.174776   1.096938   2.184992
    16  H    3.815973   3.215018   2.969079   2.198882   1.100195
    17  H    5.146918   4.270921   3.403437   2.214251   1.096022
    18  H    6.078722   5.301409   4.555328   4.282651   2.909824
    19  H    6.784656   6.056414   5.359613   5.747027   4.763684
    20  H    4.123450   3.390921   2.897734   4.285254   4.553350
                    6          7          8          9         10
     6  C    0.000000
     7  C    1.386008   0.000000
     8  C    2.399736   1.393542   0.000000
     9  C    2.769584   2.411741   1.391104   0.000000
    10  Br   4.666712   4.160093   2.852661   1.897170   0.000000
    11  C    2.423617   2.806670   2.422988   1.391681   2.850549
    12  C    1.391808   2.403257   2.761642   2.380463   4.135970
    13  H    3.253789   4.482012   4.868282   4.223346   5.632670
    14  H    3.343681   4.681320   5.710735   5.700799   7.484276
    15  H    2.867956   4.083893   5.005161   4.994078   6.727663
    16  H    2.159730   3.082278   4.314725   4.776394   6.642510
    17  H    2.188366   2.914129   4.246959   4.879255   6.757520
    18  H    2.155956   1.087453   2.151771   3.395607   5.004077
    19  H    3.387283   2.155958   1.085571   2.146666   2.949943
    20  H    3.412761   3.893132   3.407119   2.156795   2.961562
                   11         12         13         14         15
    11  C    0.000000
    12  C    1.384249   0.000000
    13  H    2.898222   2.191393   0.000000
    14  H    4.677415   3.349164   2.774905   0.000000
    15  H    4.076727   2.867504   2.374880   1.781122   0.000000
    16  H    4.256010   2.992824   4.004148   2.444191   3.065495
    17  H    4.502985   3.262592   4.181912   2.777448   2.413768
    18  H    3.894088   3.395488   5.376750   5.123811   4.583921
    19  H    3.400659   3.847128   5.940055   6.727973   5.989995
    20  H    1.086496   2.159843   2.854142   5.113052   4.570694
                   16         17         18         19         20
    16  H    0.000000
    17  H    1.775526   0.000000
    18  H    3.232953   2.866876   0.000000
    19  H    5.165733   5.020859   2.481909   0.000000
    20  H    5.068701   5.395317   4.980530   4.295142   0.000000
 Stoichiometry    C10H8BrN(1+,2)
 Framework group  C1[X(C10H8BrN)]
 Deg. of freedom    54
 Full point group                 C1      NOp   1
 Largest Abelian subgroup         C1      NOp   1
 Largest concise Abelian subgroup C1      NOp   1
                         Standard orientation:                         
 ---------------------------------------------------------------------
 Center     Atomic      Atomic             Coordinates (Angstroms)
 Number     Number       Type             X           Y           Z
 ---------------------------------------------------------------------
      1          7           0       -3.156538   -2.393419   -1.188800
      2          6           0       -2.811580   -1.672441   -0.356364
      3          6           0       -2.381864   -0.754359    0.709332
      4          6           0       -3.376296    0.451172    0.849638
      5          6           0       -2.813360    1.536368   -0.112546
      6          6           0       -1.330577    1.232653   -0.131437
      7          6           0       -0.277196    2.034815   -0.541246
      8          6           0        1.023723    1.538888   -0.481040
      9          6           0        1.255398    0.247443   -0.018799
     10         35           0        3.032195   -0.412580    0.062547
     11          6           0        0.204706   -0.569058    0.388814
     12          6           0       -1.079735   -0.056355    0.329720
     13          1           0       -2.296904   -1.313963    1.648479
     14          1           0       -4.408408    0.167013    0.624584
     15          1           0       -3.327200    0.812779    1.884096
     16          1           0       -3.241911    1.420965   -1.119251
     17          1           0       -3.038212    2.551299    0.234760
     18          1           0       -0.454234    3.044216   -0.905006
     19          1           0        1.860699    2.156445   -0.791779
     20          1           0        0.395805   -1.579264    0.740151
 ---------------------------------------------------------------------
 Rotational constants (GHZ):           1.4487551           0.3519482           0.3020488
 Standard basis: MIDIx (5D, 7F)
 There are   150 symmetry adapted cartesian basis functions of A   symmetry.
 There are   147 symmetry adapted basis functions of A   symmetry.
   147 basis functions,   258 primitive gaussians,   150 cartesian basis functions
    55 alpha electrons       54 beta electrons
       nuclear repulsion energy       870.6474095107 Hartrees.
 NAtoms=   20 NActive=   20 NUniq=   20 SFac= 1.00D+00 NAtFMM=   60 NAOKFM=F Big=F
 Integral buffers will be    131072 words long.
 Raffenetti 2 integral format.
 Two-electron integral symmetry is turned on.
 Nuclear repulsion after empirical dispersion term =      870.6341628392 Hartrees.
 One-electron integrals computed using PRISM.
 NBasis=   147 RedAO= T EigKep=  1.14D-03  NBF=   147
 NBsUse=   147 1.00D-06 EigRej= -1.00D+00 NBFU=   147
 ExpMin= 1.47D-01 ExpMax= 6.10D+03 ExpMxC= 6.10D+03 IAcc=3 IRadAn=         5 AccDes= 0.00D+00
 Harris functional with IExCor= 4639 and IRadAn=       5 diagonalized for initial guess.
 HarFok:  IExCor= 4639 AccDes= 0.00D+00 IRadAn=         5 IDoV= 1 UseB2=F ITyADJ=14
 ICtDFT=  3500011 ScaDFX=  1.000000  1.000000  1.000000  1.000000
 FoFCou: FMM=F IPFlag=           0 FMFlag=      100000 FMFlg1=           0
         NFxFlg=           0 DoJE=T BraDBF=F KetDBF=T FulRan=T
         wScrn=  0.000000 ICntrl=       500 IOpCl=  0 I1Cent=   200000004 NGrid=           0
         NMat0=    1 NMatS0=      1 NMatT0=    0 NMatD0=    1 NMtDS0=    0 NMtDT0=    0
 Petite list used in FoFCou.
 Initial guess <Sx>= 0.0000 <Sy>= 0.0000 <Sz>= 0.5000 <S**2>= 0.7500 S= 0.5000
 Requested convergence on RMS density matrix=1.00D-08 within 128 cycles.
 Requested convergence on MAX density matrix=1.00D-06.
 Requested convergence on             energy=1.00D-06.
 No special actions if energy rises.
 Integral accuracy reduced to 1.0D-05 until final iterations.
 Initial convergence to 1.0D-05 achieved.  Increase integral accuracy.
 SCF Done:  E(UwB97XD) =  -2999.63797185     A.U. after   24 cycles
            NFock= 24  Conv=0.42D-08     -V/T= 2.0022
 <Sx>= 0.0000 <Sy>= 0.0000 <Sz>= 0.5000 <S**2>= 0.7624 S= 0.5062
 <L.S>= 0.000000000000E+00
 Annihilation of the first spin contaminant:
 S**2 before annihilation     0.7624,   after     0.7500

 **********************************************************************

            Population analysis using the SCF Density.

 **********************************************************************

 Orbital symmetries:
 Alpha Orbitals:
       Occupied  (A) (A) (A) (A) (A) (A) (A) (A) (A) (A) (A) (A)
                 (A) (A) (A) (A) (A) (A) (A) (A) (A) (A) (A) (A)
                 (A) (A) (A) (A) (A) (A) (A) (A) (A) (A) (A) (A)
                 (A) (A) (A) (A) (A) (A) (A) (A) (A) (A) (A) (A)
                 (A) (A) (A) (A) (A) (A) (A)
       Virtual   (A) (A) (A) (A) (A) (A) (A) (A) (A) (A) (A) (A)
                 (A) (A) (A) (A) (A) (A) (A) (A) (A) (A) (A) (A)
                 (A) (A) (A) (A) (A) (A) (A) (A) (A) (A) (A) (A)
                 (A) (A) (A) (A) (A) (A) (A) (A) (A) (A) (A) (A)
                 (A) (A) (A) (A) (A) (A) (A) (A) (A) (A) (A) (A)
                 (A) (A) (A) (A) (A) (A) (A) (A) (A) (A) (A) (A)
                 (A) (A) (A) (A) (A) (A) (A) (A) (A) (A) (A) (A)
                 (A) (A) (A) (A) (A) (A) (A) (A)
 Beta  Orbitals:
       Occupied  (A) (A) (A) (A) (A) (A) (A) (A) (A) (A) (A) (A)
                 (A) (A) (A) (A) (A) (A) (A) (A) (A) (A) (A) (A)
                 (A) (A) (A) (A) (A) (A) (A) (A) (A) (A) (A) (A)
                 (A) (A) (A) (A) (A) (A) (A) (A) (A) (A) (A) (A)
                 (A) (A) (A) (A) (A) (A)
       Virtual   (A) (A) (A) (A) (A) (A) (A) (A) (A) (A) (A) (A)
                 (A) (A) (A) (A) (A) (A) (A) (A) (A) (A) (A) (A)
                 (A) (A) (A) (A) (A) (A) (A) (A) (A) (A) (A) (A)
                 (A) (A) (A) (A) (A) (A) (A) (A) (A) (A) (A) (A)
                 (A) (A) (A) (A) (A) (A) (A) (A) (A) (A) (A) (A)
                 (A) (A) (A) (A) (A) (A) (A) (A) (A) (A) (A) (A)
                 (A) (A) (A) (A) (A) (A) (A) (A) (A) (A) (A) (A)
                 (A) (A) (A) (A) (A) (A) (A) (A) (A)
 The electronic state is 2-A.
 Alpha  occ. eigenvalues -- -480.37179 -62.80461 -56.39335 -56.39091 -56.38867
 Alpha  occ. eigenvalues --  -14.48574 -10.52829 -10.48064 -10.46465 -10.46434
 Alpha  occ. eigenvalues --  -10.45797 -10.44966 -10.44878 -10.41750 -10.40377
 Alpha  occ. eigenvalues --  -10.39516  -9.11292  -6.89633  -6.88771  -6.88056
 Alpha  occ. eigenvalues --   -3.00027  -2.99757  -2.99263  -2.98467  -2.98412
 Alpha  occ. eigenvalues --   -1.22058  -1.16070  -1.13534  -1.09954  -1.07255
 Alpha  occ. eigenvalues --   -1.02901  -0.99800  -0.92511  -0.88385  -0.87533
 Alpha  occ. eigenvalues --   -0.80843  -0.78794  -0.76007  -0.73563  -0.72012
 Alpha  occ. eigenvalues --   -0.70450  -0.70323  -0.69136  -0.64713  -0.63798
 Alpha  occ. eigenvalues --   -0.63091  -0.61664  -0.61094  -0.58997  -0.56969
 Alpha  occ. eigenvalues --   -0.56721  -0.54276  -0.53701  -0.53164  -0.52848
 Alpha virt. eigenvalues --   -0.15802  -0.14261  -0.11663  -0.01357  -0.00745
 Alpha virt. eigenvalues --    0.02014   0.03561   0.04398   0.06018   0.06478
 Alpha virt. eigenvalues --    0.07922   0.09685   0.10505   0.11845   0.12988
 Alpha virt. eigenvalues --    0.14413   0.15326   0.16630   0.17535   0.22664
 Alpha virt. eigenvalues --    0.23648   0.25729   0.25952   0.33925   0.35500
 Alpha virt. eigenvalues --    0.38351   0.38839   0.40597   0.42985   0.43017
 Alpha virt. eigenvalues --    0.43179   0.44682   0.48504   0.49436   0.51594
 Alpha virt. eigenvalues --    0.53169   0.55283   0.56315   0.57830   0.60637
 Alpha virt. eigenvalues --    0.64235   0.66862   0.67922   0.69406   0.70135
 Alpha virt. eigenvalues --    0.72090   0.73050   0.74921   0.75314   0.77018
 Alpha virt. eigenvalues --    0.78407   0.78815   0.79945   0.82100   0.82244
 Alpha virt. eigenvalues --    0.83347   0.83740   0.84650   0.87114   0.87665
 Alpha virt. eigenvalues --    0.88186   0.88441   0.88804   0.89863   0.91671
 Alpha virt. eigenvalues --    0.93766   0.95797   0.97227   0.99032   1.00082
 Alpha virt. eigenvalues --    1.04192   1.05371   1.10039   1.13723   1.16175
 Alpha virt. eigenvalues --    1.23263   1.26701   1.29940   1.34547   1.38988
 Alpha virt. eigenvalues --    1.40298   1.44803   1.47048   1.53254   1.63044
 Alpha virt. eigenvalues --    1.73181   1.80442   1.80534   1.82549   1.97328
 Alpha virt. eigenvalues --    2.02337   3.04957
  Beta  occ. eigenvalues -- -480.37095 -62.80404 -56.39300 -56.38885 -56.38827
  Beta  occ. eigenvalues --  -14.48573 -10.52480 -10.47681 -10.46403 -10.46315
  Beta  occ. eigenvalues --  -10.45789 -10.45008 -10.44881 -10.41754 -10.40369
  Beta  occ. eigenvalues --  -10.39504  -9.11180  -6.89593  -6.88457  -6.88009
  Beta  occ. eigenvalues --   -2.99946  -2.99620  -2.99243  -2.98330  -2.98297
  Beta  occ. eigenvalues --   -1.21265  -1.15417  -1.13241  -1.09508  -1.06757
  Beta  occ. eigenvalues --   -1.02134  -0.99293  -0.92104  -0.88026  -0.87178
  Beta  occ. eigenvalues --   -0.80540  -0.78433  -0.75671  -0.73317  -0.71762
  Beta  occ. eigenvalues --   -0.69912  -0.69636  -0.67251  -0.64476  -0.63330
  Beta  occ. eigenvalues --   -0.62413  -0.61360  -0.60332  -0.57095  -0.56283
  Beta  occ. eigenvalues --   -0.55326  -0.53991  -0.53605  -0.53001
  Beta virt. eigenvalues --   -0.32966  -0.13064  -0.12614  -0.10913  -0.01294
  Beta virt. eigenvalues --   -0.00571   0.03107   0.03685   0.04472   0.06118
  Beta virt. eigenvalues --    0.06592   0.08004   0.09830   0.10644   0.11956
  Beta virt. eigenvalues --    0.13162   0.14581   0.15524   0.17124   0.17732
  Beta virt. eigenvalues --    0.23096   0.23945   0.26006   0.26144   0.34117
  Beta virt. eigenvalues --    0.35747   0.38617   0.39077   0.41023   0.43417
  Beta virt. eigenvalues --    0.44564   0.44694   0.45772   0.48673   0.49762
  Beta virt. eigenvalues --    0.52570   0.53459   0.55477   0.56564   0.58154
  Beta virt. eigenvalues --    0.61029   0.64696   0.67042   0.68002   0.69653
  Beta virt. eigenvalues --    0.70443   0.72596   0.73214   0.75117   0.75510
  Beta virt. eigenvalues --    0.77314   0.78618   0.79008   0.80352   0.82415
  Beta virt. eigenvalues --    0.82465   0.83498   0.84127   0.84801   0.87158
  Beta virt. eigenvalues --    0.87739   0.88522   0.88733   0.88932   0.90035
  Beta virt. eigenvalues --    0.91890   0.94033   0.95951   0.97334   0.99232
  Beta virt. eigenvalues --    1.00256   1.04270   1.05554   1.10170   1.13819
  Beta virt. eigenvalues --    1.16413   1.23413   1.26722   1.29995   1.34618
  Beta virt. eigenvalues --    1.39294   1.40580   1.44932   1.47196   1.53484
  Beta virt. eigenvalues --    1.63238   1.73276   1.80437   1.80529   1.82661
  Beta virt. eigenvalues --    1.97340   2.02360   3.04966
          Condensed to atoms (all electrons):
               1          2          3          4          5          6
     1  N    6.769030   0.667028  -0.015423  -0.004752   0.000337  -0.000038
     2  C    0.667028   5.112142   0.114539  -0.086257   0.008911   0.001692
     3  C   -0.015423   0.114539   5.388372   0.314890  -0.117645  -0.045686
     4  C   -0.004752  -0.086257   0.314890   5.279282   0.297984  -0.074501
     5  C    0.000337   0.008911  -0.117645   0.297984   5.290529   0.226583
     6  C   -0.000038   0.001692  -0.045686  -0.074501   0.226583   5.231962
     7  C   -0.000004  -0.000322   0.001820   0.003244   0.002262   0.406380
     8  C   -0.000000  -0.000023   0.000656  -0.000154  -0.000073  -0.025443
     9  C    0.000001   0.000047   0.000094  -0.000141   0.000437  -0.046889
    10  Br   0.000000   0.000003  -0.000020   0.000000   0.000002   0.000209
    11  C   -0.000465  -0.008513   0.013357   0.002654   0.000567  -0.017093
    12  C   -0.003712  -0.074125   0.272974  -0.090248  -0.031293   0.401745
    13  H    0.000012  -0.010858   0.367155  -0.021695   0.004383   0.001317
    14  H   -0.000063  -0.003029  -0.018277   0.385694  -0.025431   0.003568
    15  H    0.000122   0.007606  -0.049259   0.395860  -0.030664   0.000819
    16  H    0.000272   0.003170  -0.000864  -0.027091   0.371391  -0.016420
    17  H   -0.000004  -0.000326   0.005960  -0.029645   0.381229  -0.019144
    18  H    0.000000   0.000002  -0.000024  -0.000002  -0.002435  -0.016022
    19  H   -0.000000  -0.000000   0.000003   0.000001  -0.000002   0.002225
    20  H    0.000053   0.000813  -0.003564   0.000047  -0.000020   0.001758
               7          8          9         10         11         12
     1  N   -0.000004  -0.000000   0.000001   0.000000  -0.000465  -0.003712
     2  C   -0.000322  -0.000023   0.000047   0.000003  -0.008513  -0.074125
     3  C    0.001820   0.000656   0.000094  -0.000020   0.013357   0.272974
     4  C    0.003244  -0.000154  -0.000141   0.000000   0.002654  -0.090248
     5  C    0.002262  -0.000073   0.000437   0.000002   0.000567  -0.031293
     6  C    0.406380  -0.025443  -0.046889   0.000209  -0.017093   0.401745
     7  C    4.897190   0.518918  -0.026950   0.001350  -0.016922  -0.037020
     8  C    0.518918   4.982216   0.382462  -0.034111  -0.052326  -0.031860
     9  C   -0.026950   0.382462   5.144571   0.258939   0.414601  -0.017094
    10  Br   0.001350  -0.034111   0.258939  34.547927  -0.036618   0.001796
    11  C   -0.016922  -0.052326   0.414601  -0.036618   4.886572   0.483649
    12  C   -0.037020  -0.031860  -0.017094   0.001796   0.483649   5.168578
    13  H   -0.000035  -0.000009   0.000070  -0.000000  -0.002653  -0.018657
    14  H   -0.000018   0.000001   0.000002  -0.000000  -0.000032   0.003878
    15  H   -0.000312   0.000010   0.000002  -0.000000  -0.000172   0.003129
    16  H   -0.003478   0.000031  -0.000010  -0.000000  -0.000086  -0.001482
    17  H   -0.003073   0.000072  -0.000001  -0.000000  -0.000057   0.001462
    18  H    0.385252  -0.013766   0.002053  -0.000033  -0.000068   0.002148
    19  H   -0.009855   0.381292  -0.018168   0.000546   0.001967  -0.000005
    20  H   -0.000044   0.001740  -0.014285   0.000331   0.376393  -0.006589
              13         14         15         16         17         18
     1  N    0.000012  -0.000063   0.000122   0.000272  -0.000004   0.000000
     2  C   -0.010858  -0.003029   0.007606   0.003170  -0.000326   0.000002
     3  C    0.367155  -0.018277  -0.049259  -0.000864   0.005960  -0.000024
     4  C   -0.021695   0.385694   0.395860  -0.027091  -0.029645  -0.000002
     5  C    0.004383  -0.025431  -0.030664   0.371391   0.381229  -0.002435
     6  C    0.001317   0.003568   0.000819  -0.016420  -0.019144  -0.016022
     7  C   -0.000035  -0.000018  -0.000312  -0.003478  -0.003073   0.385252
     8  C   -0.000009   0.000001   0.000010   0.000031   0.000072  -0.013766
     9  C    0.000070   0.000002   0.000002  -0.000010  -0.000001   0.002053
    10  Br  -0.000000  -0.000000  -0.000000  -0.000000  -0.000000  -0.000033
    11  C   -0.002653  -0.000032  -0.000172  -0.000086  -0.000057  -0.000068
    12  C   -0.018657   0.003878   0.003129  -0.001482   0.001462   0.002148
    13  H    0.391981   0.000102  -0.001525  -0.000055  -0.000098   0.000001
    14  H    0.000102   0.402330  -0.018488  -0.003306   0.000882  -0.000001
    15  H   -0.001525  -0.018488   0.438127   0.002542  -0.003808   0.000000
    16  H   -0.000055  -0.003306   0.002542   0.395186  -0.016303   0.000212
    17  H   -0.000098   0.000882  -0.003808  -0.016303   0.405905   0.000989
    18  H    0.000001  -0.000001   0.000000   0.000212   0.000989   0.367703
    19  H   -0.000000  -0.000000  -0.000000   0.000000  -0.000001  -0.002910
    20  H    0.000848  -0.000001  -0.000000   0.000001   0.000001   0.000003
              19         20
     1  N   -0.000000   0.000053
     2  C   -0.000000   0.000813
     3  C    0.000003  -0.003564
     4  C    0.000001   0.000047
     5  C   -0.000002  -0.000020
     6  C    0.002225   0.001758
     7  C   -0.009855  -0.000044
     8  C    0.381292   0.001740
     9  C   -0.018168  -0.014285
    10  Br   0.000546   0.000331
    11  C    0.001967   0.376393
    12  C   -0.000005  -0.006589
    13  H   -0.000000   0.000848
    14  H   -0.000000  -0.000001
    15  H   -0.000000  -0.000000
    16  H    0.000000   0.000001
    17  H   -0.000001   0.000001
    18  H   -0.002910   0.000003
    19  H    0.359415  -0.000031
    20  H   -0.000031   0.361840
          Atomic-Atomic Spin Densities.
               1          2          3          4          5          6
     1  N    0.004044  -0.001863  -0.001424   0.000012   0.000031  -0.000067
     2  C   -0.001863   0.025116  -0.015528   0.000701   0.000162  -0.001323
     3  C   -0.001424  -0.015528   0.017545  -0.001635   0.002582  -0.004746
     4  C    0.000012   0.000701  -0.001635   0.000224   0.002212   0.000003
     5  C    0.000031   0.000162   0.002582   0.002212   0.000082  -0.035190
     6  C   -0.000067  -0.001323  -0.004746   0.000003  -0.035190   0.367044
     7  C   -0.000001  -0.000039   0.000181   0.000134  -0.003345   0.026362
     8  C    0.000000   0.000012  -0.000018  -0.000008   0.000235  -0.009209
     9  C    0.000001   0.000048   0.000009  -0.000003  -0.000005  -0.005332
    10  Br  -0.000000  -0.000001   0.000000   0.000000  -0.000000   0.000057
    11  C    0.000046   0.000606   0.000714  -0.000036   0.000277  -0.007139
    12  C   -0.000187  -0.001747  -0.003386   0.001888  -0.005701   0.037367
    13  H   -0.000053  -0.001542   0.003658  -0.000543   0.000038  -0.000055
    14  H    0.000016   0.000220  -0.000424   0.000177  -0.000093   0.000090
    15  H    0.000004   0.000268  -0.001614   0.001123  -0.001093   0.000954
    16  H    0.000065   0.000669  -0.001441  -0.000774   0.010962  -0.005893
    17  H   -0.000001  -0.000062   0.000394  -0.000262   0.007382  -0.003772
    18  H   -0.000000  -0.000000  -0.000000   0.000000   0.000084  -0.000456
    19  H    0.000000   0.000000  -0.000000   0.000000   0.000000   0.000034
    20  H   -0.000000  -0.000005   0.000047   0.000000   0.000000   0.000039
               7          8          9         10         11         12
     1  N   -0.000001   0.000000   0.000001  -0.000000   0.000046  -0.000187
     2  C   -0.000039   0.000012   0.000048  -0.000001   0.000606  -0.001747
     3  C    0.000181  -0.000018   0.000009   0.000000   0.000714  -0.003386
     4  C    0.000134  -0.000008  -0.000003   0.000000  -0.000036   0.001888
     5  C   -0.003345   0.000235  -0.000005  -0.000000   0.000277  -0.005701
     6  C    0.026362  -0.009209  -0.005332   0.000057  -0.007139   0.037367
     7  C   -0.052867  -0.019828  -0.006456   0.000207   0.000501  -0.003918
     8  C   -0.019828   0.109093   0.038422  -0.004943  -0.001910  -0.001249
     9  C   -0.006456   0.038422   0.278817  -0.059682   0.030700  -0.007462
    10  Br   0.000207  -0.004943  -0.059682   0.341577  -0.002669   0.000285
    11  C    0.000501  -0.001910   0.030700  -0.002669  -0.001602  -0.021003
    12  C   -0.003918  -0.001249  -0.007462   0.000285  -0.021003   0.031839
    13  H   -0.000000   0.000001   0.000006  -0.000000   0.000140  -0.000896
    14  H   -0.000003   0.000000  -0.000000   0.000000  -0.000001  -0.000010
    15  H    0.000004  -0.000002  -0.000002   0.000000  -0.000028   0.000461
    16  H   -0.000345   0.000025   0.000010  -0.000000   0.000019  -0.000269
    17  H    0.000080   0.000012   0.000004  -0.000000   0.000003  -0.000099
    18  H    0.000850  -0.000018   0.000039   0.000000  -0.000012   0.000032
    19  H   -0.000243  -0.000509  -0.000632  -0.000028   0.000005  -0.000019
    20  H   -0.000010   0.000012  -0.000368  -0.000097   0.000408  -0.000090
              13         14         15         16         17         18
     1  N   -0.000053   0.000016   0.000004   0.000065  -0.000001  -0.000000
     2  C   -0.001542   0.000220   0.000268   0.000669  -0.000062  -0.000000
     3  C    0.003658  -0.000424  -0.001614  -0.001441   0.000394  -0.000000
     4  C   -0.000543   0.000177   0.001123  -0.000774  -0.000262   0.000000
     5  C    0.000038  -0.000093  -0.001093   0.010962   0.007382   0.000084
     6  C   -0.000055   0.000090   0.000954  -0.005893  -0.003772  -0.000456
     7  C   -0.000000  -0.000003   0.000004  -0.000345   0.000080   0.000850
     8  C    0.000001   0.000000  -0.000002   0.000025   0.000012  -0.000018
     9  C    0.000006  -0.000000  -0.000002   0.000010   0.000004   0.000039
    10  Br  -0.000000   0.000000   0.000000  -0.000000  -0.000000   0.000000
    11  C    0.000140  -0.000001  -0.000028   0.000019   0.000003  -0.000012
    12  C   -0.000896  -0.000010   0.000461  -0.000269  -0.000099   0.000032
    13  H    0.002377  -0.000015  -0.000121  -0.000013   0.000005   0.000000
    14  H   -0.000015  -0.000464   0.000244   0.000204  -0.000049  -0.000000
    15  H   -0.000121   0.000244   0.001141   0.000169  -0.000341  -0.000000
    16  H   -0.000013   0.000204   0.000169   0.028515  -0.003070  -0.000008
    17  H    0.000005  -0.000049  -0.000341  -0.003070   0.012977  -0.000003
    18  H    0.000000  -0.000000  -0.000000  -0.000008  -0.000003   0.000286
    19  H    0.000000   0.000000   0.000000  -0.000000   0.000000   0.000061
    20  H   -0.000010   0.000000   0.000000   0.000000  -0.000000  -0.000000
              19         20
     1  N    0.000000  -0.000000
     2  C    0.000000  -0.000005
     3  C   -0.000000   0.000047
     4  C    0.000000   0.000000
     5  C    0.000000   0.000000
     6  C    0.000034   0.000039
     7  C   -0.000243  -0.000010
     8  C   -0.000509   0.000012
     9  C   -0.000632  -0.000368
    10  Br  -0.000028  -0.000097
    11  C    0.000005   0.000408
    12  C   -0.000019  -0.000090
    13  H    0.000000  -0.000010
    14  H    0.000000   0.000000
    15  H    0.000000   0.000000
    16  H   -0.000000   0.000000
    17  H    0.000000  -0.000000
    18  H    0.000061  -0.000000
    19  H   -0.005080   0.000000
    20  H    0.000000  -0.001322
 Mulliken charges and spin densities:
               1          2
     1  N   -0.412396   0.000624
     2  C    0.267501   0.005692
     3  C   -0.229059  -0.005087
     4  C   -0.345170   0.003214
     5  C   -0.377053  -0.021378
     6  C   -0.017021   0.358768
     7  C   -0.118385  -0.058734
     8  C   -0.109633   0.110120
     9  C   -0.079738   0.268112
    10  Br   0.259679   0.274706
    11  C   -0.044756  -0.000981
    12  C   -0.027274   0.025837
    13  H    0.289718   0.002977
    14  H    0.272190  -0.000108
    15  H    0.256013   0.001167
    16  H    0.296291   0.028824
    17  H    0.275961   0.013199
    18  H    0.276898   0.000854
    19  H    0.285523  -0.006411
    20  H    0.280708  -0.001394
 Sum of Mulliken charges =   1.00000   1.00000
 Mulliken charges and spin densities with hydrogens summed into heavy atoms:
               1          2
     1  N   -0.412396   0.000624
     2  C    0.267501   0.005692
     3  C    0.060659  -0.002110
     4  C    0.183034   0.004273
     5  C    0.195199   0.020645
     6  C   -0.017021   0.358768
     7  C    0.158513  -0.057880
     8  C    0.175890   0.103709
     9  C   -0.079738   0.268112
    10  Br   0.259679   0.274706
    11  C    0.235953  -0.002376
    12  C   -0.027274   0.025837
 Electronic spatial extent (au):  <R**2>=           3271.5615
 Charge=              1.0000 electrons
 Dipole moment (field-independent basis, Debye):
    X=              0.8133    Y=              4.8680    Z=              2.0444  Tot=              5.3421
 Quadrupole moment (field-independent basis, Debye-Ang):
   XX=            -49.9319   YY=            -70.4274   ZZ=            -78.1709
   XY=            -12.2949   XZ=             -7.9149   YZ=             -8.8976
 Traceless Quadrupole moment (field-independent basis, Debye-Ang):
   XX=             16.2448   YY=             -4.2507   ZZ=            -11.9941
   XY=            -12.2949   XZ=             -7.9149   YZ=             -8.8976
 Octapole moment (field-independent basis, Debye-Ang**2):
  XXX=            117.5055  YYY=             29.0317  ZZZ=              9.2125  XYY=             46.1925
  XXY=             26.9152  XXZ=             23.4899  XZZ=             33.1543  YZZ=              1.0200
  YYZ=              5.8251  XYZ=             13.5225
 Hexadecapole moment (field-independent basis, Debye-Ang**3):
 XXXX=          -2372.7539 YYYY=           -771.4338 ZZZZ=           -225.1180 XXXY=           -200.7179
 XXXZ=            -62.5931 YYYX=           -119.4851 YYYZ=            -58.4441 ZZZX=            -13.6411
 ZZZY=            -14.6393 XXYY=           -606.1501 XXZZ=           -492.3614 YYZZ=           -178.8012
 XXYZ=            -52.8990 YYXZ=            -39.7722 ZZXY=            -34.0252
 N-N= 8.706341628392D+02 E-N=-8.859013819386D+03  KE= 2.993052601670D+03
 There are a total of      454818 grid points.
 ElSum from          density=      108.9999797262
 ElSum from atomic densities=      109.9998928938
 Hirshfeld populations at iteration   1 (CA, CB, DipXYZ):
               1          2          3          4          5
     1  N    3.579045   3.578732   0.005991   0.021046   0.036030
     2  C    2.976195   2.971581   0.032750   0.094736   0.145055
     3  C    2.985571   2.981319  -0.012897  -0.027132  -0.010006
     4  C    3.010902   3.005425  -0.008101   0.003848  -0.009066
     5  C    3.019833   2.994999  -0.013407   0.010077  -0.000519
     6  C    3.064366   2.840006  -0.029335   0.029889  -0.008863
     7  C    2.999993   2.985291  -0.025908   0.046228  -0.017698
     8  C    3.036444   2.937035   0.031535   0.020057  -0.011965
     9  C    3.057089   2.853785   0.027934  -0.003824  -0.004019
    10  Br  17.518483  17.232728   0.205199  -0.080349   0.006943
    11  C    3.014451   2.980913   0.014525  -0.040477   0.009496
    12  C    3.006583   2.949871  -0.040057  -0.015847   0.013236
    13  H    0.464048   0.461502   0.005933  -0.091322   0.150373
    14  H    0.468606   0.468550  -0.164207  -0.035377  -0.026688
    15  H    0.475267   0.473755  -0.002708   0.052583   0.153298
    16  H    0.473685   0.450146  -0.078906  -0.006888  -0.153633
    17  H    0.471164   0.459625  -0.045634   0.156393   0.051005
    18  H    0.458155   0.458715  -0.026375   0.169624  -0.061866
    19  H    0.460467   0.456811   0.126308   0.118619  -0.056654
    20  H    0.459644   0.459203   0.017522  -0.170196   0.060621
       Tot  54.999990  53.999990   0.020163   0.251688   0.265079

 Dip from Atomic Chgs              0.299752   1.663542   0.539232
         Total Dipole              0.319915   1.915230   0.804311

 Hirshfeld charges, spin densities, dipoles, and CM5 charges using IRadAn=      5:
              Q-H        S-H        Dx         Dy         Dz        Q-CM5   
     1  N   -0.157776   0.000313   0.005991   0.021046   0.036030  -0.282126
     2  C    0.052224   0.004613   0.032750   0.094736   0.145055   0.165174
     3  C    0.033111   0.004252  -0.012897  -0.027132  -0.010006  -0.018082
     4  C   -0.016326   0.005477  -0.008101   0.003848  -0.009066  -0.119258
     5  C   -0.014832   0.024833  -0.013407   0.010077  -0.000519  -0.115156
     6  C    0.095628   0.224360  -0.029335   0.029889  -0.008863   0.084406
     7  C    0.014716   0.014702  -0.025908   0.046228  -0.017698  -0.037792
     8  C    0.026521   0.099409   0.031535   0.020057  -0.011965  -0.026757
     9  C    0.089126   0.203304   0.027934  -0.003824  -0.004019   0.067955
    10  Br   0.248790   0.285755   0.205199  -0.080349   0.006943   0.263670
    11  C    0.004636   0.033539   0.014525  -0.040477   0.009496  -0.045628
    12  C    0.043546   0.056712  -0.040057  -0.015847   0.013236   0.035721
    13  H    0.074449   0.002546   0.005933  -0.091322   0.150373   0.133326
    14  H    0.062844   0.000057  -0.164207  -0.035377  -0.026688   0.117852
    15  H    0.050978   0.001513  -0.002708   0.052583   0.153298   0.105828
    16  H    0.076169   0.023539  -0.078906  -0.006888  -0.153633   0.130919
    17  H    0.069211   0.011539  -0.045634   0.156393   0.051005   0.123356
    18  H    0.083130  -0.000559  -0.026375   0.169624  -0.061866   0.139011
    19  H    0.082723   0.003656   0.126308   0.118619  -0.056654   0.139319
    20  H    0.081153   0.000441   0.017522  -0.170196   0.060621   0.138282
       Tot   1.000020   1.000000   0.020163   0.251688   0.265079   1.000020
 Hirshfeld charges and spin densities with hydrogens summed into heavy atoms:
              Q-H        S-H       Q-CM5   
     1  N   -0.157776   0.000313  -0.282126
     2  C    0.052224   0.004613   0.165174
     3  C    0.107560   0.006798   0.115243
     4  C    0.097496   0.007046   0.104422
     5  C    0.130548   0.059912   0.139119
     6  C    0.095628   0.224360   0.084406
     7  C    0.097845   0.014143   0.101219
     8  C    0.109244   0.103064   0.112562
     9  C    0.089126   0.203304   0.067955
    10  Br   0.248790   0.285755   0.263670
    11  C    0.085789   0.033979   0.092655
    12  C    0.043546   0.056712   0.035721
 
 EQQ= 0.837794871863E-01 EQD=-0.453101771619E-01 EDD= 0.545634062164E-02
 EQQ+QD+DD= 0.439256506460E-01
 
                          Isotropic Fermi Contact Couplings
        Atom                 a.u.       MegaHertz       Gauss      10(-4) cm-1
     1  N(14)             -0.00029      -0.09222      -0.03291      -0.03076
     2  C(13)              0.00483       5.43389       1.93895       1.81255
     3  C(13)             -0.00096      -1.07969      -0.38526      -0.36015
     4  C(13)              0.00206       2.32072       0.82809       0.77411
     5  C(13)             -0.00715      -8.03991      -2.86884      -2.68182
     6  C(13)              0.03126      35.14355      12.54009      11.72263
     7  C(13)             -0.00960     -10.79419      -3.85164      -3.60055
     8  C(13)              0.00651       7.31751       2.61107       2.44086
     9  C(13)              0.02467      27.73889       9.89793       9.25270
    10  Br(79)             0.02238      25.14727       8.97317       8.38823
    11  C(13)             -0.00419      -4.70518      -1.67892      -1.56948
    12  C(13)             -0.00082      -0.92531      -0.33017      -0.30865
    13  H(1)               0.00152       6.78020       2.41934       2.26163
    14  H(1)              -0.00011      -0.50254      -0.17932      -0.16763
    15  H(1)               0.00035       1.56163       0.55723       0.52090
    16  H(1)               0.01385      61.89222      22.08468      20.64502
    17  H(1)               0.00659      29.47437      10.51719       9.83159
    18  H(1)               0.00011       0.49479       0.17655       0.16504
    19  H(1)              -0.00166      -7.42170      -2.64825      -2.47561
    20  H(1)              -0.00042      -1.87610      -0.66944      -0.62580
 --------------------------------------------------------
       Center         ----  Spin Dipole Couplings  ----
                      3XX-RR        3YY-RR        3ZZ-RR
 --------------------------------------------------------
     1   Atom       -0.003406     -0.000714      0.004120
     2   Atom       -0.000236      0.002973     -0.002737
     3   Atom       -0.001962      0.001251      0.000711
     4   Atom        0.004181     -0.004150     -0.000031
     5   Atom       -0.010096     -0.012379      0.022475
     6   Atom       -0.159095     -0.099742      0.258838
     7   Atom        0.010582      0.004794     -0.015376
     8   Atom       -0.062015     -0.033734      0.095749
     9   Atom       -0.144751     -0.093320      0.238072
    10   Atom       -1.666943     -0.984695      2.651638
    11   Atom       -0.008960     -0.005947      0.014907
    12   Atom       -0.031442     -0.016144      0.047586
    13   Atom       -0.000344      0.001026     -0.000682
    14   Atom        0.002790     -0.001421     -0.001370
    15   Atom        0.001938     -0.002519      0.000580
    16   Atom        0.004430     -0.005183      0.000753
    17   Atom        0.001334      0.003400     -0.004734
    18   Atom       -0.000814      0.004014     -0.003200
    19   Atom       -0.000800      0.004351     -0.003551
    20   Atom       -0.002192      0.005635     -0.003444
 --------------------------------------------------------
                        XY            XZ            YZ
 --------------------------------------------------------
     1   Atom        0.001665      0.000736      0.003188
     2   Atom        0.005115      0.002238      0.003166
     3   Atom        0.003657     -0.003178     -0.000782
     4   Atom        0.003618     -0.006261     -0.003121
     5   Atom       -0.002740      0.002360      0.012955
     6   Atom        0.009693      0.034697      0.165347
     7   Atom        0.003151     -0.002631     -0.008727
     8   Atom        0.006445      0.017019      0.055782
     9   Atom        0.012133      0.040675      0.148312
    10   Atom        0.211937      0.417214      1.612092
    11   Atom        0.004186     -0.001076      0.008351
    12   Atom       -0.000153      0.001932      0.021178
    13   Atom        0.001636     -0.001256     -0.002651
    14   Atom        0.001402     -0.000939     -0.000498
    15   Atom        0.000552     -0.003422     -0.000503
    16   Atom       -0.001262      0.006597     -0.000421
    17   Atom       -0.005911     -0.000714      0.000228
    18   Atom        0.002230     -0.001178     -0.003465
    19   Atom        0.010412     -0.004407     -0.004901
    20   Atom        0.002970     -0.001490     -0.004130
 --------------------------------------------------------


 ---------------------------------------------------------------------------------
              Anisotropic Spin Dipole Couplings in Principal Axis System
 ---------------------------------------------------------------------------------

       Atom             a.u.   MegaHertz   Gauss  10(-4) cm-1        Axes

              Baa    -0.0043    -0.165    -0.059    -0.055  0.8565 -0.5030  0.1158
     1 N(14)  Bbb    -0.0016    -0.063    -0.022    -0.021  0.4935  0.7325 -0.4690
              Bcc     0.0059     0.228     0.081     0.076  0.1511  0.4588  0.8756
 
              Baa    -0.0041    -0.557    -0.199    -0.186  0.1282 -0.4782  0.8688
     2 C(13)  Bbb    -0.0040    -0.532    -0.190    -0.177  0.8214 -0.4398 -0.3633
              Bcc     0.0081     1.089     0.389     0.363  0.5558  0.7602  0.3364
 
              Baa    -0.0053    -0.709    -0.253    -0.236  0.8248 -0.4159  0.3831
     3 C(13)  Bbb     0.0002     0.022     0.008     0.007 -0.0284  0.6462  0.7627
              Bcc     0.0051     0.686     0.245     0.229  0.5647  0.6399 -0.5211
 
              Baa    -0.0058    -0.784    -0.280    -0.262 -0.0712  0.9088  0.4111
     4 C(13)  Bbb    -0.0044    -0.592    -0.211    -0.197  0.6392 -0.2748  0.7183
              Bcc     0.0103     1.376     0.491     0.459  0.7657  0.3139 -0.5613
 
              Baa    -0.0181    -2.425    -0.865    -0.809  0.3882  0.8711 -0.3009
     5 C(13)  Bbb    -0.0087    -1.173    -0.418    -0.391  0.9208 -0.3799  0.0880
              Bcc     0.0268     3.598     1.284     1.200  0.0376  0.3112  0.9496
 
              Baa    -0.1669   -22.391    -7.990    -7.469  0.5725  0.7475 -0.3370
     6 C(13)  Bbb    -0.1592   -21.367    -7.624    -7.127  0.8166 -0.5567  0.1524
              Bcc     0.3261    43.758    15.614    14.596  0.0737  0.3624  0.9291
 
              Baa    -0.0187    -2.508    -0.895    -0.837  0.0475  0.3423  0.9384
     7 C(13)  Bbb     0.0053     0.707     0.252     0.236 -0.5828  0.7725 -0.2523
              Bcc     0.0134     1.802     0.643     0.601  0.8112  0.5349 -0.2362
 
              Baa    -0.0639    -8.568    -3.057    -2.858  0.9949 -0.0465 -0.0898
     8 C(13)  Bbb    -0.0544    -7.307    -2.607    -2.437  0.0122  0.9369 -0.3493
              Bcc     0.1183    15.875     5.665     5.295  0.1004  0.3465  0.9327
 
              Baa    -0.1526   -20.481    -7.308    -6.832  0.6345  0.6984 -0.3312
     9 C(13)  Bbb    -0.1462   -19.614    -6.999    -6.543  0.7670 -0.6217  0.1588
              Bcc     0.2988    40.095    14.307    13.374  0.0950  0.3547  0.9301
 
              Baa    -1.7292  -231.954   -82.767   -77.371  0.9320 -0.3598  0.0436
    10 Br(79) Bbb    -1.5777  -211.629   -75.515   -70.592  0.3503  0.8632 -0.3636
              Bcc     3.3069   443.583   158.281   147.963  0.0931  0.3541  0.9305
 
              Baa    -0.0132    -1.775    -0.633    -0.592  0.7106 -0.6666  0.2250
    11 C(13)  Bbb    -0.0046    -0.619    -0.221    -0.207  0.7034  0.6667 -0.2464
              Bcc     0.0178     2.395     0.854     0.799  0.0142  0.3334  0.9427
 
              Baa    -0.0315    -4.232    -1.510    -1.412  0.9967  0.0686 -0.0427
    12 C(13)  Bbb    -0.0225    -3.017    -1.077    -1.006 -0.0780  0.9549 -0.2865
              Bcc     0.0540     7.249     2.587     2.418  0.0211  0.2889  0.9571
 
              Baa    -0.0026    -1.395    -0.498    -0.465  0.0344  0.5781  0.8152
    13 H(1)   Bbb    -0.0013    -0.711    -0.254    -0.237  0.9007 -0.3714  0.2254
              Bcc     0.0039     2.106     0.752     0.703  0.4331  0.7265 -0.5335
 
              Baa    -0.0020    -1.044    -0.372    -0.348 -0.1612  0.8646  0.4758
    14 H(1)   Bbb    -0.0015    -0.792    -0.283    -0.264  0.3219 -0.4097  0.8536
              Bcc     0.0034     1.836     0.655     0.612  0.9330  0.2907 -0.2122
 
              Baa    -0.0026    -1.386    -0.495    -0.462 -0.0120  0.9896  0.1437
    15 H(1)   Bbb    -0.0022    -1.187    -0.424    -0.396  0.6397 -0.1028  0.7617
              Bcc     0.0048     2.574     0.918     0.859  0.7686  0.1010 -0.6318
 
              Baa    -0.0054    -2.905    -1.037    -0.969  0.2678  0.9377 -0.2214
    16 H(1)   Bbb    -0.0041    -2.190    -0.781    -0.730 -0.5442  0.3368  0.7684
              Bcc     0.0095     5.094     1.818     1.699  0.7951 -0.0853  0.6005
 
              Baa    -0.0049    -2.610    -0.931    -0.871  0.2608  0.1597  0.9521
    17 H(1)   Bbb    -0.0035    -1.871    -0.668    -0.624  0.7193  0.6256 -0.3020
              Bcc     0.0084     4.481     1.599     1.495 -0.6438  0.7636  0.0483
 
              Baa    -0.0046    -2.463    -0.879    -0.822  0.0816  0.3531  0.9320
    18 H(1)   Bbb    -0.0017    -0.896    -0.320    -0.299  0.9394 -0.3397  0.0465
              Bcc     0.0063     3.359     1.199     1.120  0.3330  0.8717 -0.3595
 
              Baa    -0.0090    -4.807    -1.715    -1.603  0.8046 -0.5796  0.1293
    19 H(1)   Bbb    -0.0058    -3.118    -1.113    -1.040  0.0998  0.3465  0.9327
              Bcc     0.0149     7.924     2.828     2.643  0.5854  0.7375 -0.3366
 
              Baa    -0.0051    -2.717    -0.969    -0.906  0.1561  0.3170  0.9355
    20 H(1)   Bbb    -0.0032    -1.700    -0.607    -0.567  0.9406 -0.3367 -0.0429
              Bcc     0.0083     4.417     1.576     1.473  0.3014  0.8866 -0.3507
 

 ---------------------------------------------------------------------------------

 Running external command "gaunbo6 R"
         input file       "/home/rpaton/opt/midi/fukui/Gau-1692116.EIn"
         output file      "/home/rpaton/opt/midi/fukui/Gau-1692116.EOu"
         message file     "/home/rpaton/opt/midi/fukui/Gau-1692116.EMs"
         fchk file        "/home/rpaton/opt/midi/fukui/Gau-1692116.EFC"
         mat. el file     "/home/rpaton/opt/midi/fukui/Gau-1692116.EUF"

 Writing WrtUnf unformatted file "/home/rpaton/opt/midi/fukui/Gau-1692116.EUF"
 Gaussian matrix elements                                         Version   2 NLab=11 Len12L=8 Len4L=8
 Write SHELL TO ATOM MAP                   from file      0 offset           0 length                  83 to matrix element file.
 Write SHELL TYPES                         from file      0 offset           0 length                  83 to matrix element file.
 Write NUMBER OF PRIMITIVES PER SHELL      from file      0 offset           0 length                  83 to matrix element file.
 Write PRIMITIVE EXPONENTS                 from file      0 offset           0 length                 149 to matrix element file.
 Write CONTRACTION COEFFICIENTS            from file      0 offset           0 length                 149 to matrix element file.
 Write P(S=P) CONTRACTION COEFFICIENTS     from file      0 offset           0 length                 149 to matrix element file.
 Write COORDINATES OF EACH SHELL           from file      0 offset           0 length                 249 to matrix element file.
 Write BONDS PER ATOM                      from file      0 offset           0 length                  20 to matrix element file.
 Write BONDED ATOMS                        from file      0 offset           0 length                  42 to matrix element file.
 Write BOND TYPES                          from file      0 offset           0 length                  42 to matrix element file.
 Write ONIOM CHARGE/MULT                   from file      0 offset           0 length                  32 to matrix element file.
 Write ONIOM ATOM LAYERS                   from file      0 offset           0 length                  20 to matrix element file.
 Write ONIOM ATOM MODIFIERS                from file      0 offset           0 length                  20 to matrix element file.
 Write ONIOM ATOM TYPES                    from file      0 offset           0 length                  20 to matrix element file.
 Write ONIOM LINK ATOMS                    from file      0 offset           0 length                  20 to matrix element file.
 Write ONIOM LINK CHARGES                  from file      0 offset           0 length                  20 to matrix element file.
 Write ONIOM LINK DISTANCES                from file      0 offset           0 length                  80 to matrix element file.
 Write SYMINF INTS                         from file      0 offset           0 length                  26 to matrix element file.
 Write ROTTR TO SO                         from file      0 offset           0 length                  12 to matrix element file.
 Write GAUSSIAN SCALARS                    from file    501 offset           0 to matrix element file.
 Write OPTIMIZATION FLAGS                  from file      0 offset           0 length                  20 to matrix element file.
 Write INTEGER ISO                         from file      0 offset           0 length                  20 to matrix element file.
 Write INTEGER SPIN                        from file      0 offset           0 length                  20 to matrix element file.
 Write REAL ZEFFECTIVE                     from file      0 offset           0 length                  20 to matrix element file.
 Write REAL QUADRUPOLEMOMENT               from file      0 offset           0 length                  20 to matrix element file.
 Write REAL GFACTOR                        from file      0 offset           0 length                  20 to matrix element file.
 Write REAL ZNUCLEAR                       from file      0 offset           0 length                  20 to matrix element file.
 Write MULLIKEN CHARGES                    from file      0 offset           0 length                  20 to matrix element file.
 Write TYPE 6 CHARGES                      from file      0 offset           0 length                  20 to matrix element file.
 Write TYPE 7 CHARGES                      from file      0 offset           0 length                  20 to matrix element file.
 Write NUCLEAR GRADIENT                    from file  10584 offset           0 length                  60 to matrix element file.
 Array NUCLEAR FORCE CONSTANTS              on  file  10585 does not exist.
 Write ELECTRIC DIPOLE MOMENT              from file      0 offset           0 length                   3 to matrix element file.
 Write NON-ADIABATIC COUPLING              from file  10810 offset           0 length                  60 to matrix element file.
 Write FINITE EM FIELD                     from file  10521 offset           0 length                  35 to matrix element file.
 Write OVERLAP                             from file  10514 offset           0 length               10878 to matrix element file.
 Write CORE HAMILTONIAN ALPHA              from file  10515 offset           0 length               10878 to matrix element file.
 Write CORE HAMILTONIAN BETA               from file  10515 offset       10878 length               10878 to matrix element file.
 Write KINETIC ENERGY                      from file  10516 offset           0 length               10878 to matrix element file.
 Write ORTHOGONAL BASIS                    from file  10685 offset           0 length               21609 to matrix element file.
 Write DIPOLE INTEGRALS                    from file  10518 offset           0 length               32634 to matrix element file.
 Array DIP VEL INTEGRALS                    on  file  10572 does not exist.
 Array R X DEL INTEGRALS                    on  file  10572 does not exist.
 Write ALPHA ORBITAL ENERGIES              from file      0 offset           0 length                 147 to matrix element file.
 Write BETA ORBITAL ENERGIES               from file      0 offset           0 length                 147 to matrix element file.
 Write ALPHA MO COEFFICIENTS               from file  10524 offset           0 length               21609 to matrix element file.
 Write BETA MO COEFFICIENTS                from file  10526 offset           0 length               21609 to matrix element file.
 Write ALPHA DENSITY MATRIX                from file      0 offset           0 length               10878 to matrix element file.
 Write BETA DENSITY MATRIX                 from file      0 offset           0 length               10878 to matrix element file.
 Write ALPHA FOCK MATRIX                   from file  10536 offset           0 length               10878 to matrix element file.
 Write BETA FOCK MATRIX                    from file  10538 offset           0 length               10878 to matrix element file.
 Write ENERGY-WEIGHTED DENSITY             from file  10571 offset           0 length               10878 to matrix element file.
 Write ALPHA SCF DENSITY MATRIX            from file      0 offset           0 length               10878 to matrix element file.
 Write BETA SCF DENSITY MATRIX             from file      0 offset           0 length               10878 to matrix element file.
 No 2e integrals to process.
 Perform NBO analysis...

 *********************************** NBO 7.0 ***********************************
             N A T U R A L   A T O M I C   O R B I T A L   A N D
          N A T U R A L   B O N D   O R B I T A L   A N A L Y S I S
 **************************** Robert Paton (I101709) ***************************
  (c) Copyright 1996-2019 Board of Regents of the University of Wisconsin System
      on behalf of the Theoretical Chemistry Institute.  All rights reserved.

          Cite this program [NBO 7.0.5 (4-Jun-2019)] as:

          NBO 7.0.  E. D. Glendening, J. K. Badenhoop, A. E. Reed,
          J. E. Carpenter, J. A. Bohmann, C. M. Morales, P. Karafiloglou,
          C. R. Landis, and F. Weinhold, Theoretical Chemistry Institute,
          University of Wisconsin, Madison, WI (2018)

 Filename set to /home/rpaton/opt/midi/fukui/Gau-1692116

 Job title:  arbr41_wb97xd_popncreated by GaussianPrep


 NATURAL POPULATIONS:  Natural atomic orbital occupancies

  NAO Atom No lang   Type(AO)    Occupancy     Spin
 -----------------------------------------------------
   1    N  1  s      Cor( 1s)     1.99992     0.00000
   2    N  1  s      Val( 2s)     1.59559     0.00003
   3    N  1  s      Ryd( 3s)     0.00802     0.00006
   4    N  1  px     Val( 2p)     1.08184    -0.00091
   5    N  1  px     Ryd( 3p)     0.00019     0.00000
   6    N  1  py     Val( 2p)     1.23048    -0.00046
   7    N  1  py     Ryd( 3p)     0.00052     0.00000
   8    N  1  pz     Val( 2p)     1.29885     0.00114
   9    N  1  pz     Ryd( 3p)     0.00089     0.00000
  10    N  1  dxy    Ryd( 3d)     0.00207     0.00000
  11    N  1  dxz    Ryd( 3d)     0.00256     0.00000
  12    N  1  dyz    Ryd( 3d)     0.00373     0.00000
  13    N  1  dx2y2  Ryd( 3d)     0.00209     0.00000
  14    N  1  dz2    Ryd( 3d)     0.00363     0.00000

  15    C  2  s      Cor( 1s)     1.99987     0.00000
  16    C  2  s      Val( 2s)     0.82401     0.00173
  17    C  2  s      Ryd( 3s)     0.00702     0.00016
  18    C  2  px     Val( 2p)     0.96400     0.00109
  19    C  2  px     Ryd( 3p)     0.00395     0.00000
  20    C  2  py     Val( 2p)     0.96249     0.00117
  21    C  2  py     Ryd( 3p)     0.01067     0.00000
  22    C  2  pz     Val( 2p)     0.96519     0.00065
  23    C  2  pz     Ryd( 3p)     0.01175    -0.00001

  24    C  3  s      Cor( 1s)     1.99974     0.00000
  25    C  3  s      Val( 2s)     0.98717    -0.00024
  26    C  3  s      Ryd( 3s)     0.00110     0.00002
  27    C  3  px     Val( 2p)     1.04498    -0.00106
  28    C  3  px     Ryd( 3p)     0.00196    -0.00001
  29    C  3  py     Val( 2p)     1.13640    -0.00048
  30    C  3  py     Ryd( 3p)     0.00349     0.00001
  31    C  3  pz     Val( 2p)     1.21955     0.00043
  32    C  3  pz     Ryd( 3p)     0.00247     0.00000

  33    C  4  s      Cor( 1s)     1.99976     0.00000
  34    C  4  s      Val( 2s)     1.05448     0.00029
  35    C  4  s      Ryd( 3s)     0.00074     0.00001
  36    C  4  px     Val( 2p)     1.20281     0.00066
  37    C  4  px     Ryd( 3p)     0.00275     0.00002
  38    C  4  py     Val( 2p)     1.00549     0.00011
  39    C  4  py     Ryd( 3p)     0.00183     0.00001
  40    C  4  pz     Val( 2p)     1.20675     0.00219
  41    C  4  pz     Ryd( 3p)     0.00208     0.00002

  42    C  5  s      Cor( 1s)     1.99976     0.00000
  43    C  5  s      Val( 2s)     1.05311    -0.00225
  44    C  5  s      Ryd( 3s)     0.00085     0.00002
  45    C  5  px     Val( 2p)     1.02790    -0.00863
  46    C  5  px     Ryd( 3p)     0.00229     0.00004
  47    C  5  py     Val( 2p)     1.22750    -0.00053
  48    C  5  py     Ryd( 3p)     0.00314     0.00003
  49    C  5  pz     Val( 2p)     1.22172     0.01098
  50    C  5  pz     Ryd( 3p)     0.00112     0.00005

  51    C  6  s      Cor( 1s)     1.99991     0.00000
  52    C  6  s      Val( 2s)     0.88073     0.01077
  53    C  6  s      Ryd( 3s)     0.00157     0.00005
  54    C  6  px     Val( 2p)     1.10172     0.00801
  55    C  6  px     Ryd( 3p)     0.00501     0.00001
  56    C  6  py     Val( 2p)     1.04215     0.03985
  57    C  6  py     Ryd( 3p)     0.00355     0.00003
  58    C  6  pz     Val( 2p)     0.81217     0.23980
  59    C  6  pz     Ryd( 3p)     0.00133     0.00016

  60    C  7  s      Cor( 1s)     1.99985     0.00000
  61    C  7  s      Val( 2s)     0.95921    -0.00285
  62    C  7  s      Ryd( 3s)     0.00096     0.00002
  63    C  7  px     Val( 2p)     1.05345    -0.00519
  64    C  7  px     Ryd( 3p)     0.00554     0.00004
  65    C  7  py     Val( 2p)     1.20399    -0.00382
  66    C  7  py     Ryd( 3p)     0.00566     0.00006
  67    C  7  pz     Val( 2p)     0.98531    -0.01298
  68    C  7  pz     Ryd( 3p)     0.00100    -0.00001

  69    C  8  s      Cor( 1s)     1.99986     0.00000
  70    C  8  s      Val( 2s)     0.96951     0.00264
  71    C  8  s      Ryd( 3s)     0.00115     0.00000
  72    C  8  px     Val( 2p)     1.17742     0.00342
  73    C  8  px     Ryd( 3p)     0.00710     0.00005
  74    C  8  py     Val( 2p)     1.08565     0.01023
  75    C  8  py     Ryd( 3p)     0.00462     0.00000
  76    C  8  pz     Val( 2p)     0.93128     0.08966
  77    C  8  pz     Ryd( 3p)     0.00111     0.00001

  78    C  9  s      Cor( 1s)     1.99989     0.00000
  79    C  9  s      Val( 2s)     0.96420     0.00855
  80    C  9  s      Ryd( 3s)     0.00053    -0.00003
  81    C  9  px     Val( 2p)     1.03268     0.00555
  82    C  9  px     Ryd( 3p)     0.00677    -0.00015
  83    C  9  py     Val( 2p)     1.08020     0.02949
  84    C  9  py     Ryd( 3p)     0.00741    -0.00011
  85    C  9  pz     Val( 2p)     0.95577     0.19097
  86    C  9  pz     Ryd( 3p)     0.00200    -0.00024

  87   Br 10  s      Cor( 3s)     2.00000     0.00000
  88   Br 10  s      Cor( 1s)     2.00000     0.00000
  89   Br 10  s      Cor( 2s)     1.99999     0.00000
  90   Br 10  s      Val( 4s)     1.87988     0.00208
  91   Br 10  s      Ryd( 5s)     0.00292     0.00010
  92   Br 10  px     Cor( 3p)     2.00000     0.00000
  93   Br 10  px     Cor( 2p)     1.99999     0.00000
  94   Br 10  px     Val( 4p)     1.18051    -0.00338
  95   Br 10  px     Ryd( 5p)     0.00309     0.00012
  96   Br 10  py     Cor( 3p)     2.00000     0.00000
  97   Br 10  py     Cor( 2p)     1.99999     0.00000
  98   Br 10  py     Val( 4p)     1.82878     0.03607
  99   Br 10  py     Ryd( 5p)     0.00167    -0.00001
 100   Br 10  pz     Cor( 3p)     2.00000     0.00000
 101   Br 10  pz     Cor( 2p)     2.00000     0.00000
 102   Br 10  pz     Val( 4p)     1.70010     0.25267
 103   Br 10  pz     Ryd( 5p)     0.00071     0.00011
 104   Br 10  dxy    Cor( 3d)     1.99960     0.00000
 105   Br 10  dxy    Ryd( 4d)     0.00295    -0.00015
 106   Br 10  dxz    Cor( 3d)     1.99986     0.00001
 107   Br 10  dxz    Ryd( 4d)     0.00253    -0.00074
 108   Br 10  dyz    Cor( 3d)     1.99996     0.00000
 109   Br 10  dyz    Ryd( 4d)     0.00040    -0.00009
 110   Br 10  dx2y2  Cor( 3d)     1.99955     0.00000
 111   Br 10  dx2y2  Ryd( 4d)     0.00347    -0.00011
 112   Br 10  dz2    Cor( 3d)     1.99981     0.00000
 113   Br 10  dz2    Ryd( 4d)     0.00171     0.00006

 114    C 11  s      Cor( 1s)     1.99984     0.00000
 115    C 11  s      Val( 2s)     0.95121    -0.00102
 116    C 11  s      Ryd( 3s)     0.00130     0.00000
 117    C 11  px     Val( 2p)     1.05762    -0.00330
 118    C 11  px     Ryd( 3p)     0.00627     0.00002
 119    C 11  py     Val( 2p)     1.20527     0.00125
 120    C 11  py     Ryd( 3p)     0.00622     0.00003
 121    C 11  pz     Val( 2p)     0.97309     0.01706
 122    C 11  pz     Ryd( 3p)     0.00113     0.00001

 123    C 12  s      Cor( 1s)     1.99988     0.00000
 124    C 12  s      Val( 2s)     0.86121     0.00005
 125    C 12  s      Ryd( 3s)     0.00185     0.00004
 126    C 12  px     Val( 2p)     1.09051     0.00080
 127    C 12  px     Ryd( 3p)     0.00527     0.00004
 128    C 12  py     Val( 2p)     1.05667     0.00087
 129    C 12  py     Ryd( 3p)     0.00391     0.00002
 130    C 12  pz     Val( 2p)     0.95029     0.04241
 131    C 12  pz     Ryd( 3p)     0.00155     0.00002

 132    H 13  s      Val( 1s)     0.66358     0.00292
 133    H 13  s      Ryd( 2s)     0.00113     0.00002

 134    H 14  s      Val( 1s)     0.69672    -0.00016
 135    H 14  s      Ryd( 2s)     0.00069    -0.00001

 136    H 15  s      Val( 1s)     0.71403     0.00092
 137    H 15  s      Ryd( 2s)     0.00129     0.00004

 138    H 16  s      Val( 1s)     0.67631     0.02362
 139    H 16  s      Ryd( 2s)     0.00100     0.00016

 140    H 17  s      Val( 1s)     0.68926     0.01106
 141    H 17  s      Ryd( 2s)     0.00080     0.00006

 142    H 18  s      Val( 1s)     0.70016     0.00037
 143    H 18  s      Ryd( 2s)     0.00071    -0.00001

 144    H 19  s      Val( 1s)     0.69616    -0.00353
 145    H 19  s      Ryd( 2s)     0.00104    -0.00002

 146    H 20  s      Val( 1s)     0.69501    -0.00082
 147    H 20  s      Ryd( 2s)     0.00103    -0.00002


 Summary of Natural Population Analysis:

                                     Natural Population                 Natural
             Natural    ---------------------------------------------    Spin
  Atom No    Charge        Core      Valence    Rydberg      Total      Density
 -------------------------------------------------------------------------------
    N  1   -0.23037      1.99992     5.20676    0.02369     7.23037    -0.00013
    C  2    0.25105      1.99987     3.71569    0.03339     5.74895     0.00481
    C  3   -0.39687      1.99974     4.38810    0.00903     6.39687    -0.00132
    C  4   -0.47669      1.99976     4.46953    0.00740     6.47669     0.00331
    C  5   -0.53740      1.99976     4.53024    0.00740     6.53740    -0.00030
    C  6    0.15185      1.99991     3.83677    0.01147     5.84815     0.29868
    C  7   -0.21497      1.99985     4.20195    0.01317     6.21497    -0.02474
    C  8   -0.17771      1.99986     4.16386    0.01398     6.17771     0.10601
    C  9   -0.04944      1.99989     4.03286    0.01669     6.04944     0.23402
   Br 10    0.39255     27.99875     6.58926    0.01944    34.60745     0.28675
    C 11   -0.20195      1.99984     4.18719    0.01492     6.20195     0.01405
    C 12    0.02886      1.99988     3.95867    0.01258     5.97114     0.04425
    H 13    0.33529      0.00000     0.66358    0.00113     0.66471     0.00294
    H 14    0.30259      0.00000     0.69672    0.00069     0.69741    -0.00017
    H 15    0.28468      0.00000     0.71403    0.00129     0.71532     0.00096
    H 16    0.32269      0.00000     0.67631    0.00100     0.67731     0.02378
    H 17    0.30994      0.00000     0.68926    0.00080     0.69006     0.01113
    H 18    0.29913      0.00000     0.70016    0.00071     0.70087     0.00036
    H 19    0.30280      0.00000     0.69616    0.00104     0.69720    -0.00355
    H 20    0.30396      0.00000     0.69501    0.00103     0.69604    -0.00084
 ===============================================================================
 * Total *  1.00000     49.99703    58.81211    0.19086   109.00000     1.00000

                                 Natural Population
 ---------------------------------------------------------
   Core                      49.99703 ( 99.9941% of   50)
   Valence                   58.81211 ( 99.6815% of   59)
   Natural Minimal Basis    108.80914 ( 99.8249% of  109)
   Natural Rydberg Basis      0.19086 (  0.1751% of  109)
 ---------------------------------------------------------

    Atom No         Natural Electron Configuration
 ----------------------------------------------------------------------------
      N  1      [core]2s( 1.60)2p( 3.61)3s( 0.01)3d( 0.01)
      C  2      [core]2s( 0.82)2p( 2.89)3s( 0.01)3p( 0.03)
      C  3      [core]2s( 0.99)2p( 3.40)3p( 0.01)
      C  4      [core]2s( 1.05)2p( 3.42)3p( 0.01)
      C  5      [core]2s( 1.05)2p( 3.48)3p( 0.01)
      C  6      [core]2s( 0.88)2p( 2.96)3p( 0.01)
      C  7      [core]2s( 0.96)2p( 3.24)3p( 0.01)
      C  8      [core]2s( 0.97)2p( 3.19)3p( 0.01)
      C  9      [core]2s( 0.96)2p( 3.07)3p( 0.02)
     Br 10      [core]4s( 1.88)4p( 4.71)4d( 0.01)5p( 0.01)
      C 11      [core]2s( 0.95)2p( 3.24)3p( 0.01)
      C 12      [core]2s( 0.86)2p( 3.10)3p( 0.01)
      H 13            1s( 0.66)
      H 14            1s( 0.70)
      H 15            1s( 0.71)
      H 16            1s( 0.68)
      H 17            1s( 0.69)
      H 18            1s( 0.70)
      H 19            1s( 0.70)
      H 20            1s( 0.70)


 ***************************************************
 *******         Alpha spin orbitals         *******
 ***************************************************


 NATURAL POPULATIONS:  Natural atomic orbital occupancies

  NAO Atom No lang   Type(AO)    Occupancy      Energy
 -------------------------------------------------------
   1    N  1  s      Cor( 1s)     0.99996     -14.46800
   2    N  1  s      Val( 2s)     0.79781      -0.56461
   3    N  1  s      Ryd( 3s)     0.00404       1.18974
   4    N  1  px     Val( 2p)     0.54047      -0.26707
   5    N  1  px     Ryd( 3p)     0.00010       1.25302
   6    N  1  py     Val( 2p)     0.61501      -0.28335
   7    N  1  py     Ryd( 3p)     0.00026       1.31808
   8    N  1  pz     Val( 2p)     0.64999      -0.29156
   9    N  1  pz     Ryd( 3p)     0.00044       1.34533
  10    N  1  dxy    Ryd( 3d)     0.00103       1.94759
  11    N  1  dxz    Ryd( 3d)     0.00128       1.99375
  12    N  1  dyz    Ryd( 3d)     0.00186       2.41186
  13    N  1  dx2y2  Ryd( 3d)     0.00104       1.92097
  14    N  1  dz2    Ryd( 3d)     0.00182       1.98197

  15    C  2  s      Cor( 1s)     0.99993     -10.39225
  16    C  2  s      Val( 2s)     0.41287      -0.18456
  17    C  2  s      Ryd( 3s)     0.00359       0.63208
  18    C  2  px     Val( 2p)     0.48255      -0.21089
  19    C  2  px     Ryd( 3p)     0.00198       0.85080
  20    C  2  py     Val( 2p)     0.48183      -0.13904
  21    C  2  py     Ryd( 3p)     0.00534       0.93413
  22    C  2  pz     Val( 2p)     0.48292      -0.10469
  23    C  2  pz     Ryd( 3p)     0.00587       0.96998

  24    C  3  s      Cor( 1s)     0.99987     -10.44535
  25    C  3  s      Val( 2s)     0.49346      -0.30444
  26    C  3  s      Ryd( 3s)     0.00056       1.10600
  27    C  3  px     Val( 2p)     0.52196      -0.26243
  28    C  3  px     Ryd( 3p)     0.00098       0.88551
  29    C  3  py     Val( 2p)     0.56796      -0.27293
  30    C  3  py     Ryd( 3p)     0.00175       0.95383
  31    C  3  pz     Val( 2p)     0.60999      -0.29255
  32    C  3  pz     Ryd( 3p)     0.00124       0.98993

  33    C  4  s      Cor( 1s)     0.99988     -10.40072
  34    C  4  s      Val( 2s)     0.52739      -0.34675
  35    C  4  s      Ryd( 3s)     0.00037       1.07059
  36    C  4  px     Val( 2p)     0.60173      -0.26373
  37    C  4  px     Ryd( 3p)     0.00138       0.93709
  38    C  4  py     Val( 2p)     0.50280      -0.23325
  39    C  4  py     Ryd( 3p)     0.00092       0.83918
  40    C  4  pz     Val( 2p)     0.60447      -0.26628
  41    C  4  pz     Ryd( 3p)     0.00105       0.91407

  42    C  5  s      Cor( 1s)     0.99988     -10.41390
  43    C  5  s      Val( 2s)     0.52543      -0.35078
  44    C  5  s      Ryd( 3s)     0.00043       1.05327
  45    C  5  px     Val( 2p)     0.50963      -0.24293
  46    C  5  px     Ryd( 3p)     0.00117       0.78274
  47    C  5  py     Val( 2p)     0.61349      -0.28346
  48    C  5  py     Ryd( 3p)     0.00158       0.90867
  49    C  5  pz     Val( 2p)     0.61635      -0.28934
  50    C  5  pz     Ryd( 3p)     0.00059       0.88101

  51    C  6  s      Cor( 1s)     0.99996     -10.47775
  52    C  6  s      Val( 2s)     0.44575      -0.26915
  53    C  6  s      Ryd( 3s)     0.00081       0.55798
  54    C  6  px     Val( 2p)     0.55487      -0.25180
  55    C  6  px     Ryd( 3p)     0.00251       1.34418
  56    C  6  py     Val( 2p)     0.54100      -0.25212
  57    C  6  py     Ryd( 3p)     0.00179       1.05013
  58    C  6  pz     Val( 2p)     0.52598      -0.33346
  59    C  6  pz     Ryd( 3p)     0.00075       0.84356

  60    C  7  s      Cor( 1s)     0.99992     -10.44626
  61    C  7  s      Val( 2s)     0.47818      -0.27937
  62    C  7  s      Ryd( 3s)     0.00049       0.56072
  63    C  7  px     Val( 2p)     0.52413      -0.21249
  64    C  7  px     Ryd( 3p)     0.00279       0.84086
  65    C  7  py     Val( 2p)     0.60008      -0.27923
  66    C  7  py     Ryd( 3p)     0.00286       1.14040
  67    C  7  pz     Val( 2p)     0.48617      -0.30254
  68    C  7  pz     Ryd( 3p)     0.00050       0.80105

  69    C  8  s      Cor( 1s)     0.99993     -10.46127
  70    C  8  s      Val( 2s)     0.48607      -0.30800
  71    C  8  s      Ryd( 3s)     0.00058       0.54831
  72    C  8  px     Val( 2p)     0.59042      -0.26565
  73    C  8  px     Ryd( 3p)     0.00357       1.02279
  74    C  8  py     Val( 2p)     0.54794      -0.26353
  75    C  8  py     Ryd( 3p)     0.00231       0.92827
  76    C  8  pz     Val( 2p)     0.51047      -0.32629
  77    C  8  pz     Ryd( 3p)     0.00056       0.77237

  78    C  9  s      Cor( 1s)     0.99995     -10.52648
  79    C  9  s      Val( 2s)     0.48637      -0.38768
  80    C  9  s      Ryd( 3s)     0.00025       0.51724
  81    C  9  px     Val( 2p)     0.51912      -0.34573
  82    C  9  px     Ryd( 3p)     0.00331       1.11337
  83    C  9  py     Val( 2p)     0.55484      -0.30517
  84    C  9  py     Ryd( 3p)     0.00365       0.90565
  85    C  9  pz     Val( 2p)     0.57337      -0.38592
  86    C  9  pz     Ryd( 3p)     0.00088       0.74940

  87   Br 10  s      Cor( 3s)     1.00000     -22.64004
  88   Br 10  s      Cor( 1s)     1.00000    -449.71439
  89   Br 10  s      Cor( 2s)     1.00000     -79.93433
  90   Br 10  s      Val( 4s)     0.94098      -0.98844
  91   Br 10  s      Ryd( 5s)     0.00151       0.66935
  92   Br 10  px     Cor( 3p)     1.00000      -7.36924
  93   Br 10  px     Cor( 2p)     0.99999     -55.91750
  94   Br 10  px     Val( 4p)     0.58856      -0.44381
  95   Br 10  px     Ryd( 5p)     0.00160       0.54937
  96   Br 10  py     Cor( 3p)     1.00000      -7.35792
  97   Br 10  py     Cor( 2p)     1.00000     -55.91471
  98   Br 10  py     Val( 4p)     0.93242      -0.54960
  99   Br 10  py     Ryd( 5p)     0.00083       0.56709
 100   Br 10  pz     Cor( 3p)     1.00000      -7.36135
 101   Br 10  pz     Cor( 2p)     1.00000     -55.91591
 102   Br 10  pz     Val( 4p)     0.97639      -0.57426
 103   Br 10  pz     Ryd( 5p)     0.00041       0.53832
 104   Br 10  dxy    Cor( 3d)     0.99980      -2.99279
 105   Br 10  dxy    Ryd( 4d)     0.00140       0.72324
 106   Br 10  dxz    Cor( 3d)     0.99993      -2.99511
 107   Br 10  dxz    Ryd( 4d)     0.00089       0.52215
 108   Br 10  dyz    Cor( 3d)     0.99998      -2.98617
 109   Br 10  dyz    Ryd( 4d)     0.00015       0.45990
 110   Br 10  dx2y2  Cor( 3d)     0.99978      -2.99283
 111   Br 10  dx2y2  Ryd( 4d)     0.00168       0.74145
 112   Br 10  dz2    Cor( 3d)     0.99990      -2.99003
 113   Br 10  dz2    Ryd( 4d)     0.00089       0.54015

 114    C 11  s      Cor( 1s)     0.99992     -10.45452
 115    C 11  s      Val( 2s)     0.47509      -0.28042
 116    C 11  s      Ryd( 3s)     0.00065       0.53740
 117    C 11  px     Val( 2p)     0.52716      -0.22411
 118    C 11  px     Ryd( 3p)     0.00314       0.80772
 119    C 11  py     Val( 2p)     0.60326      -0.29162
 120    C 11  py     Ryd( 3p)     0.00312       1.12326
 121    C 11  pz     Val( 2p)     0.49508      -0.31435
 122    C 11  pz     Ryd( 3p)     0.00057       0.78962

 123    C 12  s      Cor( 1s)     0.99994     -10.46154
 124    C 12  s      Val( 2s)     0.43063      -0.24515
 125    C 12  s      Ryd( 3s)     0.00094       0.61203
 126    C 12  px     Val( 2p)     0.54565      -0.23863
 127    C 12  px     Ryd( 3p)     0.00266       1.29648
 128    C 12  py     Val( 2p)     0.52877      -0.25024
 129    C 12  py     Ryd( 3p)     0.00197       1.09348
 130    C 12  pz     Val( 2p)     0.49635      -0.31070
 131    C 12  pz     Ryd( 3p)     0.00079       0.87442

 132    H 13  s      Val( 1s)     0.33325       0.00305
 133    H 13  s      Ryd( 2s)     0.00057       0.46571

 134    H 14  s      Val( 1s)     0.34828       0.01471
 135    H 14  s      Ryd( 2s)     0.00034       0.48865

 136    H 15  s      Val( 1s)     0.35747      -0.00561
 137    H 15  s      Ryd( 2s)     0.00067       0.48375

 138    H 16  s      Val( 1s)     0.34996      -0.02019
 139    H 16  s      Ryd( 2s)     0.00058       0.47584

 140    H 17  s      Val( 1s)     0.35016      -0.01146
 141    H 17  s      Ryd( 2s)     0.00043       0.46641

 142    H 18  s      Val( 1s)     0.35026      -0.00998
 143    H 18  s      Ryd( 2s)     0.00035       0.45330

 144    H 19  s      Val( 1s)     0.34631      -0.01609
 145    H 19  s      Ryd( 2s)     0.00051       0.44250

 146    H 20  s      Val( 1s)     0.34709      -0.01741
 147    H 20  s      Ryd( 2s)     0.00050       0.45298


 Summary of Natural Population Analysis:

                                     Natural Population
             Natural    ---------------------------------------------
  Atom No    Charge        Core      Valence    Rydberg      Total
 --------------------------------------------------------------------
    N  1   -0.11512      0.99996     2.60328    0.01188     3.61512
    C  2    0.12312      0.99993     1.86016    0.01678     2.87688
    C  3   -0.19777      0.99987     2.19338    0.00453     3.19777
    C  4   -0.24000      0.99988     2.23639    0.00373     3.24000
    C  5   -0.26855      0.99988     2.26490    0.00377     3.26855
    C  6   -0.07341      0.99996     2.06760    0.00586     3.07341
    C  7   -0.09512      0.99992     2.08855    0.00664     3.09512
    C  8   -0.14186      0.99993     2.13491    0.00702     3.14186
    C  9   -0.14173      0.99995     2.13371    0.00808     3.14173
   Br 10    0.05290     13.99938     3.43835    0.00937    17.44710
    C 11   -0.10800      0.99992     2.10059    0.00749     3.10800
    C 12   -0.00769      0.99994     2.00140    0.00635     3.00769
    H 13    0.16617      0.00000     0.33325    0.00057     0.33383
    H 14    0.15138      0.00000     0.34828    0.00034     0.34862
    H 15    0.14186      0.00000     0.35747    0.00067     0.35814
    H 16    0.14946      0.00000     0.34996    0.00058     0.35054
    H 17    0.14941      0.00000     0.35016    0.00043     0.35059
    H 18    0.14938      0.00000     0.35026    0.00035     0.35062
    H 19    0.15318      0.00000     0.34631    0.00051     0.34682
    H 20    0.15240      0.00000     0.34709    0.00050     0.34760
 ====================================================================
[...]
   45. BD ( 2) C  7- C  8      72. BD*( 2) C  7- C  8      0.28    0.42   0.014
   45. BD ( 2) C  7- C  8      77. BD*( 2) C  9-Br 10     19.54    0.27   0.092
   45. BD ( 2) C  7- C  8     121. RY ( 3) C  9            0.30    1.26   0.024
   46. BD ( 1) C  7- H 18      66. BD*( 1) C  5- C  6      0.27    1.07   0.021
   46. BD ( 1) C  7- H 18      69. BD*( 1) C  6- C  7      0.55    1.25   0.033
   46. BD ( 1) C  7- H 18      70. BD*( 1) C  6- C 12      1.51    1.22   0.054
   46. BD ( 1) C  7- H 18      71. BD*( 1) C  7- C  8      0.51    1.23   0.032
   46. BD ( 1) C  7- H 18      74. BD*( 1) C  8- C  9      1.49    1.20   0.053
   46. BD ( 1) C  7- H 18     107. RY ( 1) C  6            0.88    2.11   0.054
   46. BD ( 1) C  7- H 18     115. RY ( 1) C  8            0.67    1.91   0.045
   47. BD ( 1) C  8- C  9      71. BD*( 1) C  7- C  8      0.96    1.41   0.046
   47. BD ( 1) C  8- C  9      73. BD*( 1) C  7- H 18      0.64    1.35   0.037
   47. BD ( 1) C  8- C  9      75. BD*( 1) C  8- H 19      0.83    1.34   0.042
   47. BD ( 1) C  8- C  9      78. BD*( 1) C  9- C 11      1.53    1.38   0.058
   47. BD ( 1) C  8- C  9      81. BD*( 1) C 11- H 20      0.79    1.34   0.041
   47. BD ( 1) C  8- C  9     111. RY ( 1) C  7            0.59    2.15   0.045
   47. BD ( 1) C  8- C  9     112. RY ( 2) C  7            0.86    1.75   0.049
   47. BD ( 1) C  8- C  9     132. RY ( 1) C 11            0.70    2.09   0.048
   47. BD ( 1) C  8- C  9     133. RY ( 2) C 11            0.48    1.76   0.037
   48. BD ( 1) C  8- H 19      69. BD*( 1) C  6- C  7      1.35    1.26   0.052
   48. BD ( 1) C  8- H 19      71. BD*( 1) C  7- C  8      0.55    1.24   0.033
   48. BD ( 1) C  8- H 19      74. BD*( 1) C  8- C  9      0.37    1.21   0.027
   48. BD ( 1) C  8- H 19      76. BD*( 1) C  9-Br 10      0.51    0.75   0.025
   48. BD ( 1) C  8- H 19      78. BD*( 1) C  9- C 11      1.47    1.21   0.053
   48. BD ( 1) C  8- H 19     111. RY ( 1) C  7            0.72    1.98   0.048
   48. BD ( 1) C  8- H 19     120. RY ( 2) C  9            0.77    1.93   0.049
   49. BD ( 1) C  9-Br 10      71. BD*( 1) C  7- C  8      1.14    1.31   0.049
   49. BD ( 1) C  9-Br 10      79. BD*( 1) C 11- C 12      1.13    1.33   0.049
   49. BD ( 1) C  9-Br 10     115. RY ( 1) C  8            1.32    1.99   0.065
   49. BD ( 1) C  9-Br 10     132. RY ( 1) C 11            1.32    1.99   0.065
   50. BD ( 2) C  9-Br 10      72. BD*( 2) C  7- C  8      7.58    0.47   0.075
   50. BD ( 2) C  9-Br 10      77. BD*( 2) C  9-Br 10      0.67    0.32   0.019
   50. BD ( 2) C  9-Br 10      80. BD*( 2) C 11- C 12      6.62    0.47   0.070
   50. BD ( 2) C  9-Br 10     118. RY ( 4) C  8            0.35    1.30   0.027
   50. BD ( 2) C  9-Br 10     135. RY ( 4) C 11            0.35    1.31   0.027
   51. BD ( 1) C  9- C 11      61. BD*( 1) C  3- C 12      1.41    1.22   0.052
   51. BD ( 1) C  9- C 11      74. BD*( 1) C  8- C  9      1.51    1.38   0.058
   51. BD ( 1) C  9- C 11      75. BD*( 1) C  8- H 19      0.72    1.34   0.039
   51. BD ( 1) C  9- C 11      79. BD*( 1) C 11- C 12      1.24    1.42   0.053
   51. BD ( 1) C  9- C 11      81. BD*( 1) C 11- H 20      0.91    1.33   0.044
   51. BD ( 1) C  9- C 11     115. RY ( 1) C  8            0.73    2.08   0.049
   51. BD ( 1) C  9- C 11     116. RY ( 2) C  8            0.46    1.78   0.036
   51. BD ( 1) C  9- C 11     136. RY ( 1) C 12            0.45    2.21   0.040
   51. BD ( 1) C  9- C 11     137. RY ( 2) C 12            1.08    2.04   0.059
   52. BD ( 1) C 11- C 12      61. BD*( 1) C  3- C 12      1.36    1.20   0.051
   52. BD ( 1) C 11- C 12      66. BD*( 1) C  5- C  6      0.63    1.22   0.035
   52. BD ( 1) C 11- C 12      70. BD*( 1) C  6- C 12      1.78    1.37   0.062
   52. BD ( 1) C 11- C 12      76. BD*( 1) C  9-Br 10      1.75    0.88   0.050
   52. BD ( 1) C 11- C 12      78. BD*( 1) C  9- C 11      1.29    1.35   0.053
   52. BD ( 1) C 11- C 12      81. BD*( 1) C 11- H 20      1.06    1.31   0.047
   52. BD ( 1) C 11- C 12      95. RY ( 1) C  3            0.58    1.90   0.042
   52. BD ( 1) C 11- C 12     107. RY ( 1) C  6            0.67    2.25   0.049
   52. BD ( 1) C 11- C 12     108. RY ( 2) C  6            0.35    1.98   0.033
   52. BD ( 1) C 11- C 12     119. RY ( 1) C  9            0.91    1.80   0.051
   52. BD ( 1) C 11- C 12     120. RY ( 2) C  9            0.43    2.06   0.038
   53. BD ( 2) C 11- C 12      55. LV ( 1) C  6           32.67    0.28   0.120
   53. BD ( 2) C 11- C 12      58. BD*( 3) N  1- C  2      0.56    0.58   0.023
   53. BD ( 2) C 11- C 12      59. BD*( 1) C  2- C  3      1.45    0.91   0.046
   53. BD ( 2) C 11- C 12      62. BD*( 1) C  3- H 13      0.49    0.91   0.027
   53. BD ( 2) C 11- C 12      77. BD*( 2) C  9-Br 10     28.25    0.28   0.112
   53. BD ( 2) C 11- C 12     121. RY ( 3) C  9            0.36    1.27   0.027
   54. BD ( 1) C 11- H 20      61. BD*( 1) C  3- C 12      0.32    1.06   0.023
   54. BD ( 1) C 11- H 20      70. BD*( 1) C  6- C 12      1.58    1.23   0.056
   54. BD ( 1) C 11- H 20      74. BD*( 1) C  8- C  9      1.37    1.21   0.051
   54. BD ( 1) C 11- H 20      76. BD*( 1) C  9-Br 10      0.47    0.74   0.024
   54. BD ( 1) C 11- H 20      78. BD*( 1) C  9- C 11      0.44    1.21   0.029
   54. BD ( 1) C 11- H 20      79. BD*( 1) C 11- C 12      0.75    1.26   0.039
   54. BD ( 1) C 11- H 20     120. RY ( 2) C  9            0.79    1.93   0.049
   54. BD ( 1) C 11- H 20     136. RY ( 1) C 12            0.96    2.05   0.056


 NATURAL BOND ORBITALS (Summary):

                                                     Principal Delocalizations
           NBO                 Occupancy    Energy   (geminal,vicinal,remote)
 ===============================================================================
 Molecular unit  1  (C10H8NBr)
 ------ Lewis --------------------------------------
    1. CR ( 1) N  1             0.99996   -14.46800
    2. CR ( 1) C  2             0.99993   -10.39213
    3. CR ( 1) C  3             0.99987   -10.44538
    4. CR ( 1) C  4             0.99988   -10.40064  101(g)
    5. CR ( 1) C  5             0.99988   -10.41394
    6. CR ( 1) C  6             0.99995   -10.47382
    7. CR ( 1) C  7             0.99992   -10.44668
    8. CR ( 1) C  8             0.99993   -10.45992
    9. CR ( 1) C  9             0.99995   -10.52294
   10. CR ( 1)Br 10             1.00000   -22.63882
   11. CR ( 2)Br 10             1.00000  -449.71345
   12. CR ( 3)Br 10             1.00000   -79.93396
   13. CR ( 4)Br 10             1.00000    -7.36881
   14. CR ( 5)Br 10             0.99999   -55.91712
   15. CR ( 6)Br 10             1.00000    -7.35713
   16. CR ( 7)Br 10             1.00000   -55.91409
   17. CR ( 8)Br 10             1.00000    -7.35863
   18. CR ( 9)Br 10             1.00000   -55.91402
   19. CR (10)Br 10             0.99980    -2.99245
   20. CR (11)Br 10             0.99992    -2.99389
   21. CR (12)Br 10             0.99998    -2.98481
   22. CR (13)Br 10             0.99978    -2.99248  124(g)
   23. CR (14)Br 10             0.99990    -2.98842
   24. CR ( 1) C 11             0.99992   -10.45443
   25. CR ( 1) C 12             0.99994   -10.46102
   26. LP ( 1) N  1             0.98579    -0.60819  91(v),59(v)
   27. LP ( 1)Br 10             0.99867    -0.96148  120(v)
   28. LP ( 2)Br 10             0.99007    -0.55995  74(v),78(v),119(v)
   29. BD ( 1) N  1- C  2       0.99774    -1.07889  59(g),96(v)
   30. BD ( 2) N  1- C  2       0.99436    -0.54936  60(v),62(v)
   31. BD ( 3) N  1- C  2       0.99198    -0.55246  61(v),60(v),80(r)
   32. BD ( 1) C  2- C  3       0.98673    -0.85078  82(v),80(v),56(g),61(g)
                                                     60(g),62(g),99(v),139(v)
                                                     65(v)
   33. BD ( 1) C  3- C  4       0.98252    -0.76487  57(v),79(v),56(v),59(g)
                                                     92(v),58(v),62(g),68(v)
                                                     66(v),61(g),93(v),70(v)
                                                     137(v),80(v),104(v)
   34. BD ( 1) C  3- C 12       0.98216    -0.81387  58(v),79(g),69(v),56(v)
                                                     70(g),132(v),78(v),107(v)
                                                     93(v),59(g),62(g),92(v)
                                                     64(v),63(v),60(g),66(v)
   35. BD ( 1) C  3- H 13       0.97943    -0.73145  57(v),56(v),80(v),63(v)
                                                     70(v),59(g),60(g),58(v)
                                                     94(v),91(v),61(g),92(v)
   36. BD ( 1) C  4- C  5       0.98876    -0.76930  69(v),55(v),62(v),61(v)
                                                     67(g),68(g),70(v),66(g)
                                                     64(g),97(v)
   37. BD ( 1) C  4- H 14       0.99353    -0.71320  66(v),61(v),59(v),105(v)
                                                     65(g)
   38. BD ( 1) C  4- H 15       0.99099    -0.71017  59(v),67(v)
   39. BD ( 1) C  5- C  6       0.98890    -0.81850  79(v),69(g),111(v),70(g)
                                                     71(v),136(v),64(v),61(v)
                                                     60(v),68(g),67(g)
   40. BD ( 1) C  5- H 16       0.95906    -0.71523  55(v),65(v),99(v),110(v)
   41. BD ( 1) C  5- H 17       0.97883    -0.72399  55(v),60(v),70(v),63(g)
                                                     67(g)
   42. BD ( 1) C  6- C  7       0.98921    -0.90903  70(g),66(g),116(v),71(g)
                                                     73(g),61(v),75(v),136(v)
                                                     137(v),103(v),115(v)
   43. BD ( 1) C  6- C 12       0.98540    -0.89763  79(g),69(g),133(v),61(g)
                                                     73(v),66(g),81(v),112(v)
                                                     103(v),111(v),95(v),96(v)
                                                     63(v),99(r)
   44. BD ( 1) C  7- C  8       0.98759    -0.90086  76(v),66(v),108(v),69(g)
                                                     74(g),119(v),75(g),73(g)
                                                     120(v)
   45. BD ( 2) C  7- C  8       0.84814    -0.51404  55(v),77(v),121(v),72(g)
   46. BD ( 1) C  7- H 18       0.99074    -0.76119  70(v),74(v),107(v),115(v)
                                                     69(g),71(g),66(v)
   47. BD ( 1) C  8- C  9       0.99151    -0.93848  78(g),71(g),112(v),75(g)
                                                     81(v),132(v),73(v),111(v)
                                                     133(v)
   48. BD ( 1) C  8- H 19       0.99047    -0.77130  78(v),69(v),120(v),111(v)
                                                     71(g),76(v),74(g)
   49. BD ( 1) C  9-Br 10       0.99364    -0.83935  115(v),132(v),71(v),79(v)
   50. BD ( 2) C  9-Br 10       0.92426    -0.56463  72(v),80(v),77(g),118(v)
                                                     135(v)
   51. BD ( 1) C  9- C 11       0.99063    -0.93375  74(g),61(v),79(g),137(v)
                                                     81(g),115(v),75(v),116(v)
                                                     136(v)
   52. BD ( 1) C 11- C 12       0.98588    -0.90764  70(g),76(v),61(g),78(g)
                                                     81(g),119(v),107(v),66(v)
                                                     95(v),120(v),108(v)
   53. BD ( 2) C 11- C 12       0.85570    -0.52016  55(v),77(v),59(v),58(r)
                                                     62(v),121(v)
   54. BD ( 1) C 11- H 20       0.98986    -0.76898  70(v),74(v),136(v),120(v)
                                                     79(g),76(v),78(g),61(v)
 ------ non-Lewis ----------------------------------
   55. LV ( 1) C  6             0.24676    -0.24252
   56. BD*( 1) N  1- C  2       0.00457     0.85495
   57. BD*( 2) N  1- C  2       0.01177     0.05035
   58. BD*( 3) N  1- C  2       0.01050     0.05846
   59. BD*( 1) C  2- C  3       0.01382     0.38864
   60. BD*( 1) C  3- C  4       0.00841     0.24748
   61. BD*( 1) C  3- C 12       0.01474     0.28925
   62. BD*( 1) C  3- H 13       0.00702     0.39120
   63. BD*( 1) C  4- C  5       0.00386     0.26567
   64. BD*( 1) C  4- H 14       0.00284     0.41311
   65. BD*( 1) C  4- H 15       0.00344     0.39559
   66. BD*( 1) C  5- C  6       0.00978     0.30998
   67. BD*( 1) C  5- H 16       0.00391     0.37786
   68. BD*( 1) C  5- H 17       0.00314     0.38936
   69. BD*( 1) C  6- C  7       0.01016     0.48636
   70. BD*( 1) C  6- C 12       0.01280     0.46359
   71. BD*( 1) C  7- C  8       0.00740     0.46731
   72. BD*( 2) C  7- C  8       0.03148    -0.09878
   73. BD*( 1) C  7- H 18       0.00543     0.40670
   74. BD*( 1) C  8- C  9       0.01070     0.44201
   75. BD*( 1) C  8- H 19       0.00509     0.40192
   76. BD*( 1) C  9-Br 10       0.01280    -0.02415
   77. BD*( 2) C  9-Br 10       0.11765    -0.24084
   78. BD*( 1) C  9- C 11       0.01064     0.44328
   79. BD*( 1) C 11- C 12       0.01126     0.48822
   80. BD*( 2) C 11- C 12       0.04569    -0.09544
   81. BD*( 1) C 11- H 20       0.00582     0.39803
   82. RY ( 1) N  1             0.00196     1.50799
   83. RY ( 2) N  1             0.00004     1.57319
   84. RY ( 3) N  1             0.00002     1.68619
   85. RY ( 4) N  1             0.00001     1.36101
   86. RY ( 5) N  1             0.00001     2.76283
   87. RY ( 6) N  1             0.00001     1.39042
   88. RY ( 7) N  1             0.00000     1.46570
   89. RY ( 8) N  1             0.00000     1.80290
   90. RY ( 9) N  1             0.00000     1.80441
   91. RY ( 1) C  2             0.00776     0.88017
   92. RY ( 2) C  2             0.00183     0.85745
   93. RY ( 3) C  2             0.00094     0.82858
   94. RY ( 4) C  2             0.00058     0.82341
   95. RY ( 1) C  3             0.00131     0.98890
   96. RY ( 2) C  3             0.00095     0.92682
   97. RY ( 3) C  3             0.00061     0.97039
   98. RY ( 4) C  3             0.00020     1.04854
   99. RY ( 1) C  4             0.00136     1.04191
  100. RY ( 2) C  4             0.00046     0.85110
  101. RY ( 3) C  4             0.00033     1.01631
  102. RY ( 4) C  4             0.00025     0.84826
  103. RY ( 1) C  5             0.00124     0.92555
  104. RY ( 2) C  5             0.00063     0.84274
  105. RY ( 3) C  5             0.00044     0.87372
  106. RY ( 4) C  5             0.00010     0.97998
  107. RY ( 1) C  6             0.00205     1.34685
  108. RY ( 2) C  6             0.00156     1.07693
  109. RY ( 3) C  6             0.00053     0.60929
  110. RY ( 4) C  6             0.00021     0.78968
  111. RY ( 1) C  7             0.00258     1.21332
  112. RY ( 2) C  7             0.00180     0.81072
  113. RY ( 3) C  7             0.00019     0.55894
  114. RY ( 4) C  7             0.00005     0.74897
  115. RY ( 1) C  8             0.00286     1.14883
  116. RY ( 2) C  8             0.00167     0.84237
  117. RY ( 3) C  8             0.00025     0.54375
  118. RY ( 4) C  8             0.00017     0.73830
  119. RY ( 1) C  9             0.00358     0.88969
  120. RY ( 2) C  9             0.00250     1.15730
  121. RY ( 3) C  9             0.00059     0.74486
  122. RY ( 4) C  9             0.00017     0.51583
  123. RY ( 1)Br 10             0.00051     0.55467
  124. RY ( 2)Br 10             0.00032     0.92916
  125. RY ( 3)Br 10             0.00021     0.47790
  126. RY ( 4)Br 10             0.00012     0.61899
  127. RY ( 5)Br 10             0.00005     0.73856
  128. RY ( 6)Br 10             0.00003     0.45319
  129. RY ( 7)Br 10             0.00001     0.47814
  130. RY ( 8)Br 10             0.00001     0.58153
  131. RY ( 9)Br 10             0.00001     0.52992
  132. RY ( 1) C 11             0.00298     1.14652
  133. RY ( 2) C 11             0.00193     0.82255
  134. RY ( 3) C 11             0.00030     0.53763
  135. RY ( 4) C 11             0.00016     0.74318
  136. RY ( 1) C 12             0.00230     1.27894
  137. RY ( 2) C 12             0.00175     1.10466
  138. RY ( 3) C 12             0.00062     0.67768
  139. RY ( 4) C 12             0.00058     0.82288
  140. RY ( 1) H 13             0.00056     0.46443
  141. RY ( 1) H 14             0.00035     0.48823
  142. RY ( 1) H 15             0.00062     0.48278
  143. RY ( 1) H 16             0.00042     0.47546
  144. RY ( 1) H 17             0.00037     0.46626
  145. RY ( 1) H 18             0.00036     0.45188
  146. RY ( 1) H 19             0.00053     0.44122
  147. RY ( 1) H 20             0.00053     0.45135
          -------------------------------
                 Total Lewis   53.31109  ( 98.7242%)
           Valence non-Lewis    0.63149  (  1.1694%)
           Rydberg non-Lewis    0.05743  (  0.1063%)
          -------------------------------
               Total unit  1   54.00000  (100.0000%)
              Charge unit  1    1.00000

 $CHOOSE
  ALPHA
   LONE 1 1 10 3 END
   BOND T 1 2 S 2 3 S 3 4 S 3 12 S 3 13 S 4 5 S 4 14 S 4 15 S 5 6 S 5 16 S 5 17
        D 6 7 S 6 12 S 7 8 S 7 18 D 8 9 S 8 19 S 9 10 S 9 11 D 11 12 S 11 20
        END
  END
  BETA
   LONE 1 1 10 2 END
   BOND T 1 2 S 2 3 S 3 4 S 3 12 S 3 13 S 4 5 S 4 14 S 4 15 S 5 6 S 5 16 S 5 17
        S 6 7 S 6 12 D 7 8 S 7 18 S 8 9 S 8 19 D 9 10 S 9 11 D 11 12 S 11 20
        END
  END
 $END

 NBO analysis completed in 1.06 CPU seconds (1 wall second)
 Maximum scratch memory used by NBO was 640950 words (4.89 MB)
 Maximum scratch memory used by G16NBO was 52370 words (0.40 MB)

 Opening RunExU unformatted file "/home/rpaton/opt/midi/fukui/Gau-1692116.EUF"
 Read unf file /home/rpaton/opt/midi/fukui/Gau-1692116.EUF:
 Label Gaussian matrix elements                                         IVers= 2 NLab= 2 Version=ES64L-G16RevC.01
 Title arbr41_wb97xd_popncreated by GaussianPrep                       
 NAtoms=    20 NBasis=   147 NBsUse=   147 ICharg=     1 Multip=     2 NE=   109 Len12L=8 Len4L=8 IOpCl= 1 ICGU=112
 GAUSSIAN SCALARS                    NI= 1 NR= 1 NTot=       1 LenBuf=    2 NRI=1 N=    1000
 NPA CHARGES                         NI= 0 NR= 1 NTot=      20 LenBuf= 2048 NRI=1 N=      20
 Recovered energy= -2999.63797185     dipole=      0.319960161370      1.915207442850      0.804327598795
 Unable to Open any file for archive entry.
 1\1\GINC-DYNAMO\SP\UwB97XD\MIDIx\C10H8Br1N1(1+,2)\RPATON\27-Sep-2024\0
 \\# pop=(nbo6,hirshfeld) wb97xd/midix\\arbr41_wb97xd_popncreated by Ga
 ussianPrep\\1,2\N,0,-3.156538,-2.393419,-1.1888\C,0,-2.81158,-1.672441
 ,-0.356364\C,0,-2.381864,-0.754359,0.709332\C,0,-3.376296,0.451172,0.8
 49638\C,0,-2.81336,1.536368,-0.112546\C,0,-1.330577,1.232653,-0.131437
 \C,0,-0.277196,2.034815,-0.541246\C,0,1.023723,1.538888,-0.48104\C,0,1
 .255398,0.247443,-0.018799\Br,0,3.032195,-0.41258,0.062547\C,0,0.20470
 6,-0.569058,0.388814\C,0,-1.079735,-0.056355,0.32972\H,0,-2.296904,-1.
 313963,1.648479\H,0,-4.408408,0.167013,0.624584\H,0,-3.3272,0.812779,1
 .884096\H,0,-3.241911,1.420965,-1.119251\H,0,-3.038212,2.551299,0.2347
 6\H,0,-0.454234,3.044216,-0.905006\H,0,1.860699,2.156445,-0.791779\H,0
 ,0.395805,-1.579264,0.740151\\Version=ES64L-G16RevC.01\State=2-A\HF=-2
 999.6379718\S2=0.762444\S2-1=0.\S2A=0.750045\RMSD=4.160e-09\Dipole=0.3
 199601,1.9152074,0.8043276\Quadrupole=12.0776279,-3.1602822,-8.9173457
 ,-9.1409531,-5.8845196,-6.615151\PG=C01 [X(C10H8Br1N1)]\\@
 The archive entry for this job was punched.


 Once you get people laughing, they're
 listening and you can tell them almost anything.
                                 -- Herb Gardner
 Job cpu time:       0 days  0 hours  8 minutes 46.1 seconds.
 Elapsed time:       0 days  0 hours  0 minutes 22.2 seconds.
 File lengths (MBytes):  RWF=     26 Int=      0 D2E=      0 Chk=      3 Scr=      1
 Normal termination of Gaussian 16 at Fri Sep 27 17:43:58 2024.
