 Entering Gaussian System, Link 0=/usr/local/Gaussian/G16C/g16/g16
 Input=arbr48_wb97xd_oxd.com
 Output=arbr48_wb97xd_oxd.log
 Initial command:
 /usr/local/Gaussian/G16C/g16/l1.exe "/home/rpaton/opt/midi/fukui/Gau-1704569.inp" -scrdir="/home/rpaton/opt/midi/fukui/"
 Entering Link 1 = /usr/local/Gaussian/G16C/g16/l1.exe PID=   1704570.
  
 Copyright (c) 1988-2019, Gaussian, Inc.  All Rights Reserved.
  
 This is part of the Gaussian(R) 16 program.  It is based on
 the Gaussian(R) 09 system (copyright 2009, Gaussian, Inc.),
 the Gaussian(R) 03 system (copyright 2003, Gaussian, Inc.),
 the Gaussian(R) 98 system (copyright 1998, Gaussian, Inc.),
 the Gaussian(R) 94 system (copyright 1995, Gaussian, Inc.),
 the Gaussian 92(TM) system (copyright 1992, Gaussian, Inc.),
 the Gaussian 90(TM) system (copyright 1990, Gaussian, Inc.),
 the Gaussian 88(TM) system (copyright 1988, Gaussian, Inc.),
 the Gaussian 86(TM) system (copyright 1986, Carnegie Mellon
 University), and the Gaussian 82(TM) system (copyright 1983,
 Carnegie Mellon University). Gaussian is a federally registered
 trademark of Gaussian, Inc.
  
 This software contains proprietary and confidential information,
 including trade secrets, belonging to Gaussian, Inc.
  
 This software is provided under written license and may be
 used, copied, transmitted, or stored only in accord with that
 written license.
  
 The following legend is applicable only to US Government
 contracts under FAR:
  
                    RESTRICTED RIGHTS LEGEND
  
 Use, reproduction and disclosure by the US Government is
 subject to restrictions as set forth in subparagraphs (a)
 and (c) of the Commercial Computer Software - Restricted
 Rights clause in FAR 52.227-19.
  
 Gaussian, Inc.
 340 Quinnipiac St., Bldg. 40, Wallingford CT 06492
  
  
 ---------------------------------------------------------------
 Warning -- This program may not be used in any manner that
 competes with the business of Gaussian, Inc. or will provide
 assistance to any competitor of Gaussian, Inc.  The licensee
 of this program is prohibited from giving any competitor of
 Gaussian, Inc. access to this program.  By using this program,
 the user acknowledges that Gaussian, Inc. is engaged in the
 business of creating and licensing software in the field of
 computational chemistry and represents and warrants to the
 licensee that it is not a competitor of Gaussian, Inc. and that
 it will not use this program in any manner prohibited above.
 ---------------------------------------------------------------
  

 Cite this work as:
 Gaussian 16, Revision C.01,
 M. J. Frisch, G. W. Trucks, H. B. Schlegel, G. E. Scuseria, 
 M. A. Robb, J. R. Cheeseman, G. Scalmani, V. Barone, 
 G. A. Petersson, H. Nakatsuji, X. Li, M. Caricato, A. V. Marenich, 
 J. Bloino, B. G. Janesko, R. Gomperts, B. Mennucci, H. P. Hratchian, 
 J. V. Ortiz, A. F. Izmaylov, J. L. Sonnenberg, D. Williams-Young, 
 F. Ding, F. Lipparini, F. Egidi, J. Goings, B. Peng, A. Petrone, 
 T. Henderson, D. Ranasinghe, V. G. Zakrzewski, J. Gao, N. Rega, 
 G. Zheng, W. Liang, M. Hada, M. Ehara, K. Toyota, R. Fukuda, 
 J. Hasegawa, M. Ishida, T. Nakajima, Y. Honda, O. Kitao, H. Nakai, 
 T. Vreven, K. Throssell, J. A. Montgomery, Jr., J. E. Peralta, 
 F. Ogliaro, M. J. Bearpark, J. J. Heyd, E. N. Brothers, K. N. Kudin, 
 V. N. Staroverov, T. A. Keith, R. Kobayashi, J. Normand, 
 K. Raghavachari, A. P. Rendell, J. C. Burant, S. S. Iyengar, 
 J. Tomasi, M. Cossi, J. M. Millam, M. Klene, C. Adamo, R. Cammi, 
 J. W. Ochterski, R. L. Martin, K. Morokuma, O. Farkas, 
 J. B. Foresman, and D. J. Fox, Gaussian, Inc., Wallingford CT, 2019.
 
 ******************************************
 Gaussian 16:  ES64L-G16RevC.01  3-Jul-2019
                27-Sep-2024 
 ******************************************
 %chk=arbr48_wb97xd_popn.chk
 %mem=48GB
 %nprocshared=24
 Will use up to   24 processors via shared memory.
 -----------------------------------
 # pop=(nbo6,hirshfeld) wb97xd/midix
 -----------------------------------
 1/38=1,172=1/1;
 2/12=2,17=6,18=5,40=1/2;
 3/5=20,11=2,25=1,30=1,74=-58/1,2,3;
 4//1;
 5/5=2,38=5/2;
 6/7=2,8=2,9=2,10=2,28=1,40=1,79=1,113=1,114=1,124=3103,126=1/1,12;
 99/5=1,9=1/99;
 -----------------------------------------
 arbr48_wb97xd_popncreated by GaussianPrep
 -----------------------------------------
 Symbolic Z-matrix:
 Charge =  1 Multiplicity = 2
 Br                    3.50937  -0.90173   0.01261 
 C                     1.83537  -0.00802  -0.00507 
 C                     0.66404  -0.75454  -0.00264 
 C                    -0.57897  -0.12123  -0.01064 
 I                    -2.36455  -1.21507  -0.00202 
 C                    -0.60592   1.26549  -0.02 
 C                     0.57156   2.01138  -0.02706 
 C                     1.80092   1.38691  -0.02123 
 C                     0.20605   3.47488  -0.0859 
 C                    -1.33702   3.41304   0.13389 
 O                    -1.74082   2.01669  -0.03345 
 H                     0.71737  -1.83816   0.00899 
 H                     2.72436   1.95876  -0.0306 
 H                     0.70009   4.06877   0.6915 
 H                     0.45878   3.90924  -1.0623 
 H                    -1.90385   4.00127  -0.59211 
 H                    -1.61339   3.71845   1.15007 
 
                          Input orientation:                          
 ---------------------------------------------------------------------
 Center     Atomic      Atomic             Coordinates (Angstroms)
 Number     Number       Type             X           Y           Z
 ---------------------------------------------------------------------
      1         35           0        3.509371   -0.901726    0.012605
      2          6           0        1.835367   -0.008024   -0.005071
      3          6           0        0.664042   -0.754539   -0.002642
      4          6           0       -0.578970   -0.121234   -0.010640
      5         53           0       -2.364548   -1.215072   -0.002022
      6          6           0       -0.605917    1.265492   -0.019999
      7          6           0        0.571558    2.011383   -0.027059
      8          6           0        1.800922    1.386907   -0.021227
      9          6           0        0.206050    3.474880   -0.085903
     10          6           0       -1.337016    3.413036    0.133889
     11          8           0       -1.740816    2.016687   -0.033451
     12          1           0        0.717370   -1.838164    0.008993
     13          1           0        2.724363    1.958760   -0.030600
     14          1           0        0.700088    4.068766    0.691502
     15          1           0        0.458775    3.909235   -1.062298
     16          1           0       -1.903847    4.001275   -0.592113
     17          1           0       -1.613391    3.718445    1.150065
 ---------------------------------------------------------------------
                    Distance matrix (angstroms):
                    1          2          3          4          5
     1  Br   0.000000
     2  C    1.897710   0.000000
     3  C    2.849174   1.388990   0.000000
     4  C    4.162240   2.416996   1.395069   0.000000
     5  I    5.882289   4.369927   3.063405   2.094002   0.000000
     6  C    4.651182   2.753531   2.386131   1.387019   3.040774
     7  C    4.137454   2.382373   2.767575   2.423229   4.362494
     8  C    2.856183   1.395450   2.424589   2.817532   4.911395
     9  C    5.484188   3.846015   4.254959   3.681570   5.348893
    10  C    6.489942   4.667652   4.625101   3.617539   4.742750
    11  O    6.006973   4.109665   3.669330   2.433334   3.291549
    12  H    2.944860   2.144651   1.084999   2.151449   3.144294
    13  H    2.966561   2.158519   3.407007   3.903688   5.997586
    14  H    5.749675   4.288856   4.873131   4.436789   6.147513
    15  H    5.797146   4.284583   4.787044   4.292736   5.945911
    16  H    7.328576   5.513694   5.436846   4.369038   5.269794
    17  H    6.991601   5.207191   5.150051   4.142511   5.121634
                    6          7          8          9         10
     6  C    0.000000
     7  C    1.393862   0.000000
     8  C    2.409900   1.378891   0.000000
     9  C    2.354789   1.509597   2.628199   0.000000
    10  C    2.273793   2.373434   3.738437   1.559867   0.000000
    11  O    1.361055   2.312389   3.597316   2.432975   1.463164
    12  H    3.374109   3.852476   3.402364   5.338435   5.640142
    13  H    3.401690   2.153451   1.086208   2.939996   4.317033
    14  H    3.173362   2.183043   2.985328   1.095962   2.211494
    15  H    3.034688   2.164782   3.040942   1.098126   2.214033
    16  H    3.081630   3.225924   4.570136   2.232713   1.092887
    17  H    2.898453   3.012256   4.297153   2.212986   1.096481
                   11         12         13         14         15
    11  O    0.000000
    12  H    4.572128   0.000000
    13  H    4.465556   4.294906   0.000000
    14  H    3.270260   5.946254   3.011851   0.000000
    15  H    3.078712   5.852105   3.162537   1.777497   0.000000
    16  H    2.068157   6.428931   5.089940   2.903911   2.410711
    17  H    2.076759   6.132732   4.827688   2.384364   3.037239
                   16         17
    16  H    0.000000
    17  H    1.788726   0.000000
 Stoichiometry    C8H6BrIO(1+,2)
 Framework group  C1[X(C8H6BrIO)]
 Deg. of freedom    45
 Full point group                 C1      NOp   1
 Largest Abelian subgroup         C1      NOp   1
 Largest concise Abelian subgroup C1      NOp   1
                         Standard orientation:                         
 ---------------------------------------------------------------------
 Center     Atomic      Atomic             Coordinates (Angstroms)
 Number     Number       Type             X           Y           Z
 ---------------------------------------------------------------------
      1         35           0        3.509371   -0.901727    0.012605
      2          6           0        1.835367   -0.008024   -0.005071
      3          6           0        0.664042   -0.754539   -0.002642
      4          6           0       -0.578970   -0.121234   -0.010640
      5         53           0       -2.364548   -1.215071   -0.002022
      6          6           0       -0.605917    1.265492   -0.019999
      7          6           0        0.571559    2.011383   -0.027059
      8          6           0        1.800922    1.386907   -0.021227
      9          6           0        0.206051    3.474880   -0.085903
     10          6           0       -1.337015    3.413036    0.133889
     11          8           0       -1.740815    2.016688   -0.033451
     12          1           0        0.717370   -1.838164    0.008993
     13          1           0        2.724364    1.958759   -0.030600
     14          1           0        0.700089    4.068766    0.691502
     15          1           0        0.458776    3.909235   -1.062298
     16          1           0       -1.903846    4.001276   -0.592113
     17          1           0       -1.613390    3.718446    1.150065
 ---------------------------------------------------------------------
 Rotational constants (GHZ):           0.6617416           0.2706318           0.1926138
 Standard basis: MIDIx (5D, 7F)
 There are   167 symmetry adapted cartesian basis functions of A   symmetry.
 There are   161 symmetry adapted basis functions of A   symmetry.
   161 basis functions,   315 primitive gaussians,   167 cartesian basis functions
    75 alpha electrons       74 beta electrons
       nuclear repulsion energy      1335.0862353240 Hartrees.
 NAtoms=   17 NActive=   17 NUniq=   17 SFac= 1.00D+00 NAtFMM=   60 NAOKFM=F Big=F
 Integral buffers will be    131072 words long.
 Raffenetti 2 integral format.
 Two-electron integral symmetry is turned on.
 Nuclear repulsion after empirical dispersion term =     1335.0755879092 Hartrees.
 One-electron integrals computed using PRISM.
 NBasis=   161 RedAO= T EigKep=  1.09D-03  NBF=   161
 NBsUse=   161 1.00D-06 EigRej= -1.00D+00 NBFU=   161
 Defaulting to unpruned grid for atomic number  53.
 ExpMin= 1.15D-01 ExpMax= 1.44D+04 ExpMxC= 1.44D+04 IAcc=3 IRadAn=         5 AccDes= 0.00D+00
 Harris functional with IExCor= 4639 and IRadAn=       5 diagonalized for initial guess.
 HarFok:  IExCor= 4639 AccDes= 0.00D+00 IRadAn=         5 IDoV= 1 UseB2=F ITyADJ=14
 ICtDFT=  3500011 ScaDFX=  1.000000  1.000000  1.000000  1.000000
 Defaulting to unpruned grid for atomic number  53.
 FoFCou: FMM=F IPFlag=           0 FMFlag=      100000 FMFlg1=           0
         NFxFlg=           0 DoJE=T BraDBF=F KetDBF=T FulRan=T
         wScrn=  0.000000 ICntrl=       500 IOpCl=  0 I1Cent=   200000004 NGrid=           0
         NMat0=    1 NMatS0=      1 NMatT0=    0 NMatD0=    1 NMtDS0=    0 NMtDT0=    0
 Petite list used in FoFCou.
 Initial guess <Sx>= 0.0000 <Sy>= 0.0000 <Sz>= 0.5000 <S**2>= 0.7500 S= 0.5000
 Requested convergence on RMS density matrix=1.00D-08 within 128 cycles.
 Requested convergence on MAX density matrix=1.00D-06.
 Requested convergence on             energy=1.00D-06.
 No special actions if energy rises.
 Integral accuracy reduced to 1.0D-05 until final iterations.
 Defaulting to unpruned grid for atomic number  53.
 Defaulting to unpruned grid for atomic number  53.
 Defaulting to unpruned grid for atomic number  53.
 Defaulting to unpruned grid for atomic number  53.
 Defaulting to unpruned grid for atomic number  53.
 Defaulting to unpruned grid for atomic number  53.
 Defaulting to unpruned grid for atomic number  53.
 Defaulting to unpruned grid for atomic number  53.
 Defaulting to unpruned grid for atomic number  53.
 Defaulting to unpruned grid for atomic number  53.
 Defaulting to unpruned grid for atomic number  53.
 Defaulting to unpruned grid for atomic number  53.
 Defaulting to unpruned grid for atomic number  53.
 Defaulting to unpruned grid for atomic number  53.
 Defaulting to unpruned grid for atomic number  53.
 Defaulting to unpruned grid for atomic number  53.
 Defaulting to unpruned grid for atomic number  53.
 Defaulting to unpruned grid for atomic number  53.
 Defaulting to unpruned grid for atomic number  53.
 Defaulting to unpruned grid for atomic number  53.
 Defaulting to unpruned grid for atomic number  53.
 Defaulting to unpruned grid for atomic number  53.
 Defaulting to unpruned grid for atomic number  53.
 Defaulting to unpruned grid for atomic number  53.
 Initial convergence to 1.0D-05 achieved.  Increase integral accuracy.
 SCF Done:  E(UwB97XD) =  -9833.34755088     A.U. after   31 cycles
            NFock= 31  Conv=0.84D-08     -V/T= 1.9995
 <Sx>= 0.0000 <Sy>= 0.0000 <Sz>= 0.5000 <S**2>= 0.7670 S= 0.5084
 <L.S>= 0.000000000000E+00
 Annihilation of the first spin contaminant:
 S**2 before annihilation     0.7670,   after     0.7502

 **********************************************************************

            Population analysis using the SCF Density.

 **********************************************************************

 Orbital symmetries:
 Alpha Orbitals:
       Occupied  (A) (A) (A) (A) (A) (A) (A) (A) (A) (A) (A) (A)
                 (A) (A) (A) (A) (A) (A) (A) (A) (A) (A) (A) (A)
                 (A) (A) (A) (A) (A) (A) (A) (A) (A) (A) (A) (A)
                 (A) (A) (A) (A) (A) (A) (A) (A) (A) (A) (A) (A)
                 (A) (A) (A) (A) (A) (A) (A) (A) (A) (A) (A) (A)
                 (A) (A) (A) (A) (A) (A) (A) (A) (A) (A) (A) (A)
                 (A) (A) (A)
       Virtual   (A) (A) (A) (A) (A) (A) (A) (A) (A) (A) (A) (A)
                 (A) (A) (A) (A) (A) (A) (A) (A) (A) (A) (A) (A)
                 (A) (A) (A) (A) (A) (A) (A) (A) (A) (A) (A) (A)
                 (A) (A) (A) (A) (A) (A) (A) (A) (A) (A) (A) (A)
                 (A) (A) (A) (A) (A) (A) (A) (A) (A) (A) (A) (A)
                 (A) (A) (A) (A) (A) (A) (A) (A) (A) (A) (A) (A)
                 (A) (A) (A) (A) (A) (A) (A) (A) (A) (A) (A) (A)
                 (A) (A)
 Beta  Orbitals:
       Occupied  (A) (A) (A) (A) (A) (A) (A) (A) (A) (A) (A) (A)
                 (A) (A) (A) (A) (A) (A) (A) (A) (A) (A) (A) (A)
                 (A) (A) (A) (A) (A) (A) (A) (A) (A) (A) (A) (A)
                 (A) (A) (A) (A) (A) (A) (A) (A) (A) (A) (A) (A)
                 (A) (A) (A) (A) (A) (A) (A) (A) (A) (A) (A) (A)
                 (A) (A) (A) (A) (A) (A) (A) (A) (A) (A) (A) (A)
                 (A) (A)
       Virtual   (A) (A) (A) (A) (A) (A) (A) (A) (A) (A) (A) (A)
                 (A) (A) (A) (A) (A) (A) (A) (A) (A) (A) (A) (A)
                 (A) (A) (A) (A) (A) (A) (A) (A) (A) (A) (A) (A)
                 (A) (A) (A) (A) (A) (A) (A) (A) (A) (A) (A) (A)
                 (A) (A) (A) (A) (A) (A) (A) (A) (A) (A) (A) (A)
                 (A) (A) (A) (A) (A) (A) (A) (A) (A) (A) (A) (A)
                 (A) (A) (A) (A) (A) (A) (A) (A) (A) (A) (A) (A)
                 (A) (A) (A)
 The electronic state is 2-A.
 Alpha  occ. eigenvalues -- **********-480.31892-176.07366-164.81470-164.81226
 Alpha  occ. eigenvalues -- -164.81186 -62.75220 -56.34131 -56.33740 -56.33656
 Alpha  occ. eigenvalues --  -36.09867 -31.25849 -31.25341 -31.25205 -23.19880
 Alpha  occ. eigenvalues --  -23.19643 -23.19588 -23.19156 -23.19155 -19.42825
 Alpha  occ. eigenvalues --  -10.52462 -10.49382 -10.48241 -10.46894 -10.45358
 Alpha  occ. eigenvalues --  -10.43995 -10.43642 -10.42266  -9.06052  -6.84548
 Alpha  occ. eigenvalues --   -6.83241  -6.82937  -6.65584  -4.95852  -4.94446
 Alpha  occ. eigenvalues --   -4.94123  -2.94862  -2.94435  -2.94240  -2.93116
 Alpha  occ. eigenvalues --   -2.93111  -2.32378  -2.31939  -2.31703  -2.30443
 Alpha  occ. eigenvalues --   -2.30433  -1.40120  -1.19305  -1.10252  -1.09901
 Alpha  occ. eigenvalues --   -1.03322  -1.01728  -0.94487  -0.91764  -0.88555
 Alpha  occ. eigenvalues --   -0.86377  -0.79738  -0.78501  -0.77079  -0.73787
 Alpha  occ. eigenvalues --   -0.69843  -0.68776  -0.67712  -0.67431  -0.66829
 Alpha  occ. eigenvalues --   -0.63762  -0.61877  -0.61680  -0.59616  -0.56696
 Alpha  occ. eigenvalues --   -0.53400  -0.52425  -0.49055  -0.48837  -0.47504
 Alpha virt. eigenvalues --   -0.13343  -0.12591  -0.12020  -0.07180   0.01249
 Alpha virt. eigenvalues --    0.02900   0.04560   0.05483   0.07374   0.08610
 Alpha virt. eigenvalues --    0.09845   0.11349   0.13305   0.15342   0.17340
 Alpha virt. eigenvalues --    0.20604   0.22453   0.23692   0.25428   0.27781
 Alpha virt. eigenvalues --    0.33001   0.34631   0.35264   0.36175   0.38460
 Alpha virt. eigenvalues --    0.41634   0.42824   0.44430   0.47571   0.47859
 Alpha virt. eigenvalues --    0.47978   0.48118   0.48696   0.49140   0.50336
 Alpha virt. eigenvalues --    0.52178   0.52816   0.54247   0.55584   0.55928
 Alpha virt. eigenvalues --    0.58533   0.62798   0.65608   0.66284   0.68027
 Alpha virt. eigenvalues --    0.70147   0.71342   0.72790   0.73186   0.75881
 Alpha virt. eigenvalues --    0.76836   0.77847   0.78979   0.82617   0.83294
 Alpha virt. eigenvalues --    0.84633   0.84734   0.85891   0.87205   0.88211
 Alpha virt. eigenvalues --    0.89655   0.91665   0.94310   0.95868   0.97460
 Alpha virt. eigenvalues --    0.98141   1.01530   1.07905   1.09547   1.15427
 Alpha virt. eigenvalues --    1.23228   1.28449   1.30952   1.36379   1.42934
 Alpha virt. eigenvalues --    1.46618   1.51675   1.60660   1.69638   1.70499
 Alpha virt. eigenvalues --    1.76479   1.81849   1.83636   2.04538   2.24059
 Alpha virt. eigenvalues --    2.46461
  Beta  occ. eigenvalues -- **********-480.31860-176.07355-164.81464-164.81186
  Beta  occ. eigenvalues -- -164.81178 -62.75198 -56.34121 -56.33656 -56.33640
  Beta  occ. eigenvalues --  -36.09850 -31.25842 -31.25284 -31.25196 -23.19870
  Beta  occ. eigenvalues --  -23.19620 -23.19586 -23.19133 -23.19131 -19.42182
  Beta  occ. eigenvalues --  -10.52235 -10.49069 -10.48073 -10.46904 -10.45258
  Beta  occ. eigenvalues --  -10.44025 -10.43739 -10.42268  -9.06008  -6.84538
  Beta  occ. eigenvalues --   -6.83114  -6.82918  -6.65545  -4.95845  -4.94349
  Beta  occ. eigenvalues --   -4.94112  -2.94839  -2.94381  -2.94235  -2.93060
  Beta  occ. eigenvalues --   -2.93058  -2.32358  -2.31891  -2.31699  -2.30396
  Beta  occ. eigenvalues --   -2.30388  -1.38692  -1.18652  -1.09861  -1.09140
  Beta  occ. eigenvalues --   -1.03204  -1.01124  -0.94202  -0.91345  -0.88096
  Beta  occ. eigenvalues --   -0.85841  -0.79434  -0.77857  -0.75939  -0.73436
  Beta  occ. eigenvalues --   -0.69536  -0.67743  -0.67135  -0.66491  -0.65764
  Beta  occ. eigenvalues --   -0.63442  -0.61631  -0.59618  -0.59319  -0.54930
  Beta  occ. eigenvalues --   -0.52240  -0.50978  -0.48862  -0.46689
  Beta virt. eigenvalues --   -0.29280  -0.11914  -0.11664  -0.10069  -0.06682
  Beta virt. eigenvalues --    0.01549   0.03671   0.04705   0.05663   0.07934
  Beta virt. eigenvalues --    0.08731   0.09874   0.11531   0.13634   0.15422
  Beta virt. eigenvalues --    0.17599   0.20840   0.22756   0.23972   0.25705
  Beta virt. eigenvalues --    0.27929   0.33100   0.34857   0.35359   0.36320
  Beta virt. eigenvalues --    0.38586   0.41845   0.42931   0.44713   0.48311
  Beta virt. eigenvalues --    0.48399   0.48584   0.48679   0.49253   0.49805
  Beta virt. eigenvalues --    0.50773   0.52354   0.53019   0.54488   0.55859
  Beta virt. eigenvalues --    0.56422   0.58706   0.63073   0.65856   0.66722
  Beta virt. eigenvalues --    0.68221   0.70346   0.71552   0.72949   0.73631
  Beta virt. eigenvalues --    0.76074   0.76878   0.78073   0.79231   0.82670
  Beta virt. eigenvalues --    0.83386   0.84733   0.85111   0.86310   0.87265
  Beta virt. eigenvalues --    0.88501   0.89930   0.91827   0.94623   0.96029
  Beta virt. eigenvalues --    0.97736   0.98368   1.01615   1.08094   1.09764
  Beta virt. eigenvalues --    1.15740   1.23468   1.28605   1.31347   1.36967
  Beta virt. eigenvalues --    1.43090   1.48895   1.51997   1.61025   1.70771
  Beta virt. eigenvalues --    1.71007   1.77159   1.82716   1.84805   2.04885
  Beta virt. eigenvalues --    2.25026   2.47066
          Condensed to atoms (all electrons):
               1          2          3          4          5          6
     1  Br  34.690741   0.242087  -0.037209   0.001589  -0.000068   0.000354
     2  C    0.242087   5.059977   0.438558  -0.029353   0.001759  -0.026117
     3  C   -0.037209   0.438558   5.034151   0.453853  -0.040041  -0.038031
     4  C    0.001589  -0.029353   0.453853   5.270206   0.276952   0.367693
     5  I   -0.000068   0.001759  -0.040041   0.276952  52.389120  -0.038984
     6  C    0.000354  -0.026117  -0.038031   0.367693  -0.038984   4.738503
     7  C    0.001964  -0.028561  -0.031387  -0.033944   0.002756   0.434126
     8  C   -0.037063   0.428579  -0.044163  -0.020003  -0.000105  -0.028825
     9  C   -0.000007   0.000023   0.000357   0.000930   0.000048  -0.061073
    10  C    0.000000  -0.000012  -0.000276   0.007572  -0.000238  -0.063432
    11  O    0.000000   0.000057   0.001521  -0.042667   0.001616   0.297136
    12  H    0.001045  -0.011863   0.375726  -0.010051   0.000992   0.002073
    13  H    0.001117  -0.012504   0.001896   0.000007   0.000006   0.001770
    14  H   -0.000000   0.000059   0.000001  -0.000003  -0.000000   0.002539
    15  H    0.000000   0.000047   0.000005  -0.000053  -0.000001   0.000826
    16  H   -0.000000   0.000000   0.000005  -0.000077   0.000003   0.002113
    17  H   -0.000000   0.000003   0.000004  -0.000119   0.000031   0.000201
               7          8          9         10         11         12
     1  Br   0.001964  -0.037063  -0.000007   0.000000   0.000000   0.001045
     2  C   -0.028561   0.428579   0.000023  -0.000012   0.000057  -0.011863
     3  C   -0.031387  -0.044163   0.000357  -0.000276   0.001521   0.375726
     4  C   -0.033944  -0.020003   0.000930   0.007572  -0.042667  -0.010051
     5  I    0.002756  -0.000105   0.000048  -0.000238   0.001616   0.000992
     6  C    0.434126  -0.028825  -0.061073  -0.063432   0.297136   0.002073
     7  C    5.230464   0.448652   0.235610  -0.069917  -0.044785   0.000123
     8  C    0.448652   4.945238   0.009288   0.002382   0.001741   0.001846
     9  C    0.235610   0.009288   5.264667   0.307460  -0.031674   0.000003
    10  C   -0.069917   0.002382   0.307460   5.027043   0.137412   0.000001
    11  O   -0.044785   0.001741  -0.031674   0.137412   8.244095  -0.000010
    12  H    0.000123   0.001846   0.000003   0.000001  -0.000010   0.364771
    13  H   -0.006310   0.373720  -0.002973  -0.000017  -0.000015  -0.000036
    14  H   -0.018421  -0.003436   0.378289  -0.025751   0.001287  -0.000000
    15  H   -0.020270  -0.004188   0.378601  -0.026749   0.000850  -0.000000
    16  H    0.003528   0.000005  -0.028811   0.380603  -0.014200  -0.000000
    17  H    0.001506  -0.000075  -0.031429   0.377223  -0.015627  -0.000000
              13         14         15         16         17
     1  Br   0.001117  -0.000000   0.000000  -0.000000  -0.000000
     2  C   -0.012504   0.000059   0.000047   0.000000   0.000003
     3  C    0.001896   0.000001   0.000005   0.000005   0.000004
     4  C    0.000007  -0.000003  -0.000053  -0.000077  -0.000119
     5  I    0.000006  -0.000000  -0.000001   0.000003   0.000031
     6  C    0.001770   0.002539   0.000826   0.002113   0.000201
     7  C   -0.006310  -0.018421  -0.020270   0.003528   0.001506
     8  C    0.373720  -0.003436  -0.004188   0.000005  -0.000075
     9  C   -0.002973   0.378289   0.378601  -0.028811  -0.031429
    10  C   -0.000017  -0.025751  -0.026749   0.380603   0.377223
    11  O   -0.000015   0.001287   0.000850  -0.014200  -0.015627
    12  H   -0.000036  -0.000000  -0.000000  -0.000000  -0.000000
    13  H    0.369717   0.000538   0.000282  -0.000000  -0.000000
    14  H    0.000538   0.404263  -0.017816   0.001535  -0.003210
    15  H    0.000282  -0.017816   0.404060  -0.003292   0.002187
    16  H   -0.000000   0.001535  -0.003292   0.408641  -0.021947
    17  H   -0.000000  -0.003210   0.002187  -0.021947   0.419376
          Atomic-Atomic Spin Densities.
               1          2          3          4          5          6
     1  Br   0.141585  -0.037292  -0.000676   0.000210  -0.000010   0.000023
     2  C   -0.037292   0.263469   0.016877  -0.006932   0.000327  -0.003892
     3  C   -0.000676   0.016877  -0.102484  -0.013210   0.003863  -0.005212
     4  C    0.000210  -0.006932  -0.013210   0.141135  -0.030010   0.044028
     5  I   -0.000010   0.000327   0.003863  -0.030010   0.152694  -0.005438
     6  C    0.000023  -0.003892  -0.005212   0.044028  -0.005438   0.166005
     7  C    0.000228  -0.008101  -0.000118  -0.001078  -0.000158   0.040274
     8  C   -0.002183   0.028143  -0.000817  -0.001163   0.000031  -0.005195
     9  C   -0.000000   0.000106  -0.000012   0.000038   0.000003  -0.004605
    10  C    0.000000  -0.000004  -0.000002  -0.000006  -0.000009   0.002755
    11  O   -0.000000   0.000021   0.000065  -0.003310   0.001660  -0.065300
    12  H   -0.000050  -0.000168   0.001161   0.000094  -0.000117   0.000015
    13  H   -0.000011  -0.000315  -0.000002  -0.000006  -0.000000   0.000029
    14  H   -0.000000   0.000009   0.000002  -0.000010   0.000001  -0.000190
    15  H   -0.000001   0.000027   0.000002  -0.000013   0.000002  -0.000562
    16  H    0.000000  -0.000000  -0.000000   0.000005  -0.000005   0.000277
    17  H    0.000000  -0.000002  -0.000002   0.000039  -0.000025   0.001461
               7          8          9         10         11         12
     1  Br   0.000228  -0.002183  -0.000000   0.000000  -0.000000  -0.000050
     2  C   -0.008101   0.028143   0.000106  -0.000004   0.000021  -0.000168
     3  C   -0.000118  -0.000817  -0.000012  -0.000002   0.000065   0.001161
     4  C   -0.001078  -0.001163   0.000038  -0.000006  -0.003310   0.000094
     5  I   -0.000158   0.000031   0.000003  -0.000009   0.001660  -0.000117
     6  C    0.040274  -0.005195  -0.004605   0.002755  -0.065300   0.000015
     7  C    0.092669  -0.023380  -0.008461   0.001332  -0.004733  -0.000006
     8  C   -0.023380  -0.035154   0.000811  -0.000019   0.000115   0.000007
     9  C   -0.008461   0.000811  -0.004042   0.001232   0.001581  -0.000000
    10  C    0.001332  -0.000019   0.001232  -0.009549  -0.012814  -0.000000
    11  O   -0.004733   0.000115   0.001581  -0.012814   0.344569  -0.000000
    12  H   -0.000006   0.000007  -0.000000  -0.000000  -0.000000   0.002285
    13  H   -0.000016   0.000648   0.000032   0.000000  -0.000000  -0.000000
    14  H   -0.001191   0.000220   0.002958  -0.000412   0.000050  -0.000000
    15  H   -0.002927   0.000323   0.004009  -0.000580   0.000316   0.000000
    16  H    0.000071  -0.000004   0.000383   0.002389  -0.000997  -0.000000
    17  H    0.000551  -0.000032  -0.001997   0.004720  -0.003097   0.000000
              13         14         15         16         17
     1  Br  -0.000011  -0.000000  -0.000001   0.000000   0.000000
     2  C   -0.000315   0.000009   0.000027  -0.000000  -0.000002
     3  C   -0.000002   0.000002   0.000002  -0.000000  -0.000002
     4  C   -0.000006  -0.000010  -0.000013   0.000005   0.000039
     5  I   -0.000000   0.000001   0.000002  -0.000005  -0.000025
     6  C    0.000029  -0.000190  -0.000562   0.000277   0.001461
     7  C   -0.000016  -0.001191  -0.002927   0.000071   0.000551
     8  C    0.000648   0.000220   0.000323  -0.000004  -0.000032
     9  C    0.000032   0.002958   0.004009   0.000383  -0.001997
    10  C    0.000000  -0.000412  -0.000580   0.002389   0.004720
    11  O   -0.000000   0.000050   0.000316  -0.000997  -0.003097
    12  H   -0.000000  -0.000000   0.000000  -0.000000   0.000000
    13  H    0.000199   0.000006  -0.000013   0.000000  -0.000000
    14  H    0.000006   0.006723  -0.001649   0.000173  -0.000703
    15  H   -0.000013  -0.001649   0.012415  -0.000529   0.000303
    16  H    0.000000   0.000173  -0.000529   0.005745  -0.001386
    17  H   -0.000000  -0.000703   0.000303  -0.001386   0.016049
 Mulliken charges and spin densities:
               1          2
     1  Br   0.135450   0.101823
     2  C   -0.062739   0.252273
     3  C   -0.114968  -0.100566
     4  C   -0.242533   0.129810
     5  I    0.406153   0.122807
     6  C    0.409127   0.164473
     7  C   -0.105133   0.084955
     8  C   -0.073593  -0.037649
     9  C   -0.419307  -0.007966
    10  C   -0.053303  -0.010968
    11  O   -0.536738   0.258126
    12  H    0.275380   0.003220
    13  H    0.272802   0.000551
    14  H    0.280126   0.005987
    15  H    0.285509   0.011123
    16  H    0.271894   0.006122
    17  H    0.271875   0.015878
 Sum of Mulliken charges =   1.00000   1.00000
 Mulliken charges and spin densities with hydrogens summed into heavy atoms:
               1          2
     1  Br   0.135450   0.101823
     2  C   -0.062739   0.252273
     3  C    0.160411  -0.097345
     4  C   -0.242533   0.129810
     5  I    0.406153   0.122807
     6  C    0.409127   0.164473
     7  C   -0.105133   0.084955
     8  C    0.199208  -0.037098
     9  C    0.146328   0.009144
    10  C    0.490466   0.011033
    11  O   -0.536738   0.258126
 Electronic spatial extent (au):  <R**2>=           4554.8405
 Charge=              1.0000 electrons
 Dipole moment (field-independent basis, Debye):
    X=              0.6556    Y=              6.1351    Z=              0.1375  Tot=              6.1716
 Quadrupole moment (field-independent basis, Debye-Ang):
   XX=            -70.8506   YY=            -58.0941   ZZ=            -95.2053
   XY=             -1.4772   XZ=             -0.3430   YZ=              0.4014
 Traceless Quadrupole moment (field-independent basis, Debye-Ang):
   XX=              3.8661   YY=             16.6225   ZZ=            -20.4886
   XY=             -1.4772   XZ=             -0.3430   YZ=              0.4014
 Octapole moment (field-independent basis, Debye-Ang**2):
  XXX=             22.8063  YYY=             34.1799  ZZZ=              0.6927  XYY=            -20.1055
  XXY=            -40.2188  XXZ=              0.6538  XZZ=             -4.6906  YZZ=            -18.1221
  YYZ=              1.6260  XYZ=             -1.0736
 Hexadecapole moment (field-independent basis, Debye-Ang**3):
 XXXX=          -2388.0014 YYYY=          -1309.0918 ZZZZ=           -113.7864 XXXY=              9.8001
 XXXZ=              3.1846 YYYX=            -54.2690 YYYZ=              4.0302 ZZZX=             -0.1223
 ZZZY=              0.9213 XXYY=           -624.3742 XXZZ=           -480.0120 YYZZ=           -288.3952
 XXYZ=             -0.0345 YYXZ=             -0.8683 ZZXY=             -2.8798
 N-N= 1.335075587909D+03 E-N=-2.603020571481D+04  KE= 9.837812752387D+03
 There are a total of      411906 grid points.
 ElSum from          density=      148.9999875587
 ElSum from atomic densities=      149.9999053057

 Hirshfeld populations at iteration   1 (CX, CA, CB, DipXYZ):
               1          2          3          4          5          6
     1  Br   0.000000  17.495130  17.377272   0.155594  -0.088376   0.001518
     2  C    0.000000   3.047253   2.886219   0.034490  -0.007529  -0.000026
     3  C    0.000000   2.998489   3.021917   0.018798  -0.021938   0.000090
     4  C    0.000000   3.049693   2.948082  -0.010908   0.026778  -0.000794
     5  I    0.000000  26.457069  26.329076  -0.144809  -0.107475  -0.000378
     6  C    0.000000   3.011843   2.859882  -0.053136   0.032459  -0.001642
     7  C    0.000000   3.023739   2.953260  -0.011820   0.041290  -0.002678
     8  C    0.000000   3.006477   2.995388   0.044819   0.019783  -0.001232
     9  C    0.000000   3.012690   3.004590  -0.010119   0.026361   0.002049
    10  C    0.000000   2.966530   2.957097  -0.016274  -0.009008  -0.008259
    11  O    0.000000   4.137279   3.900856   0.074726   0.074729   0.005484
    12  H    0.000000   0.463640   0.465743   0.012803  -0.174409   0.001724
    13  H    0.000000   0.460716   0.461047   0.144745   0.106955  -0.001783
    14  H    0.000000   0.467516   0.462729   0.076695   0.103170   0.114548
    15  H    0.000000   0.470064   0.461547   0.041029   0.079925  -0.146290
    16  H    0.000000   0.463519   0.458677  -0.087063   0.103413  -0.106695
    17  H    0.000000   0.468348   0.456611  -0.043692   0.064027   0.151675
       Tot   0.000000  74.999993  73.999994   0.225877   0.270156   0.007308

 Dip from Atomic Chgs              0.032080   2.143641   0.046802
         Total Dipole              0.257957   2.413797   0.054110

 Hirshfeld charges, spin densities, dipoles, and CM5 charges using IRadAn=      5:
              Q-H        S-H        Dx         Dy         Dz        Q-CM5   
     1  Br   0.127599   0.117858   0.155594  -0.088376   0.001518   0.142457
     2  C    0.066527   0.161034   0.034490  -0.007529  -0.000026   0.045466
     3  C   -0.020406  -0.023427   0.018798  -0.021938   0.000090  -0.072333
     4  C    0.002224   0.101611  -0.010908   0.026778  -0.000794  -0.023140
     5  I    0.213855   0.127992  -0.144809  -0.107475  -0.000378   0.243635
     6  C    0.128275   0.151961  -0.053136   0.032459  -0.001642   0.149257
     7  C    0.023000   0.070479  -0.011820   0.041290  -0.002678   0.014560
     8  C   -0.001865   0.011089   0.044819   0.019783  -0.001232  -0.052331
     9  C   -0.017279   0.008100  -0.010119   0.026361   0.002049  -0.115708
    10  C    0.076373   0.009432  -0.016274  -0.009008  -0.008259  -0.004547
    11  O   -0.038135   0.236423   0.074726   0.074729   0.005484  -0.114129
    12  H    0.070617  -0.002104   0.012803  -0.174409   0.001724   0.128108
    13  H    0.078237  -0.000332   0.144745   0.106955  -0.001783   0.135152
    14  H    0.069755   0.004787   0.076695   0.103170   0.114548   0.124310
    15  H    0.068388   0.008517   0.041029   0.079925  -0.146290   0.123218
    16  H    0.077805   0.004842  -0.087063   0.103413  -0.106695   0.139459
    17  H    0.075041   0.011736  -0.043692   0.064027   0.151675   0.136580
       Tot   1.000012   0.999999   0.225877   0.270156   0.007308   1.000012
 Hirshfeld charges and spin densities with hydrogens summed into heavy atoms:
              Q-H        S-H       Q-CM5   
     1  Br   0.127599   0.117858   0.142457
     2  C    0.066527   0.161034   0.045466
     3  C    0.050211  -0.025531   0.055775
     4  C    0.002224   0.101611  -0.023140
     5  I    0.213855   0.127992   0.243635
     6  C    0.128275   0.151961   0.149257
     7  C    0.023000   0.070479   0.014560
     8  C    0.076372   0.010758   0.082820
     9  C    0.120864   0.021404   0.131820
    10  C    0.229219   0.026010   0.271492
    11  O   -0.038135   0.236423  -0.114129
 
 EQQ= 0.834802940565E-01 EQD=-0.299407668289E-01 EDD= 0.287463112318E-02
 EQQ+QD+DD= 0.564141583508E-01
 
                          Isotropic Fermi Contact Couplings
        Atom                 a.u.       MegaHertz       Gauss      10(-4) cm-1
     1  Br(79)             0.01328      14.92455       5.32545       4.97829
     2  C(13)              0.02648      29.76384      10.62048       9.92815
     3  C(13)             -0.01334     -14.99146      -5.34932      -5.00061
     4  C(13)              0.01144      12.85569       4.58723       4.28820
     5  I(127)             0.00150       1.35225       0.48252       0.45106
     6  C(13)              0.00898      10.09810       3.60325       3.36836
     7  C(13)              0.00501       5.63615       2.01112       1.88002
     8  C(13)             -0.00723      -8.12335      -2.89861      -2.70966
     9  C(13)             -0.00276      -3.09930      -1.10591      -1.03381
    10  C(13)             -0.00427      -4.80397      -1.71418      -1.60243
    11  O(17)              0.05553     -33.66501     -12.01251     -11.22944
    12  H(1)               0.00076       3.40492       1.21496       1.13576
    13  H(1)               0.00009       0.38819       0.13852       0.12949
    14  H(1)               0.00295      13.20473       4.71178       4.40463
    15  H(1)               0.00507      22.67707       8.09174       7.56426
    16  H(1)               0.00317      14.18797       5.06262       4.73260
    17  H(1)               0.00714      31.91913      11.38954      10.64707
 --------------------------------------------------------
       Center         ----  Spin Dipole Couplings  ----
                      3XX-RR        3YY-RR        3ZZ-RR
 --------------------------------------------------------
     1   Atom       -0.742869     -0.650895      1.393764
     2   Atom       -0.122544     -0.128397      0.250941
     3   Atom        0.036696      0.030355     -0.067051
     4   Atom       -0.075224     -0.063711      0.138935
     5   Atom       -0.866932     -0.814679      1.681611
     6   Atom       -0.105503     -0.105077      0.210580
     7   Atom       -0.041574     -0.045717      0.087291
     8   Atom        0.005079      0.007941     -0.013020
     9   Atom       -0.003518     -0.000127      0.003646
    10   Atom       -0.009669      0.004446      0.005223
    11   Atom       -0.520258     -0.494861      1.015119
    12   Atom        0.004755     -0.000845     -0.003910
    13   Atom        0.000357      0.003500     -0.003857
    14   Atom       -0.000184      0.002878     -0.002695
    15   Atom       -0.001484      0.002907     -0.001423
    16   Atom       -0.003646      0.008277     -0.004631
    17   Atom       -0.004370      0.005382     -0.001012
 --------------------------------------------------------
                        XY            XZ            YZ
 --------------------------------------------------------
     1   Atom        0.069371     -0.002299      0.016616
     2   Atom       -0.005850     -0.002382      0.001072
     3   Atom        0.000560     -0.000172     -0.000002
     4   Atom        0.004124     -0.001609      0.006055
     5   Atom       -0.069620      0.044080     -0.016575
     6   Atom       -0.004903      0.000571     -0.001689
     7   Atom        0.005198      0.003432      0.006290
     8   Atom       -0.000915      0.000104      0.001063
     9   Atom        0.004481     -0.004919      0.000576
    10   Atom        0.002155     -0.000763      0.001859
    11   Atom        0.004470     -0.054869     -0.095157
    12   Atom        0.001649     -0.000046     -0.000076
    13   Atom        0.002398     -0.000173     -0.000177
    14   Atom        0.003168      0.001255      0.001827
    15   Atom        0.002403     -0.001082     -0.003296
    16   Atom       -0.003163      0.000805     -0.003417
    17   Atom       -0.001424     -0.000823      0.006664
 --------------------------------------------------------


 ---------------------------------------------------------------------------------
              Anisotropic Spin Dipole Couplings in Principal Axis System
 ---------------------------------------------------------------------------------

       Atom             a.u.   MegaHertz   Gauss  10(-4) cm-1        Axes

              Baa    -0.7802  -104.648   -37.341   -34.907  0.8809 -0.4733  0.0045
     1 Br(79) Bbb    -0.6137   -82.326   -29.376   -27.461  0.4733  0.8809 -0.0067
              Bcc     1.3939   186.974    66.717    62.368 -0.0008  0.0081  1.0000
 
              Baa    -0.1320   -17.715    -6.321    -5.909  0.5258  0.8506  0.0009
     2 C(13)  Bbb    -0.1189   -15.962    -5.695    -5.324  0.8506 -0.5258  0.0070
              Bcc     0.2510    33.676    12.017    11.233 -0.0064  0.0029  1.0000
 
              Baa    -0.0671    -8.998    -3.211    -3.001  0.0017  0.0000  1.0000
     3 C(13)  Bbb     0.0303     4.067     1.451     1.357 -0.0873  0.9962  0.0001
              Bcc     0.0367     4.931     1.759     1.645  0.9962  0.0873 -0.0016
 
              Baa    -0.0766   -10.279    -3.668    -3.429  0.9501 -0.3114  0.0158
     4 C(13)  Bbb    -0.0625    -8.390    -2.994    -2.799  0.3117  0.9498 -0.0261
              Bcc     0.1391    18.669     6.662     6.227 -0.0069  0.0297  0.9995
 
              Baa    -0.9154   -98.402   -35.112   -32.823  0.8235  0.5673 -0.0104
     5 I(127) Bbb    -0.7671   -82.452   -29.421   -27.503 -0.5671  0.8235  0.0158
              Bcc     1.6825   180.854    64.533    60.326  0.0175 -0.0071  0.9998
 
              Baa    -0.1102   -14.788    -5.277    -4.933  0.7220  0.6919  0.0024
     6 C(13)  Bbb    -0.1004   -13.471    -4.807    -4.494 -0.6919  0.7220  0.0052
              Bcc     0.2106    28.259    10.084     9.426  0.0019 -0.0054  1.0000
 
              Baa    -0.0493    -6.619    -2.362    -2.208 -0.5494  0.8352 -0.0247
     7 C(13)  Bbb    -0.0384    -5.149    -1.837    -1.717  0.8351  0.5479 -0.0502
              Bcc     0.0877    11.767     4.199     3.925  0.0284  0.0482  0.9984
 
              Baa    -0.0131    -1.755    -0.626    -0.585 -0.0083 -0.0509  0.9987
     8 C(13)  Bbb     0.0048     0.647     0.231     0.216  0.9614  0.2744  0.0219
              Bcc     0.0083     1.108     0.395     0.370 -0.2751  0.9603  0.0466
 
              Baa    -0.0083    -1.112    -0.397    -0.371  0.8083 -0.4691  0.3559
     9 C(13)  Bbb     0.0017     0.228     0.081     0.076  0.2823  0.8391  0.4650
              Bcc     0.0066     0.884     0.315     0.295 -0.5167 -0.2754  0.8106
 
              Baa    -0.0101    -1.350    -0.482    -0.450  0.9855 -0.1551  0.0681
    10 C(13)  Bbb     0.0033     0.441     0.157     0.147  0.1618  0.7426 -0.6499
              Bcc     0.0068     0.909     0.324     0.303  0.0502  0.6516  0.7569
 
              Baa    -0.5223    37.791    13.485    12.606  0.9982 -0.0498  0.0325
    11 O(17)  Bbb    -0.5008    36.236    12.930    12.087  0.0476  0.9968  0.0643
              Bcc     1.0231   -74.028   -26.415   -24.693 -0.0356 -0.0626  0.9974
 
              Baa    -0.0039    -2.087    -0.745    -0.696  0.0006  0.0245  0.9997
    12 H(1)   Bbb    -0.0013    -0.690    -0.246    -0.230 -0.2632  0.9645 -0.0234
              Bcc     0.0052     2.777     0.991     0.926  0.9647  0.2631 -0.0070
 
              Baa    -0.0039    -2.062    -0.736    -0.688  0.0335  0.0131  0.9994
    13 H(1)   Bbb    -0.0009    -0.500    -0.178    -0.167  0.8791 -0.4761 -0.0233
              Bcc     0.0048     2.562     0.914     0.855  0.4755  0.8793 -0.0274
 
              Baa    -0.0033    -1.762    -0.629    -0.588 -0.2046 -0.1796  0.9622
    14 H(1)   Bbb    -0.0022    -1.155    -0.412    -0.385  0.8321 -0.5497  0.0743
              Bcc     0.0055     2.917     1.041     0.973  0.5156  0.8158  0.2619
 
              Baa    -0.0032    -1.729    -0.617    -0.577 -0.2077  0.5240  0.8260
    15 H(1)   Bbb    -0.0024    -1.287    -0.459    -0.429  0.9151 -0.1944  0.3534
              Bcc     0.0057     3.016     1.076     1.006  0.3457  0.8293 -0.4391
 
              Baa    -0.0055    -2.924    -1.043    -0.975 -0.0173  0.2373  0.9713
    16 H(1)   Bbb    -0.0044    -2.364    -0.844    -0.789  0.9721  0.2314 -0.0392
              Bcc     0.0099     5.288     1.887     1.764 -0.2341  0.9435 -0.2346
 
              Baa    -0.0052    -2.781    -0.992    -0.928 -0.0934 -0.5391  0.8371
    17 H(1)   Bbb    -0.0046    -2.430    -0.867    -0.811  0.9889  0.0473  0.1408
              Bcc     0.0098     5.212     1.860     1.738 -0.1155  0.8409  0.5287
 

 ---------------------------------------------------------------------------------

 Running external command "gaunbo6 R"
         input file       "/home/rpaton/opt/midi/fukui/Gau-1704570.EIn"
         output file      "/home/rpaton/opt/midi/fukui/Gau-1704570.EOu"
         message file     "/home/rpaton/opt/midi/fukui/Gau-1704570.EMs"
         fchk file        "/home/rpaton/opt/midi/fukui/Gau-1704570.EFC"
         mat. el file     "/home/rpaton/opt/midi/fukui/Gau-1704570.EUF"

 Writing WrtUnf unformatted file "/home/rpaton/opt/midi/fukui/Gau-1704570.EUF"
 Gaussian matrix elements                                         Version   2 NLab=11 Len12L=8 Len4L=8
 Write SHELL TO ATOM MAP                   from file      0 offset           0 length                  83 to matrix element file.
 Write SHELL TYPES                         from file      0 offset           0 length                  83 to matrix element file.
 Write NUMBER OF PRIMITIVES PER SHELL      from file      0 offset           0 length                  83 to matrix element file.
 Write PRIMITIVE EXPONENTS                 from file      0 offset           0 length                 159 to matrix element file.
 Write CONTRACTION COEFFICIENTS            from file      0 offset           0 length                 159 to matrix element file.
 Write P(S=P) CONTRACTION COEFFICIENTS     from file      0 offset           0 length                 159 to matrix element file.
 Write COORDINATES OF EACH SHELL           from file      0 offset           0 length                 249 to matrix element file.
 Write BONDS PER ATOM                      from file      0 offset           0 length                  17 to matrix element file.
 Write BONDED ATOMS                        from file      0 offset           0 length                  36 to matrix element file.
 Write BOND TYPES                          from file      0 offset           0 length                  36 to matrix element file.
 Write ONIOM CHARGE/MULT                   from file      0 offset           0 length                  32 to matrix element file.
 Write ONIOM ATOM LAYERS                   from file      0 offset           0 length                  17 to matrix element file.
 Write ONIOM ATOM MODIFIERS                from file      0 offset           0 length                  17 to matrix element file.
 Write ONIOM ATOM TYPES                    from file      0 offset           0 length                  17 to matrix element file.
 Write ONIOM LINK ATOMS                    from file      0 offset           0 length                  17 to matrix element file.
 Write ONIOM LINK CHARGES                  from file      0 offset           0 length                  17 to matrix element file.
 Write ONIOM LINK DISTANCES                from file      0 offset           0 length                  68 to matrix element file.
 Write SYMINF INTS                         from file      0 offset           0 length                  26 to matrix element file.
 Write ROTTR TO SO                         from file      0 offset           0 length                  12 to matrix element file.
 Write GAUSSIAN SCALARS                    from file    501 offset           0 to matrix element file.
 Write OPTIMIZATION FLAGS                  from file      0 offset           0 length                  17 to matrix element file.
 Write INTEGER ISO                         from file      0 offset           0 length                  17 to matrix element file.
 Write INTEGER SPIN                        from file      0 offset           0 length                  17 to matrix element file.
 Write REAL ZEFFECTIVE                     from file      0 offset           0 length                  17 to matrix element file.
 Write REAL QUADRUPOLEMOMENT               from file      0 offset           0 length                  17 to matrix element file.
 Write REAL GFACTOR                        from file      0 offset           0 length                  17 to matrix element file.
 Write REAL ZNUCLEAR                       from file      0 offset           0 length                  17 to matrix element file.
 Write MULLIKEN CHARGES                    from file      0 offset           0 length                  17 to matrix element file.
 Write TYPE 6 CHARGES                      from file      0 offset           0 length                  17 to matrix element file.
 Write TYPE 7 CHARGES                      from file      0 offset           0 length                  17 to matrix element file.
 Write NUCLEAR GRADIENT                    from file  10584 offset           0 length                  51 to matrix element file.
 Array NUCLEAR FORCE CONSTANTS              on  file  10585 does not exist.
 Write ELECTRIC DIPOLE MOMENT              from file      0 offset           0 length                   3 to matrix element file.
 Write NON-ADIABATIC COUPLING              from file  10810 offset           0 length                  51 to matrix element file.
 Write FINITE EM FIELD                     from file  10521 offset           0 length                  35 to matrix element file.
 Write OVERLAP                             from file  10514 offset           0 length               13041 to matrix element file.
 Write CORE HAMILTONIAN ALPHA              from file  10515 offset           0 length               13041 to matrix element file.
 Write CORE HAMILTONIAN BETA               from file  10515 offset       13041 length               13041 to matrix element file.
 Write KINETIC ENERGY                      from file  10516 offset           0 length               13041 to matrix element file.
 Write ORTHOGONAL BASIS                    from file  10685 offset           0 length               25921 to matrix element file.
 Write DIPOLE INTEGRALS                    from file  10518 offset           0 length               39123 to matrix element file.
 Array DIP VEL INTEGRALS                    on  file  10572 does not exist.
 Array R X DEL INTEGRALS                    on  file  10572 does not exist.
 Write ALPHA ORBITAL ENERGIES              from file      0 offset           0 length                 161 to matrix element file.
 Write BETA ORBITAL ENERGIES               from file      0 offset           0 length                 161 to matrix element file.
 Write ALPHA MO COEFFICIENTS               from file  10524 offset           0 length               25921 to matrix element file.
 Write BETA MO COEFFICIENTS                from file  10526 offset           0 length               25921 to matrix element file.
 Write ALPHA DENSITY MATRIX                from file      0 offset           0 length               13041 to matrix element file.
 Write BETA DENSITY MATRIX                 from file      0 offset           0 length               13041 to matrix element file.
 Write ALPHA FOCK MATRIX                   from file  10536 offset           0 length               13041 to matrix element file.
 Write BETA FOCK MATRIX                    from file  10538 offset           0 length               13041 to matrix element file.
 Write ENERGY-WEIGHTED DENSITY             from file  10571 offset           0 length               13041 to matrix element file.
 Write ALPHA SCF DENSITY MATRIX            from file      0 offset           0 length               13041 to matrix element file.
 Write BETA SCF DENSITY MATRIX             from file      0 offset           0 length               13041 to matrix element file.
 No 2e integrals to process.
 Perform NBO analysis...

 *********************************** NBO 7.0 ***********************************
             N A T U R A L   A T O M I C   O R B I T A L   A N D
          N A T U R A L   B O N D   O R B I T A L   A N A L Y S I S
 **************************** Robert Paton (I101709) ***************************
  (c) Copyright 1996-2019 Board of Regents of the University of Wisconsin System
      on behalf of the Theoretical Chemistry Institute.  All rights reserved.

          Cite this program [NBO 7.0.5 (4-Jun-2019)] as:

          NBO 7.0.  E. D. Glendening, J. K. Badenhoop, A. E. Reed,
          J. E. Carpenter, J. A. Bohmann, C. M. Morales, P. Karafiloglou,
          C. R. Landis, and F. Weinhold, Theoretical Chemistry Institute,
          University of Wisconsin, Madison, WI (2018)

 Filename set to /home/rpaton/opt/midi/fukui/Gau-1704570

 Job title:  arbr48_wb97xd_popncreated by GaussianPrep


 NATURAL POPULATIONS:  Natural atomic orbital occupancies

  NAO Atom No lang   Type(AO)    Occupancy     Spin
 -----------------------------------------------------
   1   Br  1  s      Cor( 3s)     2.00000     0.00000
   2   Br  1  s      Cor( 1s)     2.00000     0.00000
   3   Br  1  s      Cor( 2s)     1.99999     0.00000
   4   Br  1  s      Val( 4s)     1.87860     0.00109
   5   Br  1  s      Ryd( 5s)     0.00305     0.00009
   6   Br  1  px     Cor( 3p)     2.00000     0.00000
   7   Br  1  px     Cor( 2p)     1.99999     0.00000
   8   Br  1  px     Val( 4p)     1.25269    -0.00692
   9   Br  1  px     Ryd( 5p)     0.00318     0.00006
  10   Br  1  py     Cor( 3p)     2.00000     0.00000
  11   Br  1  py     Cor( 2p)     1.99999     0.00000
  12   Br  1  py     Val( 4p)     1.77220    -0.00177
  13   Br  1  py     Ryd( 5p)     0.00195     0.00001
  14   Br  1  pz     Cor( 3p)     2.00000     0.00000
  15   Br  1  pz     Cor( 2p)     2.00000     0.00000
  16   Br  1  pz     Val( 4p)     1.82374     0.11814
  17   Br  1  pz     Ryd( 5p)     0.00071     0.00010
  18   Br  1  dxy    Cor( 3d)     1.99950     0.00000
  19   Br  1  dxy    Ryd( 4d)     0.00389    -0.00007
  20   Br  1  dxz    Cor( 3d)     1.99989     0.00001
  21   Br  1  dxz    Ryd( 4d)     0.00198    -0.00031
  22   Br  1  dyz    Cor( 3d)     1.99997     0.00000
  23   Br  1  dyz    Ryd( 4d)     0.00060    -0.00010
  24   Br  1  dx2y2  Cor( 3d)     1.99961     0.00000
  25   Br  1  dx2y2  Ryd( 4d)     0.00226    -0.00005
  26   Br  1  dz2    Cor( 3d)     1.99980     0.00000
  27   Br  1  dz2    Ryd( 4d)     0.00166     0.00003

  28    C  2  s      Cor( 1s)     1.99989     0.00000
  29    C  2  s      Val( 2s)     0.95433     0.00913
  30    C  2  s      Ryd( 3s)     0.00044    -0.00002
  31    C  2  px     Val( 2p)     1.05498     0.00604
  32    C  2  px     Ryd( 3p)     0.00743    -0.00009
  33    C  2  py     Val( 2p)     1.08623     0.00476
  34    C  2  py     Ryd( 3p)     0.00825    -0.00007
  35    C  2  pz     Val( 2p)     0.95219     0.19053
  36    C  2  pz     Ryd( 3p)     0.00106    -0.00019

  37    C  3  s      Cor( 1s)     1.99986     0.00000
  38    C  3  s      Val( 2s)     0.95230    -0.00420
  39    C  3  s      Ryd( 3s)     0.00158     0.00002
  40    C  3  px     Val( 2p)     1.05063    -0.00587
  41    C  3  px     Ryd( 3p)     0.00596     0.00003
  42    C  3  py     Val( 2p)     1.25029    -0.00288
  43    C  3  py     Ryd( 3p)     0.00847     0.00006
  44    C  3  pz     Val( 2p)     0.97267    -0.05385
  45    C  3  pz     Ryd( 3p)     0.00056    -0.00011

  46    C  4  s      Cor( 1s)     1.99984     0.00000
  47    C  4  s      Val( 2s)     0.97990     0.00423
  48    C  4  s      Ryd( 3s)     0.00154    -0.00004
  49    C  4  px     Val( 2p)     1.14804     0.00402
  50    C  4  px     Ryd( 3p)     0.00958    -0.00006
  51    C  4  py     Val( 2p)     1.09461    -0.00020
  52    C  4  py     Ryd( 3p)     0.00948    -0.00010
  53    C  4  pz     Val( 2p)     1.02372     0.10587
  54    C  4  pz     Ryd( 3p)     0.00129    -0.00007

  55    I  5  s      Cor( 2s)     2.00000     0.00000
  56    I  5  s      Cor( 1s)     2.00000     0.00000
  57    I  5  s      Cor( 4s)     2.00000     0.00000
  58    I  5  s      Cor( 3s)     1.99999     0.00000
  59    I  5  s      Val( 5s)     1.88989     0.00117
  60    I  5  s      Ryd( 6s)     0.00453     0.00006
  61    I  5  px     Cor( 4p)     2.00000     0.00000
  62    I  5  px     Cor( 2p)     2.00000     0.00000
  63    I  5  px     Cor( 3p)     1.99999     0.00000
  64    I  5  px     Val( 5p)     1.18539    -0.00411
  65    I  5  px     Ryd( 6p)     0.00393     0.00005
  66    I  5  py     Cor( 4p)     2.00000     0.00000
  67    I  5  py     Cor( 2p)     2.00000     0.00000
  68    I  5  py     Cor( 3p)     1.99999     0.00000
  69    I  5  py     Val( 5p)     1.66905    -0.00206
  70    I  5  py     Ryd( 6p)     0.00252    -0.00002
  71    I  5  pz     Cor( 4p)     2.00000     0.00000
  72    I  5  pz     Cor( 2p)     2.00000     0.00000
  73    I  5  pz     Cor( 3p)     2.00000     0.00000
  74    I  5  pz     Val( 5p)     1.81304     0.13178
  75    I  5  pz     Ryd( 6p)     0.00082     0.00011
  76    I  5  dxy    Cor( 3d)     1.99999     0.00000
  77    I  5  dxy    Cor( 4d)     1.99971     0.00000
  78    I  5  dxy    Ryd( 5d)     0.00224    -0.00003
  79    I  5  dxz    Cor( 3d)     2.00000     0.00000
  80    I  5  dxz    Cor( 4d)     1.99995     0.00000
  81    I  5  dxz    Ryd( 5d)     0.00129    -0.00014
  82    I  5  dyz    Cor( 3d)     2.00000     0.00000
  83    I  5  dyz    Cor( 4d)     1.99998     0.00000
  84    I  5  dyz    Ryd( 5d)     0.00051    -0.00008
  85    I  5  dx2y2  Cor( 3d)     2.00000     0.00000
  86    I  5  dx2y2  Cor( 4d)     1.99980     0.00000
  87    I  5  dx2y2  Ryd( 5d)     0.00094    -0.00002
  88    I  5  dz2    Cor( 3d)     2.00000     0.00000
  89    I  5  dz2    Cor( 4d)     1.99989     0.00000
  90    I  5  dz2    Ryd( 5d)     0.00086     0.00004

  91    C  6  s      Cor( 1s)     1.99987     0.00000
  92    C  6  s      Val( 2s)     0.82366     0.00326
  93    C  6  s      Ryd( 3s)     0.00221     0.00002
  94    C  6  px     Val( 2p)     0.85019    -0.00263
  95    C  6  px     Ryd( 3p)     0.01064     0.00001
  96    C  6  py     Val( 2p)     1.02656    -0.00118
  97    C  6  py     Ryd( 3p)     0.00381     0.00002
  98    C  6  pz     Val( 2p)     0.89278     0.15628
  99    C  6  pz     Ryd( 3p)     0.00111    -0.00036

 100    C  7  s      Cor( 1s)     1.99990     0.00000
 101    C  7  s      Val( 2s)     0.86823     0.00200
 102    C  7  s      Ryd( 3s)     0.00115     0.00001
 103    C  7  px     Val( 2p)     1.10160    -0.00048
 104    C  7  px     Ryd( 3p)     0.00499     0.00001
 105    C  7  py     Val( 2p)     1.08042     0.00095
 106    C  7  py     Ryd( 3p)     0.00416     0.00003
 107    C  7  pz     Val( 2p)     0.97547     0.07536
 108    C  7  pz     Ryd( 3p)     0.00110     0.00003

 109    C  8  s      Cor( 1s)     1.99983     0.00000
 110    C  8  s      Val( 2s)     0.94833    -0.00213
 111    C  8  s      Ryd( 3s)     0.00144     0.00001
 112    C  8  px     Val( 2p)     1.19206    -0.00132
 113    C  8  px     Ryd( 3p)     0.00762     0.00006
 114    C  8  py     Val( 2p)     1.10263    -0.00476
 115    C  8  py     Ryd( 3p)     0.00543     0.00002
 116    C  8  pz     Val( 2p)     0.94993    -0.00896
 117    C  8  pz     Ryd( 3p)     0.00038    -0.00002

 118    C  9  s      Cor( 1s)     1.99976     0.00000
 119    C  9  s      Val( 2s)     1.05872    -0.00083
 120    C  9  s      Ryd( 3s)     0.00060     0.00000
 121    C  9  px     Val( 2p)     1.07981    -0.00002
 122    C  9  px     Ryd( 3p)     0.00220     0.00000
 123    C  9  py     Val( 2p)     1.10377    -0.00256
 124    C  9  py     Ryd( 3p)     0.00170     0.00001
 125    C  9  pz     Val( 2p)     1.30219     0.00301
 126    C  9  pz     Ryd( 3p)     0.00207     0.00004

 127    C 10  s      Cor( 1s)     1.99977     0.00000
 128    C 10  s      Val( 2s)     1.07886    -0.00147
 129    C 10  s      Ryd( 3s)     0.00115     0.00001
 130    C 10  px     Val( 2p)     1.05618    -0.00109
 131    C 10  px     Ryd( 3p)     0.00231    -0.00001
 132    C 10  py     Val( 2p)     0.74436    -0.00772
 133    C 10  py     Ryd( 3p)     0.00281     0.00001
 134    C 10  pz     Val( 2p)     1.27708     0.00357
 135    C 10  pz     Ryd( 3p)     0.00140    -0.00005

 136    O 11  s      Cor( 1s)     1.99986     0.00000
 137    O 11  s      Val( 2s)     1.62550     0.00617
 138    O 11  s      Ryd( 3s)     0.00064     0.00000
 139    O 11  px     Val( 2p)     1.65962     0.00121
 140    O 11  px     Ryd( 3p)     0.00160    -0.00002
 141    O 11  py     Val( 2p)     1.40787     0.00775
 142    O 11  py     Ryd( 3p)     0.00054     0.00000
 143    O 11  pz     Val( 2p)     1.61731     0.24876
 144    O 11  pz     Ryd( 3p)     0.00083     0.00027
 145    O 11  dxy    Ryd( 3d)     0.00469    -0.00001
 146    O 11  dxz    Ryd( 3d)     0.00281    -0.00015
 147    O 11  dyz    Ryd( 3d)     0.00041     0.00002
 148    O 11  dx2y2  Ryd( 3d)     0.00274     0.00000
 149    O 11  dz2    Ryd( 3d)     0.00269    -0.00009

 150    H 12  s      Val( 1s)     0.69277     0.00179
 151    H 12  s      Ryd( 2s)     0.00144    -0.00002

 152    H 13  s      Val( 1s)     0.69773     0.00030
 153    H 13  s      Ryd( 2s)     0.00107    -0.00001

 154    H 14  s      Val( 1s)     0.68959     0.00486
 155    H 14  s      Ryd( 2s)     0.00071     0.00004

 156    H 15  s      Val( 1s)     0.68914     0.00890
 157    H 15  s      Ryd( 2s)     0.00090     0.00012

 158    H 16  s      Val( 1s)     0.71497     0.00463
 159    H 16  s      Ryd( 2s)     0.00063     0.00000

 160    H 17  s      Val( 1s)     0.71816     0.01226
 161    H 17  s      Ryd( 2s)     0.00090     0.00007


 Summary of Natural Population Analysis:

                                     Natural Population                 Natural
             Natural    ---------------------------------------------    Spin
  Atom No    Charge        Core      Valence    Rydberg      Total      Density
 -------------------------------------------------------------------------------
   Br  1    0.25474     27.99874     6.72723    0.01929    34.74526     0.11030
    C  2   -0.06479      1.99989     4.04773    0.01717     6.06479     0.21008
    C  3   -0.24232      1.99986     4.22589    0.01656     6.24232    -0.06678
    C  4   -0.26801      1.99984     4.24627    0.02190     6.26801     0.11365
    I  5    0.42569     45.99929     6.55737    0.01765    52.57431     0.12676
    C  6    0.38918      1.99987     3.59318    0.01777     5.61082     0.15542
    C  7   -0.03701      1.99990     4.02572    0.01139     6.03701     0.07791
    C  8   -0.20765      1.99983     4.19295    0.01486     6.20765    -0.01710
    C  9   -0.55081      1.99976     4.54449    0.00657     6.55081    -0.00034
    C 10   -0.16390      1.99977     4.15647    0.00766     6.16390    -0.00674
    O 11   -0.32711      1.99986     6.31030    0.01695     8.32711     0.26391
    H 12    0.30579      0.00000     0.69277    0.00144     0.69421     0.00177
    H 13    0.30120      0.00000     0.69773    0.00107     0.69880     0.00029
    H 14    0.30970      0.00000     0.68959    0.00071     0.69030     0.00490
    H 15    0.30996      0.00000     0.68914    0.00090     0.69004     0.00901
    H 16    0.28440      0.00000     0.71497    0.00063     0.71560     0.00463
    H 17    0.28095      0.00000     0.71816    0.00090     0.71905     0.01233
 ===============================================================================
 * Total *  1.00000     91.99661    56.82997    0.17342   149.00000     1.00000

                                 Natural Population
 ---------------------------------------------------------
   Core                      91.99661 ( 99.9963% of   92)
   Valence                   56.82997 ( 99.7017% of   57)
   Natural Minimal Basis    148.82658 ( 99.8836% of  149)
   Natural Rydberg Basis      0.17342 (  0.1164% of  149)
 ---------------------------------------------------------

    Atom No         Natural Electron Configuration
 ----------------------------------------------------------------------------
     Br  1      [core]4s( 1.88)4p( 4.85)4d( 0.01)5p( 0.01)
      C  2      [core]2s( 0.95)2p( 3.09)3p( 0.02)
      C  3      [core]2s( 0.95)2p( 3.27)3p( 0.01)
      C  4      [core]2s( 0.98)2p( 3.27)3p( 0.02)
      I  5      [core]5s( 1.89)5p( 4.67)5d( 0.01)6p( 0.01)
      C  6      [core]2s( 0.82)2p( 2.77)3p( 0.02)
      C  7      [core]2s( 0.87)2p( 3.16)3p( 0.01)
      C  8      [core]2s( 0.95)2p( 3.24)3p( 0.01)
      C  9      [core]2s( 1.06)2p( 3.49)3p( 0.01)
      C 10      [core]2s( 1.08)2p( 3.08)3p( 0.01)
      O 11      [core]2s( 1.63)2p( 4.68)3d( 0.01)
      H 12            1s( 0.69)
      H 13            1s( 0.70)
      H 14            1s( 0.69)
      H 15            1s( 0.69)
      H 16            1s( 0.71)
      H 17            1s( 0.72)


 ***************************************************
 *******         Alpha spin orbitals         *******
 ***************************************************


 NATURAL POPULATIONS:  Natural atomic orbital occupancies

  NAO Atom No lang   Type(AO)    Occupancy      Energy
 -------------------------------------------------------
   1   Br  1  s      Cor( 3s)     1.00000     -20.41538
   2   Br  1  s      Cor( 1s)     1.00000    -451.50233
   3   Br  1  s      Cor( 2s)     1.00000     -80.21334
   4   Br  1  s      Val( 4s)     0.93984      -0.93663
   5   Br  1  s      Ryd( 5s)     0.00157       0.70339
   6   Br  1  px     Cor( 3p)     1.00000      -7.39659
   7   Br  1  px     Cor( 2p)     0.99999     -55.78512
   8   Br  1  px     Val( 4p)     0.62288      -0.41111
   9   Br  1  px     Ryd( 5p)     0.00162       0.59169
  10   Br  1  py     Cor( 3p)     1.00000      -7.38739
  11   Br  1  py     Cor( 2p)     1.00000     -55.78282
  12   Br  1  py     Val( 4p)     0.88521      -0.48932
  13   Br  1  py     Ryd( 5p)     0.00098       0.60947
  14   Br  1  pz     Cor( 3p)     1.00000      -7.38683
  15   Br  1  pz     Cor( 2p)     1.00000     -55.78286
  16   Br  1  pz     Val( 4p)     0.97094      -0.52123
  17   Br  1  pz     Ryd( 5p)     0.00041       0.57636
  18   Br  1  dxy    Cor( 3d)     0.99975      -2.94194
  19   Br  1  dxy    Ryd( 4d)     0.00191       0.80945
  20   Br  1  dxz    Cor( 3d)     0.99995      -2.94124
  21   Br  1  dxz    Ryd( 4d)     0.00084       0.53988
  22   Br  1  dyz    Cor( 3d)     0.99998      -2.93401
  23   Br  1  dyz    Ryd( 4d)     0.00025       0.50057
  24   Br  1  dx2y2  Cor( 3d)     0.99980      -2.94186
  25   Br  1  dx2y2  Ryd( 4d)     0.00110       0.78089
  26   Br  1  dz2    Cor( 3d)     0.99990      -2.93628
  27   Br  1  dz2    Ryd( 4d)     0.00085       0.59566

  28    C  2  s      Cor( 1s)     0.99994     -10.49204
  29    C  2  s      Val( 2s)     0.48173      -0.34906
  30    C  2  s      Ryd( 3s)     0.00021       0.54658
  31    C  2  px     Val( 2p)     0.53051      -0.30756
  32    C  2  px     Ryd( 3p)     0.00367       1.11980
  33    C  2  py     Val( 2p)     0.54549      -0.26339
  34    C  2  py     Ryd( 3p)     0.00409       0.98341
  35    C  2  pz     Val( 2p)     0.57136      -0.36507
  36    C  2  pz     Ryd( 3p)     0.00043       0.75996

  37    C  3  s      Cor( 1s)     0.99993     -10.43327
  38    C  3  s      Val( 2s)     0.47405      -0.26818
  39    C  3  s      Ryd( 3s)     0.00080       0.55393
  40    C  3  px     Val( 2p)     0.52238      -0.20975
  41    C  3  px     Ryd( 3p)     0.00300       0.82572
  42    C  3  py     Val( 2p)     0.62371      -0.27432
  43    C  3  py     Ryd( 3p)     0.00426       1.15509
  44    C  3  pz     Val( 2p)     0.45941      -0.29166
  45    C  3  pz     Ryd( 3p)     0.00022       0.75739

  46    C  4  s      Cor( 1s)     0.99992     -10.48053
  47    C  4  s      Val( 2s)     0.49207      -0.35006
  48    C  4  s      Ryd( 3s)     0.00075       0.53951
  49    C  4  px     Val( 2p)     0.57603      -0.32439
  50    C  4  px     Ryd( 3p)     0.00476       1.04077
  51    C  4  py     Val( 2p)     0.54720      -0.28069
  52    C  4  py     Ryd( 3p)     0.00469       0.91632
  53    C  4  pz     Val( 2p)     0.56480      -0.36059
  54    C  4  pz     Ryd( 3p)     0.00061       0.75925

  55    I  5  s      Cor( 2s)     1.00000    -342.71555
  56    I  5  s      Cor( 1s)     1.00000    -824.53214
  57    I  5  s      Cor( 4s)     1.00000     -77.19773
  58    I  5  s      Cor( 3s)     1.00000    -133.81195
  59    I  5  s      Val( 5s)     0.94553      -0.82786
  60    I  5  s      Ryd( 6s)     0.00230       0.35796
  61    I  5  px     Cor( 4p)     1.00000      -8.27243
  62    I  5  px     Cor( 2p)     1.00000    -101.98683
  63    I  5  px     Cor( 3p)     1.00000     -90.76427
  64    I  5  px     Val( 5p)     0.59064      -0.37571
  65    I  5  px     Ryd( 6p)     0.00199       0.41924
  66    I  5  py     Cor( 4p)     1.00000      -8.26500
  67    I  5  py     Cor( 2p)     1.00000    -101.98452
  68    I  5  py     Cor( 3p)     1.00000     -90.76291
  69    I  5  py     Val( 5p)     0.83349      -0.44436
  70    I  5  py     Ryd( 6p)     0.00125       0.41186
  71    I  5  pz     Cor( 4p)     1.00000      -8.26321
  72    I  5  pz     Cor( 2p)     1.00000    -101.98406
  73    I  5  pz     Cor( 3p)     1.00000     -90.76279
  74    I  5  pz     Val( 5p)     0.97241      -0.48788
  75    I  5  pz     Ryd( 6p)     0.00046       0.35833
  76    I  5  dxy    Cor( 3d)     0.99999     -16.82625
  77    I  5  dxy    Cor( 4d)     0.99986      -8.68592
  78    I  5  dxy    Ryd( 5d)     0.00111       0.88456
  79    I  5  dxz    Cor( 3d)     1.00000     -16.82559
  80    I  5  dxz    Cor( 4d)     0.99998      -8.68427
  81    I  5  dxz    Ryd( 5d)     0.00057       0.55025
  82    I  5  dyz    Cor( 3d)     1.00000     -16.82281
  83    I  5  dyz    Cor( 4d)     0.99999      -8.67877
  84    I  5  dyz    Ryd( 5d)     0.00022       0.51349
  85    I  5  dx2y2  Cor( 3d)     1.00000     -16.82624
  86    I  5  dx2y2  Cor( 4d)     0.99990      -8.68584
  87    I  5  dx2y2  Ryd( 5d)     0.00046       0.76903
  88    I  5  dz2    Cor( 3d)     1.00000     -16.82350
  89    I  5  dz2    Cor( 4d)     0.99995      -8.68024
  90    I  5  dz2    Ryd( 5d)     0.00045       0.63268

  91    C  6  s      Cor( 1s)     0.99993     -10.52100
  92    C  6  s      Val( 2s)     0.41346      -0.26772
  93    C  6  s      Ryd( 3s)     0.00111       0.55556
  94    C  6  px     Val( 2p)     0.42378      -0.20914
  95    C  6  px     Ryd( 3p)     0.00533       0.98308
  96    C  6  py     Val( 2p)     0.51269      -0.23818
  97    C  6  py     Ryd( 3p)     0.00192       1.14233
  98    C  6  pz     Val( 2p)     0.52453      -0.35944
  99    C  6  pz     Ryd( 3p)     0.00038       0.75314

 100    C  7  s      Cor( 1s)     0.99995     -10.45069
 101    C  7  s      Val( 2s)     0.43511      -0.24447
 102    C  7  s      Ryd( 3s)     0.00058       0.54969
 103    C  7  px     Val( 2p)     0.55056      -0.23065
 104    C  7  px     Ryd( 3p)     0.00250       1.10208
 105    C  7  py     Val( 2p)     0.54069      -0.24486
 106    C  7  py     Ryd( 3p)     0.00209       1.31054
 107    C  7  pz     Val( 2p)     0.52541      -0.32249
 108    C  7  pz     Ryd( 3p)     0.00056       0.81445

 109    C  8  s      Cor( 1s)     0.99992     -10.43648
 110    C  8  s      Val( 2s)     0.47310      -0.25860
 111    C  8  s      Ryd( 3s)     0.00072       0.55018
 112    C  8  px     Val( 2p)     0.59537      -0.24501
 113    C  8  px     Ryd( 3p)     0.00384       1.07330
 114    C  8  py     Val( 2p)     0.54893      -0.22637
 115    C  8  py     Ryd( 3p)     0.00272       0.93716
 116    C  8  pz     Val( 2p)     0.47049      -0.29696
 117    C  8  pz     Ryd( 3p)     0.00018       0.75876

 118    C  9  s      Cor( 1s)     0.99988     -10.41896
 119    C  9  s      Val( 2s)     0.52895      -0.35919
 120    C  9  s      Ryd( 3s)     0.00030       1.04066
 121    C  9  px     Val( 2p)     0.53989      -0.27046
 122    C  9  px     Ryd( 3p)     0.00110       0.81703
 123    C  9  py     Val( 2p)     0.55061      -0.25769
 124    C  9  py     Ryd( 3p)     0.00085       0.76674
 125    C  9  pz     Val( 2p)     0.65260      -0.30477
 126    C  9  pz     Ryd( 3p)     0.00106       0.95193

 127    C 10  s      Cor( 1s)     0.99989     -10.46574
 128    C 10  s      Val( 2s)     0.53870      -0.40683
 129    C 10  s      Ryd( 3s)     0.00058       0.94114
 130    C 10  px     Val( 2p)     0.52755      -0.26342
 131    C 10  px     Ryd( 3p)     0.00115       0.77688
 132    C 10  py     Val( 2p)     0.36832      -0.22476
 133    C 10  py     Ryd( 3p)     0.00141       0.78770
 134    C 10  pz     Val( 2p)     0.64032      -0.30725
 135    C 10  pz     Ryd( 3p)     0.00068       0.90036

 136    O 11  s      Cor( 1s)     0.99993     -19.42550
 137    O 11  s      Val( 2s)     0.81583      -1.00666
 138    O 11  s      Ryd( 3s)     0.00032       1.63602
 139    O 11  px     Val( 2p)     0.83041      -0.58347
 140    O 11  px     Ryd( 3p)     0.00079       1.64502
 141    O 11  py     Val( 2p)     0.70781      -0.53060
 142    O 11  py     Ryd( 3p)     0.00027       1.90810
 143    O 11  pz     Val( 2p)     0.93303      -0.61080
 144    O 11  pz     Ryd( 3p)     0.00055       1.47326
 145    O 11  dxy    Ryd( 3d)     0.00234       2.02596
 146    O 11  dxz    Ryd( 3d)     0.00133       1.66720
 147    O 11  dyz    Ryd( 3d)     0.00022       1.75757
 148    O 11  dx2y2  Ryd( 3d)     0.00137       1.99749
 149    O 11  dz2    Ryd( 3d)     0.00130       1.86732

 150    H 12  s      Val( 1s)     0.34728       0.00290
 151    H 12  s      Ryd( 2s)     0.00071       0.46883

 152    H 13  s      Val( 1s)     0.34902      -0.00267
 153    H 13  s      Ryd( 2s)     0.00053       0.46335

 154    H 14  s      Val( 1s)     0.34723      -0.01299
 155    H 14  s      Ryd( 2s)     0.00037       0.45880

 156    H 15  s      Val( 1s)     0.34902      -0.01564
 157    H 15  s      Ryd( 2s)     0.00051       0.46149

 158    H 16  s      Val( 1s)     0.35980      -0.01969
 159    H 16  s      Ryd( 2s)     0.00031       0.43692

 160    H 17  s      Val( 1s)     0.36521      -0.03163
 161    H 17  s      Ryd( 2s)     0.00048       0.44119


 Summary of Natural Population Analysis:

                                     Natural Population
             Natural    ---------------------------------------------
  Atom No    Charge        Core      Valence    Rydberg      Total
 --------------------------------------------------------------------
   Br  1    0.07222     13.99938     3.41888    0.00952    17.42778
    C  2   -0.13744      0.99994     2.12909    0.00840     3.13744
    C  3   -0.08777      0.99993     2.07955    0.00829     3.08777
    C  4   -0.19083      0.99992     2.18010    0.01081     3.19083
    I  5    0.14947     22.99965     3.34208    0.00881    26.35053
    C  6    0.11688      0.99993     1.87446    0.00873     2.88312
    C  7   -0.05746      0.99995     2.05178    0.00573     3.05746
    C  8   -0.09527      0.99992     2.08789    0.00746     3.09527
    C  9   -0.27524      0.99988     2.27205    0.00331     3.27524
    C 10   -0.07858      0.99989     2.07489    0.00381     3.07858
    O 11   -0.29551      0.99993     3.28709    0.00849     4.29551
    H 12    0.15201      0.00000     0.34728    0.00071     0.34799
    H 13    0.15045      0.00000     0.34902    0.00053     0.34955
    H 14    0.15240      0.00000     0.34723    0.00037     0.34760
    H 15    0.15047      0.00000     0.34902    0.00051     0.34953
    H 16    0.13989      0.00000     0.35980    0.00031     0.36011
    H 17    0.13431      0.00000     0.36521    0.00048     0.36569
 ====================================================================
 * Total *  0.00000     45.99831    28.91540    0.08629    75.00000

                                 Natural Population
 ---------------------------------------------------------
   Core                      45.99831 ( 99.9963% of   46)
   Valence                   28.91540 ( 99.7083% of   29)
   Natural Minimal Basis     74.91371 ( 99.8849% of   75)
   Natural Rydberg Basis      0.08629 (  0.1151% of   75)
 ---------------------------------------------------------

    Atom No         Natural Electron Configuration
 ----------------------------------------------------------------------------
     Br  1      [core]4s( 0.94)4p( 2.48)
      C  2      [core]2s( 0.48)2p( 1.65)3p( 0.01)
      C  3      [core]2s( 0.47)2p( 1.61)3p( 0.01)
      C  4      [core]2s( 0.49)2p( 1.69)3p( 0.01)
      I  5      [core]5s( 0.95)5p( 2.40)
      C  6      [core]2s( 0.41)2p( 1.46)3p( 0.01)
      C  7      [core]2s( 0.44)2p( 1.62)3p( 0.01)
      C  8      [core]2s( 0.47)2p( 1.61)3p( 0.01)
      C  9      [core]2s( 0.53)2p( 1.74)
      C 10      [core]2s( 0.54)2p( 1.54)
      O 11      [core]2s( 0.82)2p( 2.47)3d( 0.01)
      H 12            1s( 0.35)
      H 13            1s( 0.35)
      H 14            1s( 0.35)
      H 15            1s( 0.35)
      H 16            1s( 0.36)
      H 17            1s( 0.37)


 NATURAL BOND ORBITAL ANALYSIS, alpha spin orbitals:

                            Occupancies       Lewis Structure    Low   High
         Max    Occ     -------------------  -----------------   occ   occ
  Cycle  Ctr   Thresh    Lewis   non-Lewis     CR  BD  nC  LP    (L)   (NL)
 ============================================================================
    1     2     0.95    73.38586   1.61414     46  19   0  10     3      3
    2     2     0.94    73.38586   1.61414     46  19   0  10     3      3
    3     2     0.93    73.33066   1.66934     46  18   0  11     3      3
    4     2     0.85    73.62128   1.37872     46  19   0  10     2      3
    5     2     0.84    73.89821   1.10179     46  20   0   9     1      3
    6     2     0.83    74.20678   0.79322     46  21   0   8     0      3
 ----------------------------------------------------------------------------

 Structure accepted: No low occupancy Lewis orbitals

 -------------------------------------------------------
   Core                     45.99831 ( 99.996% of  46)
   Valence Lewis            28.20847 ( 97.271% of  29)
  ==================      =============================
   Total Lewis              74.20678 ( 98.942% of  75)
  -----------------------------------------------------
   Valence non-Lewis         0.74374 (  0.992% of  75)
   Rydberg non-Lewis         0.04949 (  0.066% of  75)
  ==================      =============================
   Total non-Lewis           0.79322 (  1.058% of  75)
 -------------------------------------------------------


     (Occupancy)   Bond orbital / Coefficients / Hybrids
 ------------------ Lewis ------------------------------------------------------
   1. (1.00000) CR ( 1)Br  1            s(100.00%)
                                         1.0000  0.0000  0.0000  0.0000  0.0000
                                         0.0000  0.0000  0.0000  0.0000  0.0000
                                         0.0000  0.0000  0.0000  0.0000  0.0000
[...]
   62. BD ( 1) C  6- C  7     139. RY ( 1) C  9            0.38    1.80   0.033
   62. BD ( 1) C  6- C  7     147. RY ( 1) O 11            0.25    2.37   0.031
   63. BD ( 1) C  6- O 11      79. BD*( 1) C  3- C  4      0.36    1.56   0.030
   63. BD ( 1) C  6- O 11      83. BD*( 1) C  4- C  6      0.33    1.55   0.028
   63. BD ( 1) C  6- O 11      87. BD*( 1) C  7- C  8      0.67    1.60   0.041
   63. BD ( 1) C  6- O 11      91. BD*( 1) C  9- C 10      0.33    1.33   0.026
   63. BD ( 1) C  6- O 11     144. RY ( 2) C 10            0.28    2.01   0.030
   64. BD ( 2) C  6- O 11      80. BD*( 2) C  3- C  4      5.72    0.51   0.068
   64. BD ( 2) C  6- O 11      86. BD*( 2) C  6- O 11      0.35    0.45   0.016
   64. BD ( 2) C  6- O 11      88. BD*( 2) C  7- C  8      6.31    0.54   0.074
   64. BD ( 2) C  6- O 11      95. BD*( 1) C 10- H 16      1.30    1.02   0.046
   64. BD ( 2) C  6- O 11      96. BD*( 1) C 10- H 17      1.90    1.01   0.055
   65. BD ( 1) C  7- C  8      76. BD*( 1)Br  1- C  2      1.55    0.91   0.047
   65. BD ( 1) C  7- C  8      78. BD*( 1) C  2- C  8      1.31    1.36   0.053
   65. BD ( 1) C  7- C  8      84. BD*( 1) C  6- C  7      1.74    1.35   0.061
   65. BD ( 1) C  7- C  8      85. BD*( 1) C  6- O 11      1.26    1.13   0.048
   65. BD ( 1) C  7- C  8      89. BD*( 1) C  7- C  9      1.65    1.21   0.056
   65. BD ( 1) C  7- C  8      90. BD*( 1) C  8- H 13      1.02    1.31   0.046
   65. BD ( 1) C  7- C  8     106. RY ( 1) C  2            0.97    1.82   0.053
   65. BD ( 1) C  7- C  8     107. RY ( 2) C  2            0.44    2.08   0.038
   65. BD ( 1) C  7- C  8     128. RY ( 2) C  6            0.96    2.03   0.056
   65. BD ( 1) C  7- C  8     139. RY ( 1) C  9            0.34    1.78   0.031
   66. BD ( 2) C  7- C  8      75. LV ( 1) C  2           45.37    0.22   0.125
   66. BD ( 2) C  7- C  8      86. BD*( 2) C  6- O 11     19.75    0.33   0.102
   66. BD ( 2) C  7- C  8      92. BD*( 1) C  9- H 14      0.77    0.90   0.033
   66. BD ( 2) C  7- C  8      93. BD*( 1) C  9- H 15      1.11    0.89   0.040
   66. BD ( 2) C  7- C  8     108. RY ( 3) C  2            0.27    1.29   0.023
   66. BD ( 2) C  7- C  8     130. RY ( 4) C  6            0.30    1.28   0.025
   67. BD ( 1) C  7- C  9      78. BD*( 1) C  2- C  8      0.74    1.28   0.039
   67. BD ( 1) C  7- C  9      83. BD*( 1) C  4- C  6      1.61    1.27   0.057
   67. BD ( 1) C  7- C  9      84. BD*( 1) C  6- C  7      0.75    1.27   0.039
   67. BD ( 1) C  7- C  9      85. BD*( 1) C  6- O 11      1.11    1.05   0.043
   67. BD ( 1) C  7- C  9      87. BD*( 1) C  7- C  8      1.66    1.33   0.059
   67. BD ( 1) C  7- C  9      92. BD*( 1) C  9- H 14      0.40    1.20   0.028
   67. BD ( 1) C  7- C  9      93. BD*( 1) C  9- H 15      0.35    1.20   0.026
   67. BD ( 1) C  7- C  9      94. BD*( 1) C 10- O 11      1.52    0.94   0.048
   67. BD ( 1) C  7- C  9      95. BD*( 1) C 10- H 16      0.31    1.21   0.025
   67. BD ( 1) C  7- C  9     127. RY ( 1) C  6            0.55    1.81   0.040
   67. BD ( 1) C  7- C  9     135. RY ( 1) C  8            1.00    1.95   0.056
   68. BD ( 1) C  8- H 13      76. BD*( 1)Br  1- C  2      0.42    0.77   0.023
   68. BD ( 1) C  8- H 13      77. BD*( 1) C  2- C  3      1.34    1.22   0.051
   68. BD ( 1) C  8- H 13      78. BD*( 1) C  2- C  8      0.47    1.21   0.030
   68. BD ( 1) C  8- H 13      84. BD*( 1) C  6- C  7      1.78    1.20   0.058
   68. BD ( 1) C  8- H 13      87. BD*( 1) C  7- C  8      0.74    1.26   0.039
   68. BD ( 1) C  8- H 13      89. BD*( 1) C  7- C  9      0.29    1.07   0.022
   68. BD ( 1) C  8- H 13     107. RY ( 2) C  2            0.82    1.94   0.050
   68. BD ( 1) C  8- H 13     131. RY ( 1) C  7            0.82    2.03   0.052
   69. BD ( 1) C  9- C 10      84. BD*( 1) C  6- C  7      0.33    1.25   0.026
   69. BD ( 1) C  9- C 10      87. BD*( 1) C  7- C  8      1.88    1.31   0.063
   69. BD ( 1) C  9- C 10      89. BD*( 1) C  7- C  9      0.28    1.12   0.022
   69. BD ( 1) C  9- C 10      92. BD*( 1) C  9- H 14      0.27    1.19   0.023
   70. BD ( 1) C  9- H 14      84. BD*( 1) C  6- C  7      0.43    1.18   0.028
   70. BD ( 1) C  9- H 14      88. BD*( 2) C  7- C  8      2.25    0.65   0.048
   70. BD ( 1) C  9- H 14      94. BD*( 1) C 10- O 11      1.03    0.85   0.038
   70. BD ( 1) C  9- H 14     133. RY ( 3) C  7            0.31    1.54   0.028
   71. BD ( 1) C  9- H 15      88. BD*( 2) C  7- C  8      3.65    0.64   0.061
   71. BD ( 1) C  9- H 15      89. BD*( 1) C  7- C  9      0.28    1.04   0.021
   71. BD ( 1) C  9- H 15      96. BD*( 1) C 10- H 17      0.46    1.11   0.029
   71. BD ( 1) C  9- H 15     133. RY ( 3) C  7            0.37    1.53   0.030
   72. BD ( 1) C 10- O 11      83. BD*( 1) C  4- C  6      2.28    1.44   0.072
   72. BD ( 1) C 10- O 11      84. BD*( 1) C  6- C  7      0.38    1.43   0.030
   72. BD ( 1) C 10- O 11      89. BD*( 1) C  7- C  9      0.32    1.30   0.026
   72. BD ( 1) C 10- O 11     127. RY ( 1) C  6            0.58    1.98   0.043
   73. BD ( 1) C 10- H 16      85. BD*( 1) C  6- O 11      0.49    0.99   0.028
   73. BD ( 1) C 10- H 16      86. BD*( 2) C  6- O 11      0.90    0.58   0.029
   73. BD ( 1) C 10- H 16      89. BD*( 1) C  7- C  9      0.31    1.07   0.023
   73. BD ( 1) C 10- H 16      93. BD*( 1) C  9- H 15      0.26    1.14   0.022
   73. BD ( 1) C 10- H 16     140. RY ( 2) C  9            0.33    1.65   0.029
   73. BD ( 1) C 10- H 16     148. RY ( 2) O 11            0.26    2.31   0.031
   74. BD ( 1) C 10- H 17      85. BD*( 1) C  6- O 11      0.28    0.99   0.021
   74. BD ( 1) C 10- H 17      86. BD*( 2) C  6- O 11      1.73    0.57   0.040
   74. BD ( 1) C 10- H 17      93. BD*( 1) C  9- H 15      0.55    1.13   0.032
   74. BD ( 1) C 10- H 17     139. RY ( 1) C  9            0.28    1.64   0.027


 NATURAL BOND ORBITALS (Summary):

                                                     Principal Delocalizations
           NBO                 Occupancy    Energy   (geminal,vicinal,remote)
 ===============================================================================
 Molecular unit  1  (C8H6IOBr)
 ------ Lewis --------------------------------------
    1. CR ( 1)Br  1             1.00000   -20.41490
    2. CR ( 2)Br  1             1.00000  -451.50196
    3. CR ( 3)Br  1             1.00000   -80.21320
    4. CR ( 4)Br  1             1.00000    -7.39647
    5. CR ( 5)Br  1             0.99999   -55.78500
    6. CR ( 6)Br  1             1.00000    -7.38722
    7. CR ( 7)Br  1             1.00000   -55.78268
    8. CR ( 8)Br  1             1.00000    -7.38559
    9. CR ( 9)Br  1             1.00000   -55.78199
   10. CR (10)Br  1             0.99975    -2.94189  99(g)
   11. CR (11)Br  1             0.99994    -2.94070
   12. CR (12)Br  1             0.99998    -2.93346
   13. CR (13)Br  1             0.99980    -2.94181
   14. CR (14)Br  1             0.99990    -2.93558
   15. CR ( 1) C  2             0.99994   -10.48887
   16. CR ( 1) C  3             0.99993   -10.43426
   17. CR ( 1) C  4             0.99992   -10.47882
   18. CR ( 1) I  5             1.00000  -342.71538
   19. CR ( 2) I  5             1.00000  -824.53195
   20. CR ( 3) I  5             1.00000   -77.19745
   21. CR ( 4) I  5             1.00000  -133.81175
   22. CR ( 5) I  5             1.00000    -8.27235
   23. CR ( 6) I  5             1.00000  -101.98676
   24. CR ( 7) I  5             1.00000   -90.76420
   25. CR ( 8) I  5             1.00000    -8.26491
   26. CR ( 9) I  5             1.00000  -101.98445
   27. CR (10) I  5             1.00000   -90.76283
   28. CR (11) I  5             1.00000    -8.26227
   29. CR (12) I  5             1.00000  -101.98365
   30. CR (13) I  5             1.00000   -90.76219
   31. CR (14) I  5             0.99999   -16.82622
   32. CR (15) I  5             0.99986    -8.68589  121(g)
   33. CR (16) I  5             1.00000   -16.82530
   34. CR (17) I  5             0.99997    -8.68383
   35. CR (18) I  5             1.00000   -16.82252
   36. CR (19) I  5             0.99999    -8.67834
   37. CR (20) I  5             1.00000   -16.82621
   38. CR (21) I  5             0.99990    -8.68581
   39. CR (22) I  5             1.00000   -16.82314
   40. CR (23) I  5             0.99995    -8.67969
   41. CR ( 1) C  6             0.99993   -10.51868
   42. CR ( 1) C  7             0.99995   -10.44967
   43. CR ( 1) C  8             0.99992   -10.43678
   44. CR ( 1) C  9             0.99988   -10.41898  142(g)
   45. CR ( 1) C 10             0.99989   -10.46584
   46. CR ( 1) O 11             0.99993   -19.41915  149(g)
   47. LP ( 1)Br  1             0.99850    -0.91994  107(v)
   48. LP ( 2)Br  1             0.98918    -0.51828  77(v),78(v),106(v)
   49. LP ( 3)Br  1             0.85416    -0.48546  75(v),86(r)
   50. LP ( 1) I  5             0.99909    -0.82092
   51. LP ( 2) I  5             0.98940    -0.48477  83(v),79(v),114(v)
   52. LP ( 3) I  5             0.84136    -0.45169  80(v),75(r),86(r)
   53. LP ( 1) O 11             0.98600    -0.79316  84(v),127(v),91(v),143(v)
                                                     83(v),87(r),82(r),95(v)
   54. BD ( 1)Br  1- C  2       0.99274    -0.79957  79(v),110(v),135(v),87(v)
   55. BD ( 1) C  2- C  3       0.98933    -0.91072  78(g),82(v),79(g),81(g)
                                                     135(v),114(v),90(v),115(v)
                                                     136(v)
   56. BD ( 1) C  2- C  8       0.99036    -0.90635  89(v),132(v),77(g),87(g)
                                                     90(g),111(v),81(v),110(v)
   57. BD ( 1) C  3- C  4       0.98650    -0.90359  85(v),83(g),76(v),77(g)
                                                     81(g),106(v),127(v),128(v)
                                                     107(v)
   58. BD ( 2) C  3- C  4       0.85161    -0.51241  75(v),86(v),80(g),119(v)
                                                     130(v),108(v)
   59. BD ( 1) C  3- H 12       0.98934    -0.74853  78(v),83(v),107(v),115(v)
                                                     79(g),77(g),76(v)
   60. BD ( 1) C  4- I  5       0.98907    -0.73730  84(v),77(v),110(v),85(v)
                                                     127(v),128(v),81(v)
   61. BD ( 1) C  4- C  6       0.98971    -0.94096  84(g),79(g),131(v),111(v)
                                                     81(v),89(v),94(v),110(v)
                                                     85(g),147(v)
   62. BD ( 1) C  6- C  7       0.98551    -0.91249  83(g),87(g),82(v),114(v)
                                                     136(v),90(v),89(g),139(v)
                                                     115(v),91(v),147(v)
   63. BD ( 1) C  6- O 11       0.99606    -1.09021  87(v),79(v),83(g),91(v)
                                                     144(v)
   64. BD ( 2) C  6- O 11       0.94314    -0.62851  88(v),80(v),96(v),95(v)
                                                     86(g)
   65. BD ( 1) C  7- C  8       0.98480    -0.89745  84(g),89(g),76(v),78(g)
                                                     85(v),90(g),106(v),128(v)
                                                     107(v),139(v)
   66. BD ( 2) C  7- C  8       0.86860    -0.51131  75(v),86(v),93(v),92(v)
                                                     130(v),108(v)
   67. BD ( 1) C  7- C  9       0.98425    -0.81627  87(g),83(v),94(v),85(v)
                                                     135(v),84(g),78(v),127(v)
                                                     92(g),93(g),95(v)
   68. BD ( 1) C  8- H 13       0.98970    -0.75184  84(v),77(v),131(v),107(v)
                                                     87(g),78(g),76(v),89(v)
   69. BD ( 1) C  9- C 10       0.99375    -0.80296  87(v),84(v),89(g),92(g)
   70. BD ( 1) C  9- H 14       0.98408    -0.73088  88(v),94(v),84(v),133(v)
   71. BD ( 1) C  9- H 15       0.97954    -0.72719  88(v),96(v),133(v),89(g)
   72. BD ( 1) C 10- O 11       0.99462    -0.98336  83(v),127(v),84(v),89(v)
   73. BD ( 1) C 10- H 16       0.99004    -0.75468  86(v),85(v),140(v),89(v)
                                                     93(v),148(v)
   74. BD ( 1) C 10- H 17       0.98434    -0.75261  86(v),93(v),139(v),85(v)
 ------ non-Lewis ----------------------------------
   75. LV ( 1) C  2             0.38085    -0.29437
   76. BD*( 1)Br  1- C  2       0.01071     0.01322
   77. BD*( 1) C  2- C  3       0.01152     0.47213
   78. BD*( 1) C  2- C  8       0.01060     0.46223
   79. BD*( 1) C  3- C  4       0.01035     0.46483
   80. BD*( 2) C  3- C  4       0.12052    -0.11938
   81. BD*( 1) C  3- H 12       0.00582     0.41879
   82. BD*( 1) C  4- I  5       0.00998    -0.03087
   83. BD*( 1) C  4- C  6       0.01486     0.45739
   84. BD*( 1) C  6- C  7       0.01635     0.45090
   85. BD*( 1) C  6- O 11       0.01387     0.23662
   86. BD*( 2) C  6- O 11       0.11214    -0.17769
   87. BD*( 1) C  7- C  8       0.01141     0.51003
   88. BD*( 2) C  7- C  8       0.06083    -0.08463
   89. BD*( 1) C  7- C  9       0.00888     0.31735
   90. BD*( 1) C  8- H 13       0.00584     0.41441
   91. BD*( 1) C  9- C 10       0.00662     0.23853
   92. BD*( 1) C  9- H 14       0.00385     0.38513
   93. BD*( 1) C  9- H 15       0.00439     0.38159
   94. BD*( 1) C 10- O 11       0.00872     0.12304
   95. BD*( 1) C 10- H 16       0.00455     0.39400
   96. BD*( 1) C 10- H 17       0.00529     0.38244
   97. RY ( 1)Br  1             0.00047     0.59469
   98. RY ( 2)Br  1             0.00044     0.52026
   99. RY ( 3)Br  1             0.00032     0.98182
  100. RY ( 4)Br  1             0.00010     0.64095
  101. RY ( 5)Br  1             0.00005     0.78013
  102. RY ( 6)Br  1             0.00002     0.50473
  103. RY ( 7)Br  1             0.00001     0.60753
  104. RY ( 8)Br  1             0.00001     0.51850
  105. RY ( 9)Br  1             0.00001     0.56882
  106. RY ( 1) C  2             0.00371     0.91999
  107. RY ( 2) C  2             0.00258     1.18730
  108. RY ( 3) C  2             0.00060     0.77404
  109. RY ( 4) C  2             0.00012     0.54595
  110. RY ( 1) C  3             0.00358     1.15477
  111. RY ( 2) C  3             0.00189     0.81018
  112. RY ( 3) C  3             0.00038     0.55699
  113. RY ( 4) C  3             0.00030     0.75504
  114. RY ( 1) C  4             0.00401     0.84998
  115. RY ( 2) C  4             0.00167     1.09720
  116. RY ( 3) C  4             0.00072     0.76663
  117. RY ( 4) C  4             0.00015     0.54419
  118. RY ( 1) I  5             0.00079     0.41555
  119. RY ( 2) I  5             0.00059     0.49201
  120. RY ( 3) I  5             0.00032     0.48917
  121. RY ( 4) I  5             0.00012     1.01558
  122. RY ( 5) I  5             0.00006     0.58010
  123. RY ( 6) I  5             0.00004     0.45071
  124. RY ( 7) I  5             0.00002     0.54242
  125. RY ( 8) I  5             0.00000     0.41942
  126. RY ( 9) I  5             0.00001     0.49486
  127. RY ( 1) C  6             0.00384     0.99231
  128. RY ( 2) C  6             0.00171     1.13360
  129. RY ( 3) C  6             0.00093     0.56158
  130. RY ( 4) C  6             0.00051     0.76529
  131. RY ( 1) C  7             0.00207     1.27612
  132. RY ( 2) C  7             0.00151     1.07151
  133. RY ( 3) C  7             0.00056     0.80781
  134. RY ( 4) C  7             0.00034     0.63091
  135. RY ( 1) C  8             0.00303     1.12936
  136. RY ( 2) C  8             0.00185     0.85993
  137. RY ( 3) C  8             0.00034     0.55920
  138. RY ( 4) C  8             0.00017     0.75941
  139. RY ( 1) C  9             0.00107     0.88380
  140. RY ( 2) C  9             0.00063     0.89532
  141. RY ( 3) C  9             0.00039     0.76991
  142. RY ( 4) C  9             0.00016     1.02107
  143. RY ( 1) C 10             0.00119     0.74917
  144. RY ( 2) C 10             0.00074     0.91681
  145. RY ( 3) C 10             0.00039     0.85727
  146. RY ( 4) C 10             0.00013     0.87770
  147. RY ( 1) O 11             0.00071     1.45346
  148. RY ( 2) O 11             0.00036     1.55430
  149. RY ( 3) O 11             0.00027     1.85683
  150. RY ( 4) O 11             0.00015     2.11788
  151. RY ( 5) O 11             0.00007     1.68417
  152. RY ( 6) O 11             0.00004     1.89478
  153. RY ( 7) O 11             0.00002     1.89110
  154. RY ( 8) O 11             0.00001     1.87818
  155. RY ( 9) O 11             0.00000     1.75168
  156. RY ( 1) H 12             0.00074     0.46657
  157. RY ( 1) H 13             0.00054     0.46165
  158. RY ( 1) H 14             0.00033     0.45835
  159. RY ( 1) H 15             0.00039     0.46059
  160. RY ( 1) H 16             0.00032     0.43662
  161. RY ( 1) H 17             0.00042     0.44037
          -------------------------------
                 Total Lewis   73.11307  ( 98.8014%)
           Valence non-Lewis    0.83795  (  1.1324%)
           Rydberg non-Lewis    0.04899  (  0.0662%)
          -------------------------------
               Total unit  1   74.00000  (100.0000%)
              Charge unit  1    1.00000

 $CHOOSE
  ALPHA
   LONE 1 3 5 3 11 2 END
   BOND S 1 2 D 2 3 S 2 8 S 3 4 S 3 12 S 4 5 D 4 6 S 6 7 S 6 11 D 7 8 S 7 9
        S 8 13 S 9 10 S 9 14 S 9 15 S 10 11 S 10 16 S 10 17 END
  END
  BETA
   LONE 1 3 5 3 11 1 END
   BOND S 1 2 S 2 3 S 2 8 D 3 4 S 3 12 S 4 5 S 4 6 S 6 7 D 6 11 D 7 8 S 7 9
        S 8 13 S 9 10 S 9 14 S 9 15 S 10 11 S 10 16 S 10 17 END
  END
 $END

 NBO analysis completed in 0.90 CPU seconds (1 wall second)
 Maximum scratch memory used by NBO was 776005 words (5.92 MB)
 Maximum scratch memory used by G16NBO was 61055 words (0.47 MB)

 Opening RunExU unformatted file "/home/rpaton/opt/midi/fukui/Gau-1704570.EUF"
 Read unf file /home/rpaton/opt/midi/fukui/Gau-1704570.EUF:
 Label Gaussian matrix elements                                         IVers= 2 NLab= 2 Version=ES64L-G16RevC.01
 Title arbr48_wb97xd_popncreated by GaussianPrep                       
 NAtoms=    17 NBasis=   161 NBsUse=   161 ICharg=     1 Multip=     2 NE=   149 Len12L=8 Len4L=8 IOpCl= 1 ICGU=112
 GAUSSIAN SCALARS                    NI= 1 NR= 1 NTot=       1 LenBuf=    2 NRI=1 N=    1000
 NPA CHARGES                         NI= 0 NR= 1 NTot=      17 LenBuf= 2048 NRI=1 N=      17
 Recovered energy= -9833.34755088     dipole=      0.257939454125      2.413749083687      0.054095431566
 Unable to Open any file for archive entry.
 1\1\GINC-DYNAMO\SP\UwB97XD\MIDIx\C8H6Br1I1O1(1+,2)\RPATON\27-Sep-2024\
 0\\# pop=(nbo6,hirshfeld) wb97xd/midix\\arbr48_wb97xd_popncreated by G
 aussianPrep\\1,2\Br,0,3.509371,-0.901726,0.012605\C,0,1.835367,-0.0080
 24,-0.005071\C,0,0.664042,-0.754539,-0.002642\C,0,-0.57897,-0.121234,-
 0.01064\I,0,-2.364548,-1.215072,-0.002022\C,0,-0.605917,1.265492,-0.01
 9999\C,0,0.571558,2.011383,-0.027059\C,0,1.800922,1.386907,-0.021227\C
 ,0,0.20605,3.47488,-0.085903\C,0,-1.337016,3.413036,0.133889\O,0,-1.74
 0816,2.016687,-0.033451\H,0,0.71737,-1.838164,0.008993\H,0,2.724363,1.
 95876,-0.0306\H,0,0.700088,4.068766,0.691502\H,0,0.458775,3.909235,-1.
 062298\H,0,-1.903847,4.001275,-0.592113\H,0,-1.613391,3.718445,1.15006
 5\\Version=ES64L-G16RevC.01\State=2-A\HF=-9833.3475509\S2=0.766951\S2-
 1=0.\S2A=0.750168\RMSD=8.387e-09\Dipole=0.2579388,2.4137492,0.0540954\
 Quadrupole=2.8743394,12.3584519,-15.2327913,-1.0982358,-0.2550313,0.29
 84289\PG=C01 [X(C8H6Br1I1O1)]\\@
 The archive entry for this job was punched.


 Sometimes the fool who rushes in gets the job done.
                                    -- Al Bernstein
 Job cpu time:       0 days  0 hours 10 minutes 20.6 seconds.
 Elapsed time:       0 days  0 hours  0 minutes 26.1 seconds.
 File lengths (MBytes):  RWF=     30 Int=      0 D2E=      0 Chk=      3 Scr=      1
 Normal termination of Gaussian 16 at Fri Sep 27 17:57:00 2024.
