 Entering Gaussian System, Link 0=/usr/local/Gaussian/G16C/g16/g16
 Input=arbr34_wb97xd_oxd.com
 Output=arbr34_wb97xd_oxd.log
 Initial command:
 /usr/local/Gaussian/G16C/g16/l1.exe "/home/rpaton/opt/midi/fukui/Gau-1681723.inp" -scrdir="/home/rpaton/opt/midi/fukui/"
 Entering Link 1 = /usr/local/Gaussian/G16C/g16/l1.exe PID=   1681724.
  
 Copyright (c) 1988-2019, Gaussian, Inc.  All Rights Reserved.
  
 This is part of the Gaussian(R) 16 program.  It is based on
 the Gaussian(R) 09 system (copyright 2009, Gaussian, Inc.),
 the Gaussian(R) 03 system (copyright 2003, Gaussian, Inc.),
 the Gaussian(R) 98 system (copyright 1998, Gaussian, Inc.),
 the Gaussian(R) 94 system (copyright 1995, Gaussian, Inc.),
 the Gaussian 92(TM) system (copyright 1992, Gaussian, Inc.),
 the Gaussian 90(TM) system (copyright 1990, Gaussian, Inc.),
 the Gaussian 88(TM) system (copyright 1988, Gaussian, Inc.),
 the Gaussian 86(TM) system (copyright 1986, Carnegie Mellon
 University), and the Gaussian 82(TM) system (copyright 1983,
 Carnegie Mellon University). Gaussian is a federally registered
 trademark of Gaussian, Inc.
  
 This software contains proprietary and confidential information,
 including trade secrets, belonging to Gaussian, Inc.
  
 This software is provided under written license and may be
 used, copied, transmitted, or stored only in accord with that
 written license.
  
 The following legend is applicable only to US Government
 contracts under FAR:
  
                    RESTRICTED RIGHTS LEGEND
  
 Use, reproduction and disclosure by the US Government is
 subject to restrictions as set forth in subparagraphs (a)
 and (c) of the Commercial Computer Software - Restricted
 Rights clause in FAR 52.227-19.
  
 Gaussian, Inc.
 340 Quinnipiac St., Bldg. 40, Wallingford CT 06492
  
  
 ---------------------------------------------------------------
 Warning -- This program may not be used in any manner that
 competes with the business of Gaussian, Inc. or will provide
 assistance to any competitor of Gaussian, Inc.  The licensee
 of this program is prohibited from giving any competitor of
 Gaussian, Inc. access to this program.  By using this program,
 the user acknowledges that Gaussian, Inc. is engaged in the
 business of creating and licensing software in the field of
 computational chemistry and represents and warrants to the
 licensee that it is not a competitor of Gaussian, Inc. and that
 it will not use this program in any manner prohibited above.
 ---------------------------------------------------------------
  

 Cite this work as:
 Gaussian 16, Revision C.01,
 M. J. Frisch, G. W. Trucks, H. B. Schlegel, G. E. Scuseria, 
 M. A. Robb, J. R. Cheeseman, G. Scalmani, V. Barone, 
 G. A. Petersson, H. Nakatsuji, X. Li, M. Caricato, A. V. Marenich, 
 J. Bloino, B. G. Janesko, R. Gomperts, B. Mennucci, H. P. Hratchian, 
 J. V. Ortiz, A. F. Izmaylov, J. L. Sonnenberg, D. Williams-Young, 
 F. Ding, F. Lipparini, F. Egidi, J. Goings, B. Peng, A. Petrone, 
 T. Henderson, D. Ranasinghe, V. G. Zakrzewski, J. Gao, N. Rega, 
 G. Zheng, W. Liang, M. Hada, M. Ehara, K. Toyota, R. Fukuda, 
 J. Hasegawa, M. Ishida, T. Nakajima, Y. Honda, O. Kitao, H. Nakai, 
 T. Vreven, K. Throssell, J. A. Montgomery, Jr., J. E. Peralta, 
 F. Ogliaro, M. J. Bearpark, J. J. Heyd, E. N. Brothers, K. N. Kudin, 
 V. N. Staroverov, T. A. Keith, R. Kobayashi, J. Normand, 
 K. Raghavachari, A. P. Rendell, J. C. Burant, S. S. Iyengar, 
 J. Tomasi, M. Cossi, J. M. Millam, M. Klene, C. Adamo, R. Cammi, 
 J. W. Ochterski, R. L. Martin, K. Morokuma, O. Farkas, 
 J. B. Foresman, and D. J. Fox, Gaussian, Inc., Wallingford CT, 2019.
 
 ******************************************
 Gaussian 16:  ES64L-G16RevC.01  3-Jul-2019
                27-Sep-2024 
 ******************************************
 %chk=arbr34_wb97xd_popn.chk
 %mem=48GB
 %nprocshared=24
 Will use up to   24 processors via shared memory.
 -----------------------------------
 # pop=(nbo6,hirshfeld) wb97xd/midix
 -----------------------------------
 1/38=1,172=1/1;
 2/12=2,17=6,18=5,40=1/2;
 3/5=20,11=2,25=1,30=1,74=-58/1,2,3;
 4//1;
 5/5=2,38=5/2;
 6/7=2,8=2,9=2,10=2,28=1,40=1,79=1,113=1,114=1,124=3103,126=1/1,12;
 99/5=1,9=1/99;
 -----------------------------------------
 arbr34_wb97xd_popncreated by GaussianPrep
 -----------------------------------------
 Symbolic Z-matrix:
 Charge =  1 Multiplicity = 2
 Br                    3.83154  -0.11031  0. 
 C                     1.94964   0.14419   0.00001 
 C                     1.43583   1.43759  0. 
 C                     0.05808   1.63711   0. 
 C                    -0.7857    0.53513   0. 
 C                    -0.25499  -0.76286   0. 
 C                     1.1125   -0.96912   0. 
 C                    -1.3752   -1.78627  0. 
 C                    -2.61468  -0.9096    0. 
 C                    -3.94872  -1.27683   0. 
 C                    -4.924    -0.27896  0. 
 C                    -4.56115   1.06739   0. 
 C                    -3.21884   1.43846  0. 
 C                    -2.24921   0.44467  0. 
 H                     2.11353   2.28553  0. 
 H                    -0.34327   2.64765   0. 
 H                     1.53421  -1.97061   0. 
 H                    -1.3334   -2.43507  -0.88701 
 H                    -1.3334   -2.43507   0.887 
 H                    -4.23715  -2.326    0. 
 H                    -5.97575  -0.55338  0. 
 H                    -5.33261   1.83313   0. 
 H                    -2.93756   2.48915  0. 
 
                          Input orientation:                          
 ---------------------------------------------------------------------
 Center     Atomic      Atomic             Coordinates (Angstroms)
 Number     Number       Type             X           Y           Z
 ---------------------------------------------------------------------
      1         35           0        3.831541   -0.110310   -0.000001
      2          6           0        1.949640    0.144188    0.000005
      3          6           0        1.435826    1.437592   -0.000001
      4          6           0        0.058084    1.637113    0.000003
      5          6           0       -0.785697    0.535134    0.000001
      6          6           0       -0.254988   -0.762855    0.000002
      7          6           0        1.112498   -0.969119    0.000004
      8          6           0       -1.375197   -1.786266   -0.000003
      9          6           0       -2.614683   -0.909601    0.000002
     10          6           0       -3.948719   -1.276830    0.000001
     11          6           0       -4.923995   -0.278960   -0.000002
     12          6           0       -4.561147    1.067392    0.000002
     13          6           0       -3.218836    1.438459   -0.000004
     14          6           0       -2.249210    0.444674   -0.000002
     15          1           0        2.113525    2.285526   -0.000003
     16          1           0       -0.343268    2.647645    0.000001
     17          1           0        1.534208   -1.970614    0.000002
     18          1           0       -1.333401   -2.435065   -0.887005
     19          1           0       -1.333403   -2.435068    0.886996
     20          1           0       -4.237146   -2.326001   -0.000001
     21          1           0       -5.975748   -0.553380   -0.000003
     22          1           0       -5.332606    1.833126    0.000002
     23          1           0       -2.937557    2.489153   -0.000002
 ---------------------------------------------------------------------
                    Distance matrix (angstroms):
                    1          2          3          4          5
     1  Br   0.000000
     2  C    1.899031   0.000000
     3  C    2.852271   1.391725   0.000000
     4  C    4.158421   2.409732   1.392114   0.000000
     5  C    4.662133   2.763134   2.397831   1.387921   0.000000
     6  C    4.138301   2.383928   2.775035   2.420302   1.402294
     7  C    2.851447   1.392932   2.428333   2.811447   2.421966
     8  C    5.469822   3.844632   4.277278   3.711309   2.395080
     9  C    6.495588   4.684391   4.681446   3.691807   2.330761
    10  C    7.867224   6.067119   6.030042   4.954345   3.645260
    11  C    8.757160   6.886647   6.587403   5.337832   4.217613
    12  C    8.474916   6.575915   6.008389   4.654232   3.812784
    13  C    7.218483   5.328065   4.654662   3.282936   2.595412
    14  C    6.106025   4.209588   3.816461   2.597213   1.466306
    15  H    2.948154   2.147600   1.085481   2.155290   3.386644
    16  H    5.003533   3.394808   2.151605   1.087317   2.158343
    17  H    2.956090   2.155220   3.409626   3.898030   3.414781
    18  H    5.733052   4.268219   4.842816   4.393819   3.147831
    19  H    5.733054   4.268218   4.842818   4.393820   3.147831
    20  H    8.367377   6.661693   6.807881   5.844251   4.483146
    21  H    9.817292   7.956028   7.674334   6.419142   5.302970
    22  H    9.367952   7.475535   6.779979   5.394252   4.728548
    23  H    7.251062   5.420660   4.498028   3.114456   2.906663
                    6          7          8          9         10
     6  C    0.000000
     7  C    1.382954   0.000000
     8  C    1.517313   2.618464   0.000000
     9  C    2.364254   3.727656   1.518179   0.000000
    10  C    3.729319   5.070562   2.623460   1.383658   0.000000
    11  C    4.694015   6.075818   3.855637   2.393873   1.395316
    12  C    4.678975   6.028070   4.277107   2.774387   2.422900
    13  C    3.691907   4.955490   3.714547   2.424538   2.811676
    14  C    2.331319   3.646902   2.396037   1.402723   2.419071
    15  H    3.860373   3.405109   5.361965   5.706557   7.031442
    16  H    3.411642   3.898748   4.552411   4.220584   5.329238
    17  H    2.158681   1.086661   2.915240   4.282411   5.526647
    18  H    2.178541   2.986336   1.099754   2.180712   2.994691
    19  H    2.178539   2.986334   1.099754   2.180708   2.994687
    20  H    4.277968   5.519042   2.912399   2.153735   1.088095
    21  H    5.724594   7.100427   4.762885   3.379889   2.152261
    22  H    5.702747   7.027940   5.362936   3.861302   3.403964
    23  H    4.215653   5.325654   4.551942   3.414056   3.899369
                   11         12         13         14         15
    11  C    0.000000
    12  C    1.394390   0.000000
    13  C    2.420144   1.392656   0.000000
    14  C    2.770942   2.394333   1.388446   0.000000
    15  H    7.490212   6.784917   5.399222   4.735208   0.000000
    16  H    5.435814   4.504187   3.119459   2.913022   2.483337
    17  H    6.676083   6.810494   5.849206   4.488638   4.295385
    18  H    4.281113   4.844825   4.398389   3.149346   5.912026
    19  H    4.281112   4.844824   4.398390   3.149346   5.912029
    20  H    2.159199   3.408826   3.899758   3.410063   7.848389
    21  H    1.086964   2.151278   3.401174   3.857875   8.572965
    22  H    2.151249   1.086967   2.150299   3.381587   7.459861
    23  H    3.407108   2.158112   1.087693   2.157247   5.055185
                   16         17         18         19         20
    16  H    0.000000
    17  H    4.985302   0.000000
    18  H    5.253673   3.037380   0.000000
    19  H    5.253675   3.037379   1.774001   0.000000
    20  H    6.316600   5.782286   3.038158   3.038154   0.000000
    21  H    6.478533   7.642512   5.087130   5.087129   2.482926
    22  H    5.055387   7.849941   5.915900   5.915899   4.300973
    23  H    2.599126   6.315553   5.254333   5.254334   4.987448
                   21         22         23
    21  H    0.000000
    22  H    2.471648   0.000000
    23  H    4.299722   2.483270   0.000000
 Stoichiometry    C13H9Br(1+,2)
 Framework group  C1[X(C13H9Br)]
 Deg. of freedom    63
 Full point group                 C1      NOp   1
 Largest Abelian subgroup         C1      NOp   1
 Largest concise Abelian subgroup C1      NOp   1
                         Standard orientation:                         
 ---------------------------------------------------------------------
 Center     Atomic      Atomic             Coordinates (Angstroms)
 Number     Number       Type             X           Y           Z
 ---------------------------------------------------------------------
      1         35           0       -3.831541   -0.110310    0.000001
      2          6           0       -1.949640    0.144188   -0.000005
      3          6           0       -1.435826    1.437592    0.000001
      4          6           0       -0.058084    1.637113   -0.000003
      5          6           0        0.785697    0.535134   -0.000001
      6          6           0        0.254988   -0.762855   -0.000002
      7          6           0       -1.112498   -0.969119   -0.000004
      8          6           0        1.375197   -1.786266    0.000003
      9          6           0        2.614683   -0.909601   -0.000002
     10          6           0        3.948719   -1.276830   -0.000001
     11          6           0        4.923995   -0.278960    0.000002
     12          6           0        4.561147    1.067392   -0.000002
     13          6           0        3.218836    1.438459    0.000004
     14          6           0        2.249210    0.444674    0.000002
     15          1           0       -2.113525    2.285526    0.000003
     16          1           0        0.343268    2.647645   -0.000001
     17          1           0       -1.534208   -1.970614   -0.000002
     18          1           0        1.333401   -2.435065    0.887005
     19          1           0        1.333403   -2.435068   -0.886996
     20          1           0        4.237146   -2.326001    0.000001
     21          1           0        5.975748   -0.553380    0.000003
     22          1           0        5.332606    1.833126   -0.000002
     23          1           0        2.937557    2.489153    0.000002
 ---------------------------------------------------------------------
 Rotational constants (GHZ):           2.1542214           0.2139549           0.1948630
 Standard basis: MIDIx (5D, 7F)
 There are   164 symmetry adapted cartesian basis functions of A   symmetry.
 There are   162 symmetry adapted basis functions of A   symmetry.
   162 basis functions,   285 primitive gaussians,   164 cartesian basis functions
    61 alpha electrons       60 beta electrons
       nuclear repulsion energy      1039.9692813284 Hartrees.
 NAtoms=   23 NActive=   23 NUniq=   23 SFac= 1.00D+00 NAtFMM=   60 NAOKFM=F Big=F
 Integral buffers will be    131072 words long.
 Raffenetti 2 integral format.
 Two-electron integral symmetry is turned on.
 Nuclear repulsion after empirical dispersion term =     1039.9546596922 Hartrees.
 One-electron integrals computed using PRISM.
 NBasis=   162 RedAO= T EigKep=  1.02D-03  NBF=   162
 NBsUse=   162 1.00D-06 EigRej= -1.00D+00 NBFU=   162
 ExpMin= 1.47D-01 ExpMax= 6.10D+03 ExpMxC= 6.10D+03 IAcc=3 IRadAn=         5 AccDes= 0.00D+00
 Harris functional with IExCor= 4639 and IRadAn=       5 diagonalized for initial guess.
 HarFok:  IExCor= 4639 AccDes= 0.00D+00 IRadAn=         5 IDoV= 1 UseB2=F ITyADJ=14
 ICtDFT=  3500011 ScaDFX=  1.000000  1.000000  1.000000  1.000000
 FoFCou: FMM=F IPFlag=           0 FMFlag=      100000 FMFlg1=           0
         NFxFlg=           0 DoJE=T BraDBF=F KetDBF=T FulRan=T
         wScrn=  0.000000 ICntrl=       500 IOpCl=  0 I1Cent=   200000004 NGrid=           0
         NMat0=    1 NMatS0=      1 NMatT0=    0 NMatD0=    1 NMtDS0=    0 NMtDT0=    0
 Petite list used in FoFCou.
 Initial guess <Sx>= 0.0000 <Sy>= 0.0000 <Sz>= 0.5000 <S**2>= 0.7500 S= 0.5000
 Requested convergence on RMS density matrix=1.00D-08 within 128 cycles.
 Requested convergence on MAX density matrix=1.00D-06.
 Requested convergence on             energy=1.00D-06.
 No special actions if energy rises.
 Integral accuracy reduced to 1.0D-05 until final iterations.
 Initial convergence to 1.0D-05 achieved.  Increase integral accuracy.
 SCF Done:  E(UwB97XD) =  -3059.47394959     A.U. after   24 cycles
            NFock= 24  Conv=0.98D-08     -V/T= 2.0025
 <Sx>= 0.0000 <Sy>= 0.0000 <Sz>= 0.5000 <S**2>= 0.7755 S= 0.5127
 <L.S>= 0.000000000000E+00
 Annihilation of the first spin contaminant:
 S**2 before annihilation     0.7755,   after     0.7504

 **********************************************************************

            Population analysis using the SCF Density.

 **********************************************************************

 Orbital symmetries:
 Alpha Orbitals:
       Occupied  (A) (A) (A) (A) (A) (A) (A) (A) (A) (A) (A) (A)
                 (A) (A) (A) (A) (A) (A) (A) (A) (A) (A) (A) (A)
                 (A) (A) (A) (A) (A) (A) (A) (A) (A) (A) (A) (A)
                 (A) (A) (A) (A) (A) (A) (A) (A) (A) (A) (A) (A)
                 (A) (A) (A) (A) (A) (A) (A) (A) (A) (A) (A) (A)
                 (A)
       Virtual   (A) (A) (A) (A) (A) (A) (A) (A) (A) (A) (A) (A)
                 (A) (A) (A) (A) (A) (A) (A) (A) (A) (A) (A) (A)
                 (A) (A) (A) (A) (A) (A) (A) (A) (A) (A) (A) (A)
                 (A) (A) (A) (A) (A) (A) (A) (A) (A) (A) (A) (A)
                 (A) (A) (A) (A) (A) (A) (A) (A) (A) (A) (A) (A)
                 (A) (A) (A) (A) (A) (A) (A) (A) (A) (A) (A) (A)
                 (A) (A) (A) (A) (A) (A) (A) (A) (A) (A) (A) (A)
                 (A) (A) (A) (A) (A) (A) (A) (A) (A) (A) (A) (A)
                 (A) (A) (A) (A) (A)
 Beta  Orbitals:
       Occupied  (A) (A) (A) (A) (A) (A) (A) (A) (A) (A) (A) (A)
                 (A) (A) (A) (A) (A) (A) (A) (A) (A) (A) (A) (A)
                 (A) (A) (A) (A) (A) (A) (A) (A) (A) (A) (A) (A)
                 (A) (A) (A) (A) (A) (A) (A) (A) (A) (A) (A) (A)
                 (A) (A) (A) (A) (A) (A) (A) (A) (A) (A) (A) (A)
       Virtual   (A) (A) (A) (A) (A) (A) (A) (A) (A) (A) (A) (A)
                 (A) (A) (A) (A) (A) (A) (A) (A) (A) (A) (A) (A)
                 (A) (A) (A) (A) (A) (A) (A) (A) (A) (A) (A) (A)
                 (A) (A) (A) (A) (A) (A) (A) (A) (A) (A) (A) (A)
                 (A) (A) (A) (A) (A) (A) (A) (A) (A) (A) (A) (A)
                 (A) (A) (A) (A) (A) (A) (A) (A) (A) (A) (A) (A)
                 (A) (A) (A) (A) (A) (A) (A) (A) (A) (A) (A) (A)
                 (A) (A) (A) (A) (A) (A) (A) (A) (A) (A) (A) (A)
                 (A) (A) (A) (A) (A) (A)
 The electronic state is 2-A.
 Alpha  occ. eigenvalues -- -480.30775 -62.74109 -56.33012 -56.32635 -56.32545
 Alpha  occ. eigenvalues --  -10.47997 -10.44468 -10.43560 -10.43278 -10.42551
 Alpha  occ. eigenvalues --  -10.42409 -10.41877 -10.41713 -10.41399 -10.41150
 Alpha  occ. eigenvalues --  -10.40694 -10.39886 -10.39838  -9.04946  -6.83419
 Alpha  occ. eigenvalues --   -6.82157  -6.81835  -2.93739  -2.93327  -2.93119
 Alpha  occ. eigenvalues --   -2.92030  -2.92024  -1.19321  -1.15104  -1.10208
 Alpha  occ. eigenvalues --   -1.06535  -1.03747  -1.02643  -0.98667  -0.96442
 Alpha  occ. eigenvalues --   -0.90867  -0.86234  -0.85290  -0.84450  -0.78194
 Alpha  occ. eigenvalues --   -0.75454  -0.74247  -0.71023  -0.70853  -0.70115
 Alpha  occ. eigenvalues --   -0.69268  -0.67664  -0.66744  -0.65458  -0.64553
 Alpha  occ. eigenvalues --   -0.62556  -0.60764  -0.60607  -0.58981  -0.58092
 Alpha  occ. eigenvalues --   -0.57315  -0.51418  -0.51326  -0.50655  -0.48750
 Alpha  occ. eigenvalues --   -0.46573
 Alpha virt. eigenvalues --   -0.14588  -0.10937  -0.08831  -0.06775  -0.06275
 Alpha virt. eigenvalues --    0.03958   0.04240   0.05145   0.06769   0.08741
 Alpha virt. eigenvalues --    0.09781   0.10825   0.10832   0.12201   0.14130
 Alpha virt. eigenvalues --    0.14462   0.15789   0.18473   0.19092   0.20375
 Alpha virt. eigenvalues --    0.21240   0.23709   0.24585   0.29220   0.30248
 Alpha virt. eigenvalues --    0.31568   0.32802   0.36973   0.38291   0.40664
 Alpha virt. eigenvalues --    0.42527   0.43979   0.44620   0.45584   0.48037
 Alpha virt. eigenvalues --    0.48827   0.49011   0.49513   0.49786   0.51308
 Alpha virt. eigenvalues --    0.53422   0.53833   0.56002   0.56928   0.58399
 Alpha virt. eigenvalues --    0.59851   0.62002   0.62613   0.62984   0.64787
 Alpha virt. eigenvalues --    0.68442   0.68945   0.70249   0.74995   0.75193
 Alpha virt. eigenvalues --    0.77276   0.77312   0.78654   0.79330   0.80005
 Alpha virt. eigenvalues --    0.80017   0.81344   0.81468   0.82154   0.84549
 Alpha virt. eigenvalues --    0.84920   0.85040   0.85962   0.86705   0.87826
 Alpha virt. eigenvalues --    0.87972   0.88502   0.89081   0.90147   0.90677
 Alpha virt. eigenvalues --    0.93637   0.93682   0.96270   0.97061   0.97859
 Alpha virt. eigenvalues --    0.99946   1.02404   1.04334   1.06649   1.07682
 Alpha virt. eigenvalues --    1.11228   1.12090   1.20060   1.25522   1.28253
 Alpha virt. eigenvalues --    1.38751   1.41540   1.43306   1.45414   1.51041
 Alpha virt. eigenvalues --    1.52445   1.63189   1.67263   1.67984   1.81853
 Alpha virt. eigenvalues --    1.86653
  Beta  occ. eigenvalues -- -480.30741 -62.74086 -56.33001 -56.32548 -56.32528
  Beta  occ. eigenvalues --  -10.47682 -10.44285 -10.43416 -10.43168 -10.42372
  Beta  occ. eigenvalues --  -10.42321 -10.41889 -10.41787 -10.41121 -10.41031
  Beta  occ. eigenvalues --  -10.40714 -10.39985 -10.39892  -9.04901  -6.83409
  Beta  occ. eigenvalues --   -6.82026  -6.81816  -2.93715  -2.93271  -2.93113
  Beta  occ. eigenvalues --   -2.91973  -2.91970  -1.18747  -1.14564  -1.09645
  Beta  occ. eigenvalues --   -1.06156  -1.03255  -1.02465  -0.97765  -0.96379
  Beta  occ. eigenvalues --   -0.90455  -0.85850  -0.84942  -0.84133  -0.78103
  Beta  occ. eigenvalues --   -0.75246  -0.73969  -0.70646  -0.70208  -0.69899
  Beta  occ. eigenvalues --   -0.69104  -0.67440  -0.66642  -0.65304  -0.63220
  Beta  occ. eigenvalues --   -0.61294  -0.60613  -0.60381  -0.58813  -0.57925
  Beta  occ. eigenvalues --   -0.54634  -0.51131  -0.50365  -0.48577  -0.47784
  Beta virt. eigenvalues --   -0.29129  -0.12384  -0.10069  -0.07641  -0.06262
  Beta virt. eigenvalues --   -0.04467   0.04057   0.05027   0.05252   0.06802
  Beta virt. eigenvalues --    0.08846   0.09786   0.10899   0.12032   0.12356
  Beta virt. eigenvalues --    0.14339   0.14624   0.15967   0.18676   0.19551
  Beta virt. eigenvalues --    0.20613   0.21472   0.24067   0.24727   0.29643
  Beta virt. eigenvalues --    0.30449   0.31838   0.33014   0.37114   0.38454
  Beta virt. eigenvalues --    0.40817   0.42731   0.44133   0.44820   0.45775
  Beta virt. eigenvalues --    0.48181   0.49641   0.49691   0.49787   0.50020
  Beta virt. eigenvalues --    0.51633   0.53547   0.53972   0.56107   0.57442
  Beta virt. eigenvalues --    0.58487   0.59986   0.62132   0.62753   0.63561
  Beta virt. eigenvalues --    0.64915   0.68860   0.69421   0.70573   0.75331
  Beta virt. eigenvalues --    0.75481   0.77332   0.77448   0.78862   0.79438
  Beta virt. eigenvalues --    0.80149   0.80554   0.81483   0.81977   0.82284
  Beta virt. eigenvalues --    0.84653   0.85074   0.85397   0.86058   0.86751
  Beta virt. eigenvalues --    0.87930   0.88437   0.88636   0.89749   0.90261
  Beta virt. eigenvalues --    0.90759   0.93829   0.93906   0.96378   0.97744
  Beta virt. eigenvalues --    0.98004   1.00018   1.02689   1.04438   1.06744
  Beta virt. eigenvalues --    1.07804   1.11331   1.12228   1.20214   1.25671
  Beta virt. eigenvalues --    1.28429   1.38956   1.41739   1.43451   1.45735
  Beta virt. eigenvalues --    1.51200   1.52612   1.63582   1.67461   1.68174
  Beta virt. eigenvalues --    1.82045   1.86760
          Condensed to atoms (all electrons):
               1          2          3          4          5          6
     1  Br  34.703472   0.244331  -0.037372   0.001590   0.000275   0.002056
     2  C    0.244331   5.080407   0.416804  -0.031661  -0.042138  -0.015790
     3  C   -0.037372   0.416804   4.971852   0.525510  -0.032140  -0.035780
     4  C    0.001590  -0.031661   0.525510   4.850146   0.405649  -0.021964
     5  C    0.000275  -0.042138  -0.032140   0.405649   5.038196   0.405316
     6  C    0.002056  -0.015790  -0.035780  -0.021964   0.405316   5.113806
     7  C   -0.039357   0.440572  -0.044861  -0.019495  -0.024875   0.478057
     8  C   -0.000014   0.000087   0.000659  -0.000127  -0.045637   0.298575
     9  C    0.000000  -0.000134  -0.000105   0.001007  -0.041715  -0.072540
    10  C   -0.000000  -0.000000   0.000001   0.000028   0.000663   0.001453
    11  C    0.000000   0.000000   0.000000   0.000000   0.000818  -0.000111
    12  C   -0.000000   0.000000  -0.000001   0.000089   0.000171  -0.000114
    13  C   -0.000000   0.000000   0.000091  -0.000369   0.009911   0.000963
    14  C    0.000002   0.000802   0.000155   0.009819   0.380343  -0.041669
    15  H    0.000956  -0.017841   0.384653  -0.011986   0.002340   0.000050
    16  H   -0.000039   0.002283  -0.014224   0.388271  -0.017189   0.002125
    17  H    0.000894  -0.014571   0.001891   0.000024   0.002032  -0.009471
    18  H   -0.000000   0.000044  -0.000003  -0.000004   0.000759  -0.022978
    19  H   -0.000000   0.000044  -0.000003  -0.000004   0.000759  -0.022979
    20  H   -0.000000  -0.000000  -0.000000  -0.000000  -0.000094   0.000101
    21  H   -0.000000   0.000000  -0.000000  -0.000000   0.000003   0.000001
    22  H   -0.000000  -0.000000   0.000000  -0.000000  -0.000021   0.000000
    23  H   -0.000000   0.000000  -0.000005   0.001507  -0.006149   0.000097
               7          8          9         10         11         12
     1  Br  -0.039357  -0.000014   0.000000  -0.000000   0.000000  -0.000000
     2  C    0.440572   0.000087  -0.000134  -0.000000   0.000000   0.000000
     3  C   -0.044861   0.000659  -0.000105   0.000001   0.000000  -0.000001
     4  C   -0.019495  -0.000127   0.001007   0.000028   0.000000   0.000089
     5  C   -0.024875  -0.045637  -0.041715   0.000663   0.000818   0.000171
     6  C    0.478057   0.298575  -0.072540   0.001453  -0.000111  -0.000114
     7  C    4.910276   0.005674   0.001635   0.000043  -0.000000   0.000001
     8  C    0.005674   5.049638   0.309580   0.007238  -0.000135   0.000738
     9  C    0.001635   0.309580   5.108088   0.475467  -0.030935  -0.039234
    10  C    0.000043   0.007238   0.475467   4.890916   0.489586  -0.045285
    11  C   -0.000000  -0.000135  -0.030935   0.489586   4.940419   0.469268
    12  C    0.000001   0.000738  -0.039234  -0.045285   0.469268   4.941827
    13  C    0.000022  -0.000413  -0.019337  -0.024668  -0.047744   0.532418
    14  C    0.000805  -0.047743   0.417663  -0.028536  -0.030862  -0.038307
    15  H    0.002081   0.000003   0.000000  -0.000000  -0.000000   0.000000
    16  H   -0.000126  -0.000050   0.000106   0.000001   0.000000  -0.000006
    17  H    0.380178  -0.003645   0.000092   0.000000  -0.000000  -0.000000
    18  H   -0.003635   0.383372  -0.023604  -0.003455   0.000046  -0.000001
    19  H   -0.003636   0.383372  -0.023604  -0.003455   0.000046  -0.000001
    20  H    0.000000  -0.004001  -0.017101   0.390297  -0.015817   0.002039
    21  H   -0.000000  -0.000013   0.002801  -0.019516   0.391379  -0.019105
    22  H   -0.000000   0.000003   0.000110   0.002228  -0.019416   0.393695
    23  H    0.000000  -0.000055   0.002078  -0.000050   0.002184  -0.013800
              13         14         15         16         17         18
     1  Br  -0.000000   0.000002   0.000956  -0.000039   0.000894  -0.000000
     2  C    0.000000   0.000802  -0.017841   0.002283  -0.014571   0.000044
     3  C    0.000091   0.000155   0.384653  -0.014224   0.001891  -0.000003
     4  C   -0.000369   0.009819  -0.011986   0.388271   0.000024  -0.000004
     5  C    0.009911   0.380343   0.002340  -0.017189   0.002032   0.000759
     6  C    0.000963  -0.041669   0.000050   0.002125  -0.009471  -0.022978
     7  C    0.000022   0.000805   0.002081  -0.000126   0.380178  -0.003635
     8  C   -0.000413  -0.047743   0.000003  -0.000050  -0.003645   0.383372
     9  C   -0.019337   0.417663   0.000000   0.000106   0.000092  -0.023604
    10  C   -0.024668  -0.028536  -0.000000   0.000001   0.000000  -0.003455
    11  C   -0.047744  -0.030862  -0.000000   0.000000  -0.000000   0.000046
    12  C    0.532418  -0.038307   0.000000  -0.000006  -0.000000  -0.000001
    13  C    4.855226   0.414416   0.000000   0.001597  -0.000000   0.000000
    14  C    0.414416   5.026189  -0.000015  -0.005703  -0.000084   0.000877
    15  H    0.000000  -0.000015   0.374583  -0.003128  -0.000038  -0.000000
    16  H    0.001597  -0.005703  -0.003128   0.389291   0.000004   0.000001
    17  H   -0.000000  -0.000084  -0.000038   0.000004   0.381294   0.000538
    18  H    0.000000   0.000877  -0.000000   0.000001   0.000538   0.408236
    19  H    0.000000   0.000877  -0.000000   0.000001   0.000538  -0.018720
    20  H    0.000073   0.002309   0.000000   0.000000   0.000000   0.000592
    21  H    0.002357   0.000020  -0.000000  -0.000000  -0.000000  -0.000000
    22  H   -0.018627   0.002769   0.000000   0.000000   0.000000  -0.000000
    23  H    0.389847  -0.018470   0.000000   0.002079   0.000000   0.000002
              19         20         21         22         23
     1  Br  -0.000000  -0.000000  -0.000000  -0.000000  -0.000000
     2  C    0.000044  -0.000000   0.000000  -0.000000   0.000000
     3  C   -0.000003  -0.000000  -0.000000   0.000000  -0.000005
     4  C   -0.000004  -0.000000  -0.000000  -0.000000   0.001507
     5  C    0.000759  -0.000094   0.000003  -0.000021  -0.006149
     6  C   -0.022979   0.000101   0.000001   0.000000   0.000097
     7  C   -0.003636   0.000000  -0.000000  -0.000000   0.000000
     8  C    0.383372  -0.004001  -0.000013   0.000003  -0.000055
     9  C   -0.023604  -0.017101   0.002801   0.000110   0.002078
    10  C   -0.003455   0.390297  -0.019516   0.002228  -0.000050
    11  C    0.000046  -0.015817   0.391379  -0.019416   0.002184
    12  C   -0.000001   0.002039  -0.019105   0.393695  -0.013800
    13  C    0.000000   0.000073   0.002357  -0.018627   0.389847
    14  C    0.000877   0.002309   0.000020   0.002769  -0.018470
    15  H   -0.000000   0.000000  -0.000000   0.000000   0.000000
    16  H    0.000001   0.000000  -0.000000   0.000000   0.002079
    17  H    0.000538   0.000000  -0.000000   0.000000   0.000000
    18  H   -0.018720   0.000592  -0.000000  -0.000000   0.000002
    19  H    0.408237   0.000592  -0.000000  -0.000000   0.000002
    20  H    0.000592   0.396271  -0.002996  -0.000041   0.000004
    21  H   -0.000000  -0.002996   0.384524  -0.002905  -0.000039
    22  H   -0.000000  -0.000041  -0.002905   0.389606  -0.003140
    23  H    0.000002   0.000004  -0.000039  -0.003140   0.400192
          Atomic-Atomic Spin Densities.
               1          2          3          4          5          6
     1  Br   0.146615  -0.038145  -0.002139   0.000195   0.000025   0.000220
     2  C   -0.038145   0.269520   0.025436  -0.006931  -0.003988  -0.007518
     3  C   -0.002139   0.025436  -0.021266  -0.020206  -0.005287  -0.001201
     4  C    0.000195  -0.006931  -0.020206   0.070167   0.035249  -0.000976
     5  C    0.000025  -0.003988  -0.005287   0.035249   0.157859   0.038353
     6  C    0.000220  -0.007518  -0.001201  -0.000976   0.038353   0.126519
     7  C   -0.000889   0.018444  -0.001466  -0.000135  -0.004016  -0.016040
     8  C   -0.000000   0.000078  -0.000021   0.000025  -0.002123  -0.000675
     9  C   -0.000000   0.000007   0.000008  -0.000103  -0.009906  -0.005147
    10  C    0.000000  -0.000000  -0.000000   0.000001   0.000211   0.000128
    11  C    0.000000  -0.000000  -0.000000   0.000001   0.000104   0.000005
    12  C    0.000000  -0.000000  -0.000000   0.000006   0.000172   0.000008
    13  C   -0.000000   0.000001   0.000009  -0.000321  -0.004371  -0.000136
    14  C   -0.000000   0.000085   0.000227  -0.004243  -0.053945  -0.008609
    15  H   -0.000004  -0.000376   0.000557  -0.000041   0.000029  -0.000009
    16  H    0.000000   0.000031  -0.000135  -0.000166  -0.000485   0.000020
    17  H   -0.000044  -0.000198   0.000006  -0.000006   0.000035   0.000048
    18  H    0.000000  -0.000002   0.000000   0.000001   0.000083  -0.000475
    19  H    0.000000  -0.000002   0.000000   0.000001   0.000083  -0.000475
    20  H   -0.000000   0.000000  -0.000000  -0.000000  -0.000002   0.000001
    21  H   -0.000000   0.000000   0.000000  -0.000000   0.000000   0.000000
    22  H   -0.000000   0.000000   0.000000   0.000000  -0.000001   0.000000
    23  H   -0.000000   0.000000   0.000000  -0.000014  -0.000014   0.000001
               7          8          9         10         11         12
     1  Br  -0.000889  -0.000000  -0.000000   0.000000   0.000000   0.000000
     2  C    0.018444   0.000078   0.000007  -0.000000  -0.000000  -0.000000
     3  C   -0.001466  -0.000021   0.000008  -0.000000  -0.000000  -0.000000
     4  C   -0.000135   0.000025  -0.000103   0.000001   0.000001   0.000006
     5  C   -0.004016  -0.002123  -0.009906   0.000211   0.000104   0.000172
     6  C   -0.016040  -0.000675  -0.005147   0.000128   0.000005   0.000008
     7  C   -0.078758  -0.000493   0.000169  -0.000001  -0.000000  -0.000000
     8  C   -0.000493  -0.019267  -0.002973  -0.000836   0.000111  -0.000027
     9  C    0.000169  -0.002973   0.165626  -0.010386  -0.007369  -0.000784
    10  C   -0.000001  -0.000836  -0.010386  -0.100494   0.008504  -0.001609
    11  C   -0.000000   0.000111  -0.007369   0.008504   0.255249   0.016992
    12  C   -0.000000  -0.000027  -0.000784  -0.001609   0.016992  -0.057925
    13  C    0.000002   0.000044  -0.000281   0.000281  -0.006455  -0.015990
    14  C    0.000311  -0.002108   0.034924  -0.002814  -0.003165  -0.003686
    15  H    0.000004  -0.000000   0.000000   0.000000   0.000000  -0.000000
    16  H   -0.000015   0.000000   0.000001  -0.000000   0.000000   0.000000
    17  H    0.000927   0.000053   0.000001   0.000000   0.000000   0.000000
    18  H   -0.000003   0.001436  -0.000713   0.000020  -0.000003   0.000000
    19  H   -0.000003   0.001436  -0.000713   0.000020  -0.000003   0.000000
    20  H    0.000000   0.000056   0.000070   0.000994  -0.000196   0.000008
    21  H   -0.000000   0.000000   0.000005  -0.000467  -0.001936  -0.000574
    22  H    0.000000  -0.000000  -0.000006   0.000010  -0.000369   0.000752
    23  H   -0.000000   0.000001   0.000019  -0.000015   0.000028  -0.000176
              13         14         15         16         17         18
     1  Br  -0.000000  -0.000000  -0.000004   0.000000  -0.000044   0.000000
     2  C    0.000001   0.000085  -0.000376   0.000031  -0.000198  -0.000002
     3  C    0.000009   0.000227   0.000557  -0.000135   0.000006   0.000000
     4  C   -0.000321  -0.004243  -0.000041  -0.000166  -0.000006   0.000001
     5  C   -0.004371  -0.053945   0.000029  -0.000485   0.000035   0.000083
     6  C   -0.000136  -0.008609  -0.000009   0.000020   0.000048  -0.000475
     7  C    0.000002   0.000311   0.000004  -0.000015   0.000927  -0.000003
     8  C    0.000044  -0.002108  -0.000000   0.000000   0.000053   0.001436
     9  C   -0.000281   0.034924   0.000000   0.000001   0.000001  -0.000713
    10  C    0.000281  -0.002814   0.000000  -0.000000   0.000000   0.000020
    11  C   -0.006455  -0.003165   0.000000   0.000000   0.000000  -0.000003
    12  C   -0.015990  -0.003686  -0.000000   0.000000   0.000000   0.000000
    13  C    0.102261   0.031947   0.000000  -0.000013  -0.000000   0.000001
    14  C    0.031947   0.087752  -0.000000   0.000026  -0.000001   0.000091
    15  H    0.000000  -0.000000  -0.000257   0.000049   0.000000   0.000000
    16  H   -0.000013   0.000026   0.000049  -0.003597  -0.000000  -0.000000
    17  H   -0.000000  -0.000001   0.000000  -0.000000   0.001658  -0.000005
    18  H    0.000001   0.000091   0.000000  -0.000000  -0.000005   0.001352
    19  H    0.000001   0.000091   0.000000  -0.000000  -0.000005  -0.000335
    20  H   -0.000004   0.000036  -0.000000  -0.000000  -0.000000  -0.000005
    21  H    0.000008  -0.000014   0.000000   0.000000   0.000000   0.000000
    22  H    0.000017   0.000028  -0.000000  -0.000000  -0.000000   0.000000
    23  H   -0.000408  -0.000442  -0.000000  -0.000015  -0.000000  -0.000000
              19         20         21         22         23
     1  Br   0.000000  -0.000000  -0.000000  -0.000000  -0.000000
     2  C   -0.000002   0.000000   0.000000   0.000000   0.000000
     3  C    0.000000  -0.000000   0.000000   0.000000   0.000000
     4  C    0.000001  -0.000000  -0.000000   0.000000  -0.000014
     5  C    0.000083  -0.000002   0.000000  -0.000001  -0.000014
     6  C   -0.000475   0.000001   0.000000   0.000000   0.000001
     7  C   -0.000003   0.000000  -0.000000   0.000000  -0.000000
     8  C    0.001436   0.000056   0.000000  -0.000000   0.000001
     9  C   -0.000713   0.000070   0.000005  -0.000006   0.000019
    10  C    0.000020   0.000994  -0.000467   0.000010  -0.000015
    11  C   -0.000003  -0.000196  -0.001936  -0.000369   0.000028
    12  C    0.000000   0.000008  -0.000574   0.000752  -0.000176
    13  C    0.000001  -0.000004   0.000008   0.000017  -0.000408
    14  C    0.000091   0.000036  -0.000014   0.000028  -0.000442
    15  H    0.000000  -0.000000   0.000000  -0.000000  -0.000000
    16  H   -0.000000  -0.000000   0.000000  -0.000000  -0.000015
    17  H   -0.000005  -0.000000   0.000000  -0.000000  -0.000000
    18  H   -0.000335  -0.000005   0.000000   0.000000  -0.000000
    19  H    0.001352  -0.000005   0.000000   0.000000  -0.000000
    20  H   -0.000005   0.002639   0.000045  -0.000000  -0.000000
    21  H    0.000000   0.000045  -0.009748   0.000051   0.000001
    22  H    0.000000  -0.000000   0.000051   0.001194   0.000040
    23  H   -0.000000  -0.000000   0.000001   0.000040  -0.004642
 Mulliken charges and spin densities:
               1          2
     1  Br   0.123204   0.105833
     2  C   -0.063239   0.256441
     3  C   -0.137124  -0.025477
     4  C   -0.098032   0.072504
     5  C   -0.037277   0.148067
     6  C   -0.059207   0.124040
     7  C   -0.083361  -0.081962
     8  C   -0.337105  -0.025284
     9  C   -0.050319   0.162451
    10  C   -0.132955  -0.106453
    11  C   -0.148726   0.261499
    12  C   -0.184390  -0.062832
    13  C   -0.095763   0.106591
    14  C   -0.045659   0.076491
    15  H    0.268341  -0.000049
    16  H    0.254704  -0.004299
    17  H    0.260323   0.002469
    18  H    0.277934   0.001443
    19  H    0.277934   0.001443
    20  H    0.247774   0.003636
    21  H    0.263490  -0.012629
    22  H    0.255740   0.001717
    23  H    0.243715  -0.005638
 Sum of Mulliken charges =   1.00000   1.00000
 Mulliken charges and spin densities with hydrogens summed into heavy atoms:
               1          2
     1  Br   0.123204   0.105833
     2  C   -0.063239   0.256441
     3  C    0.131217  -0.025527
     4  C    0.156672   0.068205
     5  C   -0.037277   0.148067
     6  C   -0.059207   0.124040
     7  C    0.176962  -0.079494
     8  C    0.218762  -0.022397
     9  C   -0.050319   0.162451
    10  C    0.114819  -0.102816
    11  C    0.114763   0.248870
    12  C    0.071350  -0.061116
    13  C    0.147952   0.100953
    14  C   -0.045659   0.076491
 Electronic spatial extent (au):  <R**2>=           4824.2344
 Charge=              1.0000 electrons
 Dipole moment (field-independent basis, Debye):
    X=              5.4804    Y=              0.1288    Z=              0.0000  Tot=              5.4820
 Quadrupole moment (field-independent basis, Debye-Ang):
   XX=            -32.2932   YY=            -70.0641   ZZ=            -94.2213
   XY=             -1.0409   XZ=              0.0000   YZ=             -0.0000
 Traceless Quadrupole moment (field-independent basis, Debye-Ang):
   XX=             33.2330   YY=             -4.5379   ZZ=            -28.6951
   XY=             -1.0409   XZ=              0.0000   YZ=             -0.0000
 Octapole moment (field-independent basis, Debye-Ang**2):
  XXX=             30.0513  YYY=              1.9923  ZZZ=              0.0001  XYY=            -15.8711
  XXY=             -1.3412  XXZ=              0.0002  XZZ=            -50.6469  YZZ=             -5.4359
  YYZ=              0.0001  XYZ=             -0.0000
 Hexadecapole moment (field-independent basis, Debye-Ang**3):
 XXXX=          -3263.1539 YYYY=           -600.9555 ZZZZ=           -101.9224 XXXY=             31.6878
 XXXZ=             -0.0002 YYYX=              7.0072 YYYZ=             -0.0001 ZZZX=             -0.0002
 ZZZY=             -0.0001 XXYY=           -781.4298 XXZZ=           -870.7088 YYZZ=           -141.5550
 XXYZ=             -0.0002 YYXZ=             -0.0001 ZZXY=              0.3939
 N-N= 1.039954659692D+03 E-N=-9.335490618736D+03  KE= 3.051994660632D+03
 There are a total of      525418 grid points.
 ElSum from          density=      121.0000194010
 ElSum from atomic densities=      122.0001586644
 Hirshfeld populations at iteration   1 (CA, CB, DipXYZ):
               1          2          3          4          5
     1  Br  17.501545  17.379152  -0.165713  -0.020679   0.000001
     2  C    3.046965   2.880346  -0.033239   0.000448  -0.000001
     3  C    3.011096   2.991130  -0.021537   0.030510   0.000000
     4  C    3.027058   2.960967   0.031906   0.041644  -0.000001
     5  C    3.039571   2.916190   0.008110   0.023671  -0.000000
     6  C    3.023000   2.934755   0.031973  -0.037248  -0.000000
     7  C    3.001977   3.013984  -0.015162  -0.038296  -0.000000
     8  C    3.013415   3.006464  -0.000800  -0.016450   0.000000
     9  C    3.032180   2.928878  -0.033976  -0.038373  -0.000001
    10  C    2.993775   3.017722   0.033428  -0.044662  -0.000000
    11  C    3.058271   2.899091   0.059928  -0.010484   0.000001
    12  C    2.999125   3.000209   0.049012   0.019802  -0.000001
    13  C    3.035570   2.958145  -0.020388   0.045168   0.000001
    14  C    3.031102   2.940341  -0.009681   0.023285   0.000000
    15  H    0.463179   0.463158  -0.095817   0.151347   0.000000
    16  H    0.464316   0.461984   0.055050   0.165641   0.000000
    17  H    0.463534   0.465162  -0.054077  -0.168441   0.000000
    18  H    0.466696   0.465056  -0.006372  -0.110276   0.129165
    19  H    0.466696   0.465056  -0.006371  -0.110276  -0.129164
    20  H    0.464545   0.466456   0.051636  -0.167686   0.000000
    21  H    0.465013   0.456842   0.170854  -0.044080   0.000000
    22  H    0.464004   0.464628   0.127128   0.123965   0.000000
    23  H    0.467377   0.464294  -0.033822   0.168390  -0.000000
       Tot  61.000009  60.000010   0.122069  -0.013081   0.000002

 Dip from Atomic Chgs              2.033988   0.063753   0.000002
         Total Dipole              2.156057   0.050672   0.000004

 Hirshfeld charges, spin densities, dipoles, and CM5 charges using IRadAn=      5:
              Q-H        S-H        Dx         Dy         Dz        Q-CM5   
     1  Br   0.119303   0.122393  -0.165713  -0.020679   0.000001   0.134098
     2  C    0.072689   0.166619  -0.033239   0.000448  -0.000001   0.051568
     3  C   -0.002226   0.019965  -0.021537   0.030510   0.000000  -0.055494
     4  C    0.011976   0.066091   0.031906   0.041644  -0.000001  -0.039990
     5  C    0.044239   0.123382   0.008110   0.023671  -0.000000   0.039371
     6  C    0.042245   0.088245   0.031973  -0.037248  -0.000000   0.032084
     7  C   -0.015962  -0.012007  -0.015162  -0.038296  -0.000000  -0.066542
     8  C   -0.019879   0.006952  -0.000800  -0.016450   0.000000  -0.114231
     9  C    0.038942   0.103302  -0.033976  -0.038373  -0.000001   0.028666
    10  C   -0.011497  -0.023946   0.033428  -0.044662  -0.000000  -0.064012
    11  C    0.042638   0.159179   0.059928  -0.010484   0.000001  -0.012541
    12  C    0.000667  -0.001084   0.049012   0.019802  -0.000001  -0.054503
    13  C    0.006285   0.077425  -0.020388   0.045168   0.000001  -0.045778
    14  C    0.028557   0.090760  -0.009681   0.023285   0.000000   0.023651
    15  H    0.073662   0.000021  -0.095817   0.151347   0.000000   0.130269
    16  H    0.073700   0.002332   0.055050   0.165641   0.000000   0.129897
    17  H    0.071305  -0.001628  -0.054077  -0.168441   0.000000   0.128184
    18  H    0.068248   0.001641  -0.006372  -0.110276   0.129165   0.122862
    19  H    0.068248   0.001641  -0.006371  -0.110276  -0.129164   0.122861
    20  H    0.068998  -0.001911   0.051636  -0.167686   0.000000   0.124740
    21  H    0.078145   0.008171   0.170854  -0.044080   0.000000   0.133572
    22  H    0.071368  -0.000623   0.127128   0.123965   0.000000   0.126810
    23  H    0.068329   0.003082  -0.033822   0.168390  -0.000000   0.124436
       Tot   0.999981   0.999999   0.122069  -0.013081   0.000002   0.999981
 Hirshfeld charges and spin densities with hydrogens summed into heavy atoms:
              Q-H        S-H       Q-CM5   
     1  Br   0.119303   0.122393   0.134098
     2  C    0.072689   0.166619   0.051568
     3  C    0.071436   0.019987   0.074776
     4  C    0.085676   0.068423   0.089908
     5  C    0.044239   0.123382   0.039371
     6  C    0.042245   0.088245   0.032084
     7  C    0.055343  -0.013635   0.061642
     8  C    0.116617   0.010233   0.131492
     9  C    0.038942   0.103302   0.028666
    10  C    0.057501  -0.025858   0.060728
    11  C    0.120783   0.167350   0.121031
    12  C    0.072034  -0.001708   0.072308
    13  C    0.074614   0.080507   0.078658
    14  C    0.028557   0.090760   0.023651
 
 EQQ= 0.778436526591E-01 EQD=-0.526550674880E-01 EDD= 0.989763198255E-02
 EQQ+QD+DD= 0.350862171536E-01
 
                          Isotropic Fermi Contact Couplings
        Atom                 a.u.       MegaHertz       Gauss      10(-4) cm-1
     1  Br(79)             0.01341      15.06392       5.37518       5.02478
     2  C(13)              0.02632      29.58956      10.55829       9.87001
     3  C(13)             -0.00573      -6.44031      -2.29806      -2.14826
     4  C(13)              0.00425       4.78089       1.70594       1.59473
     5  C(13)              0.00964      10.84280       3.86898       3.61677
     6  C(13)              0.00993      11.16352       3.98342       3.72375
     7  C(13)             -0.01127     -12.67355      -4.52224      -4.22744
     8  C(13)             -0.00526      -5.91100      -2.10919      -1.97170
     9  C(13)              0.01393      15.65666       5.58669       5.22250
    10  C(13)             -0.01333     -14.98059      -5.34545      -4.99699
    11  C(13)              0.02346      26.37556       9.41145       8.79794
    12  C(13)             -0.00904     -10.16593      -3.62746      -3.39099
    13  C(13)              0.00807       9.07290       3.23744       3.02639
    14  C(13)              0.00231       2.59860       0.92724       0.86680
    15  H(1)              -0.00007      -0.29199      -0.10419      -0.09740
    16  H(1)              -0.00112      -4.99302      -1.78163      -1.66549
    17  H(1)               0.00054       2.42426       0.86504       0.80865
    18  H(1)               0.00061       2.70505       0.96523       0.90231
    19  H(1)               0.00061       2.70504       0.96523       0.90230
    20  H(1)               0.00082       3.68068       1.31336       1.22774
    21  H(1)              -0.00300     -13.40924      -4.78475      -4.47284
    22  H(1)               0.00039       1.72624       0.61597       0.57581
    23  H(1)              -0.00141      -6.30381      -2.24936      -2.10272
 --------------------------------------------------------
       Center         ----  Spin Dipole Couplings  ----
                      3XX-RR        3YY-RR        3ZZ-RR
 --------------------------------------------------------
     1   Atom       -0.799277     -0.638839      1.438116
     2   Atom       -0.122723     -0.132981      0.255704
     3   Atom       -0.002066      0.000526      0.001540
     4   Atom       -0.040780     -0.036052      0.076832
     5   Atom       -0.081151     -0.082302      0.163453
     6   Atom       -0.062616     -0.057703      0.120319
     7   Atom        0.025702      0.022976     -0.048678
     8   Atom       -0.002143      0.004985     -0.002842
     9   Atom       -0.076234     -0.071526      0.147760
    10   Atom        0.037362      0.031157     -0.068519
    11   Atom       -0.109599     -0.118086      0.227685
    12   Atom        0.015121      0.016604     -0.031725
    13   Atom       -0.051707     -0.047556      0.099263
    14   Atom       -0.052857     -0.054558      0.107416
    15   Atom       -0.001524      0.005385     -0.003862
    16   Atom       -0.005610      0.009947     -0.004337
    17   Atom        0.001410      0.002234     -0.003644
    18   Atom       -0.000758      0.004185     -0.003427
    19   Atom       -0.000758      0.004185     -0.003427
    20   Atom        0.003341     -0.000395     -0.002946
    21   Atom        0.017705     -0.014302     -0.003403
    22   Atom       -0.000519      0.003504     -0.002985
    23   Atom       -0.006821      0.010864     -0.004042
 --------------------------------------------------------
                        XY            XZ            YZ
 --------------------------------------------------------
     1   Atom       -0.022980      0.000003     -0.000006
     2   Atom        0.002185      0.000000     -0.000001
     3   Atom        0.002411      0.000000     -0.000000
     4   Atom       -0.002762      0.000000      0.000000
     5   Atom       -0.001403     -0.000001      0.000000
     6   Atom        0.000230     -0.000001      0.000001
     7   Atom       -0.002733     -0.000000      0.000000
     8   Atom        0.000156     -0.000000     -0.000000
     9   Atom        0.000318      0.000001     -0.000000
    10   Atom        0.001385      0.000000     -0.000000
    11   Atom       -0.002668     -0.000001      0.000000
    12   Atom       -0.002371      0.000000     -0.000000
    13   Atom        0.002997      0.000001      0.000000
    14   Atom        0.002030     -0.000001     -0.000001
    15   Atom       -0.001530     -0.000000      0.000000
    16   Atom        0.001892      0.000000      0.000000
    17   Atom       -0.002417      0.000000     -0.000000
    18   Atom        0.000307     -0.000157     -0.001958
    19   Atom        0.000307      0.000157      0.001958
    20   Atom        0.001980      0.000000      0.000000
    21   Atom       -0.009652      0.000000     -0.000000
    22   Atom        0.000125     -0.000000     -0.000000
    23   Atom       -0.000556      0.000000     -0.000000
 --------------------------------------------------------


 ---------------------------------------------------------------------------------
              Anisotropic Spin Dipole Couplings in Principal Axis System
 ---------------------------------------------------------------------------------

       Atom             a.u.   MegaHertz   Gauss  10(-4) cm-1        Axes

              Baa    -0.8025  -107.646   -38.411   -35.907  0.9903  0.1390 -0.0000
     1 Br(79) Bbb    -0.6356   -85.259   -30.423   -28.439 -0.1390  0.9903  0.0000
              Bcc     1.4381   192.905    68.833    64.346  0.0000 -0.0000  1.0000
 
              Baa    -0.1334   -17.905    -6.389    -5.972 -0.2000  0.9798  0.0000
     2 C(13)  Bbb    -0.1223   -16.408    -5.855    -5.473  0.9798  0.2000 -0.0000
              Bcc     0.2557    34.313    12.244    11.446  0.0000 -0.0000  1.0000
 
              Baa    -0.0035    -0.471    -0.168    -0.157  0.8583 -0.5131 -0.0000
     3 C(13)  Bbb     0.0015     0.207     0.074     0.069  0.0001  0.0001  1.0000
              Bcc     0.0020     0.264     0.094     0.088  0.5131  0.8583 -0.0002
 
              Baa    -0.0421    -5.643    -2.014    -1.882  0.9083  0.4183 -0.0000
     4 C(13)  Bbb    -0.0348    -4.667    -1.665    -1.557 -0.4183  0.9083  0.0000
              Bcc     0.0768    10.310     3.679     3.439  0.0000  0.0000  1.0000
 
              Baa    -0.0832   -11.170    -3.986    -3.726  0.5569  0.8305  0.0000
     5 C(13)  Bbb    -0.0802   -10.763    -3.841    -3.590  0.8305 -0.5569  0.0000
              Bcc     0.1635    21.934     7.827     7.316 -0.0000  0.0000  1.0000
 
              Baa    -0.0626    -8.404    -2.999    -2.803  0.9989 -0.0466  0.0000
     6 C(13)  Bbb    -0.0577    -7.742    -2.762    -2.582  0.0466  0.9989 -0.0000
              Bcc     0.1203    16.146     5.761     5.386 -0.0000  0.0000  1.0000
 
              Baa    -0.0487    -6.532    -2.331    -2.179  0.0000 -0.0000  1.0000
     7 C(13)  Bbb     0.0213     2.856     1.019     0.953  0.5262  0.8504  0.0000
              Bcc     0.0274     3.676     1.312     1.226  0.8504 -0.5262 -0.0000
 
              Baa    -0.0028    -0.381    -0.136    -0.127  0.0000  0.0000  1.0000
     8 C(13)  Bbb    -0.0021    -0.288    -0.103    -0.096  0.9998 -0.0219 -0.0000
              Bcc     0.0050     0.669     0.239     0.223  0.0219  0.9998 -0.0000
 
              Baa    -0.0763   -10.233    -3.651    -3.413  0.9978 -0.0670 -0.0000
     9 C(13)  Bbb    -0.0715    -9.595    -3.424    -3.201  0.0670  0.9978  0.0000
              Bcc     0.1478    19.828     7.075     6.614  0.0000 -0.0000  1.0000
 
              Baa    -0.0685    -9.195    -3.281    -3.067 -0.0000  0.0000  1.0000
    10 C(13)  Bbb     0.0309     4.141     1.478     1.381 -0.2084  0.9781 -0.0000
              Bcc     0.0377     5.053     1.803     1.686  0.9781  0.2084  0.0000
 
              Baa    -0.1189   -15.949    -5.691    -5.320  0.2770  0.9609 -0.0000
    11 C(13)  Bbb    -0.1088   -14.604    -5.211    -4.871  0.9609 -0.2770  0.0000
              Bcc     0.2277    30.553    10.902    10.191 -0.0000  0.0000  1.0000
 
              Baa    -0.0317    -4.257    -1.519    -1.420 -0.0000  0.0000  1.0000
    12 C(13)  Bbb     0.0134     1.795     0.641     0.599  0.8058  0.5923  0.0000
              Bcc     0.0183     2.462     0.878     0.821 -0.5923  0.8058 -0.0000
 
              Baa    -0.0533    -7.149    -2.551    -2.385  0.8858 -0.4641 -0.0000
    13 C(13)  Bbb    -0.0460    -6.171    -2.202    -2.058  0.4641  0.8858 -0.0000
              Bcc     0.0993    13.320     4.753     4.443  0.0000  0.0000  1.0000
 
              Baa    -0.0559    -7.502    -2.677    -2.503 -0.5539  0.8326  0.0000
    14 C(13)  Bbb    -0.0515    -6.912    -2.466    -2.305  0.8326  0.5539  0.0000
              Bcc     0.1074    14.414     5.143     4.808 -0.0000 -0.0000  1.0000
 
              Baa    -0.0039    -2.060    -0.735    -0.687 -0.0000 -0.0000  1.0000
    15 H(1)   Bbb    -0.0018    -0.986    -0.352    -0.329  0.9784  0.2069  0.0000
              Bcc     0.0057     3.046     1.087     1.016 -0.2069  0.9784  0.0000
 
              Baa    -0.0058    -3.114    -1.111    -1.039  0.9929 -0.1190 -0.0000
    16 H(1)   Bbb    -0.0043    -2.314    -0.826    -0.772  0.0000 -0.0000  1.0000
              Bcc     0.0102     5.428     1.937     1.811  0.1190  0.9929  0.0000
 
              Baa    -0.0036    -1.944    -0.694    -0.649  0.0000  0.0000  1.0000
    17 H(1)   Bbb    -0.0006    -0.336    -0.120    -0.112  0.7642  0.6449 -0.0000
              Bcc     0.0043     2.280     0.814     0.761 -0.6449  0.7642 -0.0000
 
              Baa    -0.0039    -2.082    -0.743    -0.695  0.0257  0.2343  0.9718
    18 H(1)   Bbb    -0.0008    -0.414    -0.148    -0.138  0.9978 -0.0658 -0.0105
              Bcc     0.0047     2.497     0.891     0.833  0.0615  0.9699 -0.2355
 
              Baa    -0.0039    -2.082    -0.743    -0.695 -0.0257 -0.2343  0.9718
    19 H(1)   Bbb    -0.0008    -0.414    -0.148    -0.138  0.9978 -0.0658  0.0105
              Bcc     0.0047     2.497     0.891     0.833  0.0615  0.9699  0.2355
 
              Baa    -0.0029    -1.572    -0.561    -0.524  0.0000 -0.0000  1.0000
    20 H(1)   Bbb    -0.0012    -0.667    -0.238    -0.222 -0.3961  0.9182  0.0000
              Bcc     0.0042     2.238     0.799     0.747  0.9182  0.3961  0.0000
 
              Baa    -0.0170    -9.064    -3.234    -3.023  0.2680  0.9634 -0.0000
    21 H(1)   Bbb    -0.0034    -1.816    -0.648    -0.606 -0.0000  0.0000  1.0000
              Bcc     0.0204    10.879     3.882     3.629  0.9634 -0.2680  0.0000
 
              Baa    -0.0030    -1.593    -0.568    -0.531  0.0000  0.0000  1.0000
    22 H(1)   Bbb    -0.0005    -0.279    -0.100    -0.093  0.9995 -0.0310 -0.0000
              Bcc     0.0035     1.872     0.668     0.624  0.0310  0.9995 -0.0000
 
              Baa    -0.0068    -3.649    -1.302    -1.217  0.9995  0.0314 -0.0000
    23 H(1)   Bbb    -0.0040    -2.157    -0.770    -0.719  0.0000  0.0000  1.0000
              Bcc     0.0109     5.806     2.072     1.937 -0.0314  0.9995 -0.0000
 

 ---------------------------------------------------------------------------------

 Running external command "gaunbo6 R"
         input file       "/home/rpaton/opt/midi/fukui/Gau-1681724.EIn"
         output file      "/home/rpaton/opt/midi/fukui/Gau-1681724.EOu"
         message file     "/home/rpaton/opt/midi/fukui/Gau-1681724.EMs"
         fchk file        "/home/rpaton/opt/midi/fukui/Gau-1681724.EFC"
         mat. el file     "/home/rpaton/opt/midi/fukui/Gau-1681724.EUF"

 Writing WrtUnf unformatted file "/home/rpaton/opt/midi/fukui/Gau-1681724.EUF"
 Gaussian matrix elements                                         Version   2 NLab=11 Len12L=8 Len4L=8
 Write SHELL TO ATOM MAP                   from file      0 offset           0 length                  94 to matrix element file.
 Write SHELL TYPES                         from file      0 offset           0 length                  94 to matrix element file.
 Write NUMBER OF PRIMITIVES PER SHELL      from file      0 offset           0 length                  94 to matrix element file.
 Write PRIMITIVE EXPONENTS                 from file      0 offset           0 length                 169 to matrix element file.
 Write CONTRACTION COEFFICIENTS            from file      0 offset           0 length                 169 to matrix element file.
 Write P(S=P) CONTRACTION COEFFICIENTS     from file      0 offset           0 length                 169 to matrix element file.
 Write COORDINATES OF EACH SHELL           from file      0 offset           0 length                 282 to matrix element file.
 Write BONDS PER ATOM                      from file      0 offset           0 length                  23 to matrix element file.
 Write BONDED ATOMS                        from file      0 offset           0 length                  50 to matrix element file.
 Write BOND TYPES                          from file      0 offset           0 length                  50 to matrix element file.
 Write ONIOM CHARGE/MULT                   from file      0 offset           0 length                  32 to matrix element file.
 Write ONIOM ATOM LAYERS                   from file      0 offset           0 length                  23 to matrix element file.
 Write ONIOM ATOM MODIFIERS                from file      0 offset           0 length                  23 to matrix element file.
 Write ONIOM ATOM TYPES                    from file      0 offset           0 length                  23 to matrix element file.
 Write ONIOM LINK ATOMS                    from file      0 offset           0 length                  23 to matrix element file.
 Write ONIOM LINK CHARGES                  from file      0 offset           0 length                  23 to matrix element file.
 Write ONIOM LINK DISTANCES                from file      0 offset           0 length                  92 to matrix element file.
 Write SYMINF INTS                         from file      0 offset           0 length                  26 to matrix element file.
 Write ROTTR TO SO                         from file      0 offset           0 length                  12 to matrix element file.
 Write GAUSSIAN SCALARS                    from file    501 offset           0 to matrix element file.
 Write OPTIMIZATION FLAGS                  from file      0 offset           0 length                  23 to matrix element file.
 Write INTEGER ISO                         from file      0 offset           0 length                  23 to matrix element file.
 Write INTEGER SPIN                        from file      0 offset           0 length                  23 to matrix element file.
 Write REAL ZEFFECTIVE                     from file      0 offset           0 length                  23 to matrix element file.
 Write REAL QUADRUPOLEMOMENT               from file      0 offset           0 length                  23 to matrix element file.
 Write REAL GFACTOR                        from file      0 offset           0 length                  23 to matrix element file.
 Write REAL ZNUCLEAR                       from file      0 offset           0 length                  23 to matrix element file.
 Write MULLIKEN CHARGES                    from file      0 offset           0 length                  23 to matrix element file.
 Write TYPE 6 CHARGES                      from file      0 offset           0 length                  23 to matrix element file.
 Write TYPE 7 CHARGES                      from file      0 offset           0 length                  23 to matrix element file.
 Write NUCLEAR GRADIENT                    from file  10584 offset           0 length                  69 to matrix element file.
 Array NUCLEAR FORCE CONSTANTS              on  file  10585 does not exist.
 Write ELECTRIC DIPOLE MOMENT              from file      0 offset           0 length                   3 to matrix element file.
 Write NON-ADIABATIC COUPLING              from file  10810 offset           0 length                  69 to matrix element file.
 Write FINITE EM FIELD                     from file  10521 offset           0 length                  35 to matrix element file.
 Write OVERLAP                             from file  10514 offset           0 length               13203 to matrix element file.
 Write CORE HAMILTONIAN ALPHA              from file  10515 offset           0 length               13203 to matrix element file.
 Write CORE HAMILTONIAN BETA               from file  10515 offset       13203 length               13203 to matrix element file.
 Write KINETIC ENERGY                      from file  10516 offset           0 length               13203 to matrix element file.
 Write ORTHOGONAL BASIS                    from file  10685 offset           0 length               26244 to matrix element file.
 Write DIPOLE INTEGRALS                    from file  10518 offset           0 length               39609 to matrix element file.
 Array DIP VEL INTEGRALS                    on  file  10572 does not exist.
 Array R X DEL INTEGRALS                    on  file  10572 does not exist.
 Write ALPHA ORBITAL ENERGIES              from file      0 offset           0 length                 162 to matrix element file.
 Write BETA ORBITAL ENERGIES               from file      0 offset           0 length                 162 to matrix element file.
 Write ALPHA MO COEFFICIENTS               from file  10524 offset           0 length               26244 to matrix element file.
 Write BETA MO COEFFICIENTS                from file  10526 offset           0 length               26244 to matrix element file.
 Write ALPHA DENSITY MATRIX                from file      0 offset           0 length               13203 to matrix element file.
 Write BETA DENSITY MATRIX                 from file      0 offset           0 length               13203 to matrix element file.
 Write ALPHA FOCK MATRIX                   from file  10536 offset           0 length               13203 to matrix element file.
 Write BETA FOCK MATRIX                    from file  10538 offset           0 length               13203 to matrix element file.
 Write ENERGY-WEIGHTED DENSITY             from file  10571 offset           0 length               13203 to matrix element file.
 Write ALPHA SCF DENSITY MATRIX            from file      0 offset           0 length               13203 to matrix element file.
 Write BETA SCF DENSITY MATRIX             from file      0 offset           0 length               13203 to matrix element file.
 No 2e integrals to process.
 Perform NBO analysis...

 *********************************** NBO 7.0 ***********************************
             N A T U R A L   A T O M I C   O R B I T A L   A N D
          N A T U R A L   B O N D   O R B I T A L   A N A L Y S I S
 **************************** Robert Paton (I101709) ***************************
  (c) Copyright 1996-2019 Board of Regents of the University of Wisconsin System
      on behalf of the Theoretical Chemistry Institute.  All rights reserved.

          Cite this program [NBO 7.0.5 (4-Jun-2019)] as:

          NBO 7.0.  E. D. Glendening, J. K. Badenhoop, A. E. Reed,
          J. E. Carpenter, J. A. Bohmann, C. M. Morales, P. Karafiloglou,
          C. R. Landis, and F. Weinhold, Theoretical Chemistry Institute,
          University of Wisconsin, Madison, WI (2018)

 Filename set to /home/rpaton/opt/midi/fukui/Gau-1681724

 Job title:  arbr34_wb97xd_popncreated by GaussianPrep


 NATURAL POPULATIONS:  Natural atomic orbital occupancies

  NAO Atom No lang   Type(AO)    Occupancy     Spin
 -----------------------------------------------------
   1   Br  1  s      Cor( 3s)     2.00000     0.00000
   2   Br  1  s      Cor( 1s)     2.00000     0.00000
   3   Br  1  s      Cor( 2s)     1.99999     0.00000
   4   Br  1  s      Val( 4s)     1.87831     0.00111
   5   Br  1  s      Ryd( 5s)     0.00299     0.00009
   6   Br  1  px     Cor( 3p)     2.00000     0.00000
   7   Br  1  px     Cor( 2p)     1.99999     0.00000
   8   Br  1  px     Val( 4p)     1.07807    -0.00890
   9   Br  1  px     Ryd( 5p)     0.00355     0.00009
  10   Br  1  py     Cor( 3p)     2.00000     0.00000
  11   Br  1  py     Cor( 2p)     1.99999     0.00000
  12   Br  1  py     Val( 4p)     1.96211     0.00013
  13   Br  1  py     Ryd( 5p)     0.00150    -0.00002
  14   Br  1  pz     Cor( 3p)     2.00000     0.00000
  15   Br  1  pz     Cor( 2p)     2.00000     0.00000
  16   Br  1  pz     Val( 4p)     1.81873     0.12233
  17   Br  1  pz     Ryd( 5p)     0.00068     0.00011
  18   Br  1  dxy    Cor( 3d)     1.99968     0.00000
  19   Br  1  dxy    Ryd( 4d)     0.00117    -0.00004
  20   Br  1  dxz    Cor( 3d)     1.99987     0.00001
  21   Br  1  dxz    Ryd( 4d)     0.00247    -0.00039
  22   Br  1  dyz    Cor( 3d)     1.99999     0.00000
  23   Br  1  dyz    Ryd( 4d)     0.00008    -0.00001
  24   Br  1  dx2y2  Cor( 3d)     1.99944     0.00000
  25   Br  1  dx2y2  Ryd( 4d)     0.00492    -0.00008
  26   Br  1  dz2    Cor( 3d)     1.99980     0.00000
  27   Br  1  dz2    Ryd( 4d)     0.00165     0.00004

  28    C  2  s      Cor( 1s)     1.99989     0.00000
  29    C  2  s      Val( 2s)     0.95679     0.00910
  30    C  2  s      Ryd( 3s)     0.00052    -0.00002
  31    C  2  px     Val( 2p)     1.03174     0.00614
  32    C  2  px     Ryd( 3p)     0.00687    -0.00011
  33    C  2  py     Val( 2p)     1.10683     0.00433
  34    C  2  py     Ryd( 3p)     0.00849    -0.00006
  35    C  2  pz     Val( 2p)     0.93681     0.19552
  36    C  2  pz     Ryd( 3p)     0.00105    -0.00020

  37    C  3  s      Cor( 1s)     1.99986     0.00000
  38    C  3  s      Val( 2s)     0.96132    -0.00167
  39    C  3  s      Ryd( 3s)     0.00108     0.00002
  40    C  3  px     Val( 2p)     1.13364    -0.00177
  41    C  3  px     Ryd( 3p)     0.00676     0.00005
  42    C  3  py     Val( 2p)     1.16440    -0.00362
  43    C  3  py     Ryd( 3p)     0.00562     0.00002
  44    C  3  pz     Val( 2p)     0.95510     0.00158
  45    C  3  pz     Ryd( 3p)     0.00042    -0.00004

  46    C  4  s      Cor( 1s)     1.99983     0.00000
  47    C  4  s      Val( 2s)     0.95040     0.00182
  48    C  4  s      Ryd( 3s)     0.00081     0.00000
  49    C  4  px     Val( 2p)     1.08097     0.00040
  50    C  4  px     Ryd( 3p)     0.00540     0.00001
  51    C  4  py     Val( 2p)     1.20026     0.00005
  52    C  4  py     Ryd( 3p)     0.00557     0.00001
  53    C  4  pz     Val( 2p)     0.93337     0.06797
  54    C  4  pz     Ryd( 3p)     0.00033    -0.00002

  55    C  5  s      Cor( 1s)     1.99987     0.00000
  56    C  5  s      Val( 2s)     0.85575     0.00340
  57    C  5  s      Ryd( 3s)     0.00099     0.00001
  58    C  5  px     Val( 2p)     1.08605     0.00078
  59    C  5  px     Ryd( 3p)     0.00466    -0.00002
  60    C  5  py     Val( 2p)     1.10653    -0.00017
  61    C  5  py     Ryd( 3p)     0.00557     0.00005
  62    C  5  pz     Val( 2p)     0.91024     0.13428
  63    C  5  pz     Ryd( 3p)     0.00021     0.00006

  64    C  6  s      Cor( 1s)     1.99991     0.00000
  65    C  6  s      Val( 2s)     0.86087     0.00363
  66    C  6  s      Ryd( 3s)     0.00102     0.00002
  67    C  6  px     Val( 2p)     1.10248     0.00275
  68    C  6  px     Ryd( 3p)     0.00518     0.00003
  69    C  6  py     Val( 2p)     1.06141     0.00029
  70    C  6  py     Ryd( 3p)     0.00421     0.00001
  71    C  6  pz     Val( 2p)     0.91150     0.10161
  72    C  6  pz     Ryd( 3p)     0.00095     0.00002

  73    C  7  s      Cor( 1s)     1.99984     0.00000
  74    C  7  s      Val( 2s)     0.94561    -0.00351
  75    C  7  s      Ryd( 3s)     0.00136     0.00002
  76    C  7  px     Val( 2p)     1.08470    -0.00436
  77    C  7  px     Ryd( 3p)     0.00682     0.00005
  78    C  7  py     Val( 2p)     1.21301    -0.00351
  79    C  7  py     Ryd( 3p)     0.00626     0.00004
  80    C  7  pz     Val( 2p)     0.97913    -0.03994
  81    C  7  pz     Ryd( 3p)     0.00037    -0.00006

  82    C  8  s      Cor( 1s)     1.99975     0.00000
  83    C  8  s      Val( 2s)     1.03715    -0.00143
  84    C  8  s      Ryd( 3s)     0.00066     0.00001
  85    C  8  px     Val( 2p)     1.01001    -0.00509
  86    C  8  px     Ryd( 3p)     0.00287     0.00002
  87    C  8  py     Val( 2p)     1.17739    -0.00240
  88    C  8  py     Ryd( 3p)     0.00227     0.00001
  89    C  8  pz     Val( 2p)     1.29929    -0.00173
  90    C  8  pz     Ryd( 3p)     0.00092     0.00002

  91    C  9  s      Cor( 1s)     1.99991     0.00000
  92    C  9  s      Val( 2s)     0.86063     0.00496
  93    C  9  s      Ryd( 3s)     0.00100     0.00002
  94    C  9  px     Val( 2p)     1.10458     0.00375
  95    C  9  px     Ryd( 3p)     0.00520     0.00003
  96    C  9  py     Val( 2p)     1.05733     0.00157
  97    C  9  py     Ryd( 3p)     0.00399     0.00000
  98    C  9  pz     Val( 2p)     0.91394     0.12507
  99    C  9  pz     Ryd( 3p)     0.00100     0.00004

 100    C 10  s      Cor( 1s)     1.99984     0.00000
 101    C 10  s      Val( 2s)     0.95176    -0.00426
 102    C 10  s      Ryd( 3s)     0.00107     0.00002
 103    C 10  px     Val( 2p)     1.06992    -0.00531
 104    C 10  px     Ryd( 3p)     0.00557     0.00004
 105    C 10  py     Val( 2p)     1.22497    -0.00336
 106    C 10  py     Ryd( 3p)     0.00581     0.00005
 107    C 10  pz     Val( 2p)     0.98306    -0.05691
 108    C 10  pz     Ryd( 3p)     0.00026    -0.00005

 109    C 11  s      Cor( 1s)     1.99987     0.00000
 110    C 11  s      Val( 2s)     0.97387     0.00834
 111    C 11  s      Ryd( 3s)     0.00060    -0.00002
 112    C 11  px     Val( 2p)     1.21767     0.00533
 113    C 11  px     Ryd( 3p)     0.00540    -0.00001
 114    C 11  py     Val( 2p)     1.07151     0.00482
 115    C 11  py     Ryd( 3p)     0.00483    -0.00003
 116    C 11  pz     Val( 2p)     0.85243     0.19886
 117    C 11  pz     Ryd( 3p)     0.00018     0.00010

 118    C 12  s      Cor( 1s)     1.99987     0.00000
 119    C 12  s      Val( 2s)     0.96707    -0.00284
 120    C 12  s      Ryd( 3s)     0.00068     0.00002
 121    C 12  px     Val( 2p)     1.14629    -0.00236
 122    C 12  px     Ryd( 3p)     0.00534     0.00004
 123    C 12  py     Val( 2p)     1.14832    -0.00424
 124    C 12  py     Ryd( 3p)     0.00540     0.00002
 125    C 12  pz     Val( 2p)     0.96180    -0.02582
 126    C 12  pz     Ryd( 3p)     0.00028    -0.00004

 127    C 13  s      Cor( 1s)     1.99983     0.00000
 128    C 13  s      Val( 2s)     0.95008     0.00308
 129    C 13  s      Ryd( 3s)     0.00087    -0.00001
 130    C 13  px     Val( 2p)     1.07447     0.00142
 131    C 13  px     Ryd( 3p)     0.00535     0.00000
 132    C 13  py     Val( 2p)     1.20783     0.00143
 133    C 13  py     Ryd( 3p)     0.00532     0.00000
 134    C 13  pz     Val( 2p)     0.93192     0.08823
 135    C 13  pz     Ryd( 3p)     0.00035     0.00001

 136    C 14  s      Cor( 1s)     1.99987     0.00000
 137    C 14  s      Val( 2s)     0.85224     0.00097
 138    C 14  s      Ryd( 3s)     0.00095     0.00000
 139    C 14  px     Val( 2p)     1.08182    -0.00147
 140    C 14  px     Ryd( 3p)     0.00468    -0.00002
 141    C 14  py     Val( 2p)     1.10850    -0.00184
 142    C 14  py     Ryd( 3p)     0.00562     0.00006
 143    C 14  pz     Val( 2p)     0.95239     0.08715
 144    C 14  pz     Ryd( 3p)     0.00022     0.00006

 145    H 15  s      Val( 1s)     0.70190    -0.00004
 146    H 15  s      Ryd( 2s)     0.00109    -0.00001

 147    H 16  s      Val( 1s)     0.71550    -0.00249
 148    H 16  s      Ryd( 2s)     0.00076    -0.00001

 149    H 17  s      Val( 1s)     0.70417     0.00132
 150    H 17  s      Ryd( 2s)     0.00108    -0.00001

 151    H 18  s      Val( 1s)     0.68716     0.00124
 152    H 18  s      Ryd( 2s)     0.00073     0.00002

 153    H 19  s      Val( 1s)     0.68716     0.00124
 154    H 19  s      Ryd( 2s)     0.00073     0.00002

 155    H 20  s      Val( 1s)     0.71627     0.00197
 156    H 20  s      Ryd( 2s)     0.00070     0.00000

 157    H 21  s      Val( 1s)     0.71576    -0.00671
 158    H 21  s      Ryd( 2s)     0.00074     0.00000

 159    H 22  s      Val( 1s)     0.71381     0.00094
 160    H 22  s      Ryd( 2s)     0.00071     0.00000

 161    H 23  s      Val( 1s)     0.72349    -0.00321
 162    H 23  s      Ryd( 2s)     0.00075    -0.00001


 Summary of Natural Population Analysis:

                                     Natural Population                 Natural
             Natural    ---------------------------------------------    Spin
  Atom No    Charge        Core      Valence    Rydberg      Total      Density
 -------------------------------------------------------------------------------
   Br  1    0.24503     27.99875     6.73721    0.01901    34.75497     0.11446
    C  2   -0.04900      1.99989     4.03217    0.01694     6.04900     0.21470
    C  3   -0.22820      1.99986     4.21446    0.01388     6.22820    -0.00543
    C  4   -0.17694      1.99983     4.16500    0.01211     6.17694     0.07024
    C  5    0.03013      1.99987     3.95857    0.01143     5.96987     0.13837
    C  6    0.05248      1.99991     3.93626    0.01136     5.94752     0.10837
    C  7   -0.23711      1.99984     4.22245    0.01481     6.23711    -0.05127
    C  8   -0.53031      1.99975     4.52384    0.00672     6.53031    -0.01059
    C  9    0.05243      1.99991     3.93648    0.01119     5.94757     0.13543
    C 10   -0.24226      1.99984     4.22971    0.01271     6.24226    -0.06977
    C 11   -0.12635      1.99987     4.11548    0.01100     6.12635     0.21739
    C 12   -0.23505      1.99987     4.22349    0.01169     6.23505    -0.03521
    C 13   -0.17603      1.99983     4.16430    0.01190     6.17603     0.09416
    C 14   -0.00631      1.99987     3.99496    0.01147     6.00631     0.08491
    H 15    0.29701      0.00000     0.70190    0.00109     0.70299    -0.00005
    H 16    0.28375      0.00000     0.71550    0.00076     0.71625    -0.00249
    H 17    0.29475      0.00000     0.70417    0.00108     0.70525     0.00131
    H 18    0.31211      0.00000     0.68716    0.00073     0.68789     0.00125
    H 19    0.31211      0.00000     0.68716    0.00073     0.68789     0.00125
    H 20    0.28303      0.00000     0.71627    0.00070     0.71697     0.00196
    H 21    0.28351      0.00000     0.71576    0.00074     0.71649    -0.00671
    H 22    0.28548      0.00000     0.71381    0.00071     0.71452     0.00094
    H 23    0.27576      0.00000     0.72349    0.00075     0.72424    -0.00321
 ===============================================================================
 * Total *  1.00000     53.99690    66.81960    0.18351   121.00000     1.00000

                                 Natural Population
 ---------------------------------------------------------
   Core                      53.99690 ( 99.9943% of   54)
   Valence                   66.81960 ( 99.7307% of   67)
   Natural Minimal Basis    120.81649 ( 99.8483% of  121)
   Natural Rydberg Basis      0.18351 (  0.1517% of  121)
 ---------------------------------------------------------

    Atom No         Natural Electron Configuration
 ----------------------------------------------------------------------------
     Br  1      [core]4s( 1.88)4p( 4.86)4d( 0.01)5p( 0.01)
      C  2      [core]2s( 0.96)2p( 3.08)3p( 0.02)
      C  3      [core]2s( 0.96)2p( 3.25)3p( 0.01)
      C  4      [core]2s( 0.95)2p( 3.21)3p( 0.01)
      C  5      [core]2s( 0.86)2p( 3.10)3p( 0.01)
      C  6      [core]2s( 0.86)2p( 3.08)3p( 0.01)
      C  7      [core]2s( 0.95)2p( 3.28)3p( 0.01)
      C  8      [core]2s( 1.04)2p( 3.49)3p( 0.01)
      C  9      [core]2s( 0.86)2p( 3.08)3p( 0.01)
      C 10      [core]2s( 0.95)2p( 3.28)3p( 0.01)
      C 11      [core]2s( 0.97)2p( 3.14)3p( 0.01)
      C 12      [core]2s( 0.97)2p( 3.26)3p( 0.01)
      C 13      [core]2s( 0.95)2p( 3.21)3p( 0.01)
      C 14      [core]2s( 0.85)2p( 3.14)3p( 0.01)
      H 15            1s( 0.70)
      H 16            1s( 0.72)
      H 17            1s( 0.70)
      H 18            1s( 0.69)
      H 19            1s( 0.69)
      H 20            1s( 0.72)
      H 21            1s( 0.72)
      H 22            1s( 0.71)
      H 23            1s( 0.72)


 ***************************************************
 *******         Alpha spin orbitals         *******
 ***************************************************


 NATURAL POPULATIONS:  Natural atomic orbital occupancies

  NAO Atom No lang   Type(AO)    Occupancy      Energy
 -------------------------------------------------------
   1   Br  1  s      Cor( 3s)     1.00000     -20.55380
   2   Br  1  s      Cor( 1s)     1.00000    -451.56343
   3   Br  1  s      Cor( 2s)     1.00000     -79.98046
   4   Br  1  s      Val( 4s)     0.93971      -0.92640
   5   Br  1  s      Ryd( 5s)     0.00154       0.71424
   6   Br  1  px     Cor( 3p)     1.00000      -7.38163
   7   Br  1  px     Cor( 2p)     0.99999     -55.78178
   8   Br  1  px     Val( 4p)     0.53459      -0.37431
   9   Br  1  px     Ryd( 5p)     0.00182       0.59592
  10   Br  1  py     Cor( 3p)     1.00000      -7.36601
  11   Br  1  py     Cor( 2p)     1.00000     -55.77790
  12   Br  1  py     Val( 4p)     0.98112      -0.50744
  13   Br  1  py     Ryd( 5p)     0.00074       0.62593
  14   Br  1  pz     Cor( 3p)     1.00000      -7.36898
  15   Br  1  pz     Cor( 2p)     1.00000     -55.77881
  16   Br  1  pz     Val( 4p)     0.97053      -0.51123
  17   Br  1  pz     Ryd( 5p)     0.00039       0.58603
  18   Br  1  dxy    Cor( 3d)     0.99984      -2.93059
  19   Br  1  dxy    Ryd( 4d)     0.00056       0.77215
  20   Br  1  dxz    Cor( 3d)     0.99994      -2.93278
  21   Br  1  dxz    Ryd( 4d)     0.00104       0.56395
  22   Br  1  dyz    Cor( 3d)     1.00000      -2.92053
  23   Br  1  dyz    Ryd( 4d)     0.00004       0.49638
  24   Br  1  dx2y2  Cor( 3d)     0.99972      -2.93078
  25   Br  1  dx2y2  Ryd( 4d)     0.00242       0.84001
  26   Br  1  dz2    Cor( 3d)     0.99990      -2.92540
  27   Br  1  dz2    Ryd( 4d)     0.00084       0.60688

  28    C  2  s      Cor( 1s)     0.99995     -10.47818
[...]
   54. BD ( 1) C 11- C 12     146. RY ( 1) C 13            0.26    2.09   0.029
   54. BD ( 1) C 11- C 12     147. RY ( 2) C 13            1.07    1.72   0.054
   55. BD ( 1) C 11- H 21      81. BD*( 1) C  9- C 10      1.40    1.26   0.053
   55. BD ( 1) C 11- H 21      84. BD*( 1) C 10- C 11      0.38    1.24   0.028
   55. BD ( 1) C 11- H 21      86. BD*( 1) C 11- C 12      0.39    1.24   0.028
   55. BD ( 1) C 11- H 21      88. BD*( 1) C 12- C 13      1.45    1.24   0.054
   55. BD ( 1) C 11- H 21     134. RY ( 1) C 10            0.66    1.98   0.046
   55. BD ( 1) C 11- H 21     142. RY ( 1) C 12            0.72    1.98   0.048
   56. BD ( 1) C 12- C 13      73. BD*( 1) C  5- C 14      1.80    1.26   0.060
   56. BD ( 1) C 12- C 13      86. BD*( 1) C 11- C 12      1.04    1.37   0.048
   56. BD ( 1) C 12- C 13      87. BD*( 1) C 11- H 21      0.75    1.30   0.039
   56. BD ( 1) C 12- C 13      90. BD*( 1) C 12- H 22      0.72    1.30   0.039
   56. BD ( 1) C 12- C 13      91. BD*( 1) C 13- C 14      1.35    1.37   0.054
   56. BD ( 1) C 12- C 13      92. BD*( 1) C 13- H 23      0.80    1.28   0.041
   56. BD ( 1) C 12- C 13     138. RY ( 1) C 11            0.47    2.11   0.040
   56. BD ( 1) C 12- C 13     139. RY ( 2) C 11            0.82    1.72   0.047
   56. BD ( 1) C 12- C 13     150. RY ( 1) C 14            0.97    2.15   0.058
   56. BD ( 1) C 12- C 13     151. RY ( 2) C 14            0.49    2.18   0.041
   57. BD ( 2) C 12- C 13      63. LV ( 1) C 11           47.77    0.24   0.136
   57. BD ( 2) C 12- C 13     141. RY ( 4) C 11            0.44    1.25   0.030
   58. BD ( 1) C 12- H 22      84. BD*( 1) C 10- C 11      1.38    1.23   0.052
   58. BD ( 1) C 12- H 22      86. BD*( 1) C 11- C 12      0.42    1.23   0.029
   58. BD ( 1) C 12- H 22      88. BD*( 1) C 12- C 13      0.46    1.24   0.030
   58. BD ( 1) C 12- H 22      91. BD*( 1) C 13- C 14      1.41    1.24   0.053
   58. BD ( 1) C 12- H 22     138. RY ( 1) C 11            0.71    1.97   0.047
   58. BD ( 1) C 12- H 22     146. RY ( 1) C 13            0.65    1.95   0.045
   59. BD ( 1) C 13- C 14      73. BD*( 1) C  5- C 14      1.85    1.27   0.061
   59. BD ( 1) C 13- C 14      78. BD*( 1) C  8- C  9      0.66    1.20   0.035
   59. BD ( 1) C 13- C 14      83. BD*( 1) C  9- C 14      2.10    1.35   0.067
   59. BD ( 1) C 13- C 14      88. BD*( 1) C 12- C 13      1.20    1.38   0.052
   59. BD ( 1) C 13- C 14      90. BD*( 1) C 12- H 22      0.70    1.32   0.038
   59. BD ( 1) C 13- C 14      92. BD*( 1) C 13- H 23      0.78    1.30   0.040
   59. BD ( 1) C 13- C 14     114. RY ( 1) C  5            0.80    2.16   0.052
   59. BD ( 1) C 13- C 14     130. RY ( 1) C  9            0.64    2.27   0.048
   59. BD ( 1) C 13- C 14     142. RY ( 1) C 12            0.64    2.12   0.047
   59. BD ( 1) C 13- C 14     143. RY ( 2) C 12            0.73    1.74   0.045
   60. BD ( 1) C 13- H 23      73. BD*( 1) C  5- C 14      0.26    1.13   0.022
   60. BD ( 1) C 13- H 23      83. BD*( 1) C  9- C 14      1.71    1.21   0.057
   60. BD ( 1) C 13- H 23      86. BD*( 1) C 11- C 12      1.31    1.24   0.051
   60. BD ( 1) C 13- H 23      88. BD*( 1) C 12- C 13      0.51    1.25   0.032
   60. BD ( 1) C 13- H 23      91. BD*( 1) C 13- C 14      0.48    1.25   0.031
   60. BD ( 1) C 13- H 23     142. RY ( 1) C 12            0.73    1.99   0.048
   60. BD ( 1) C 13- H 23     151. RY ( 2) C 14            0.88    2.06   0.054


 NATURAL BOND ORBITALS (Summary):

                                                     Principal Delocalizations
           NBO                 Occupancy    Energy   (geminal,vicinal,remote)
 ===============================================================================
 Molecular unit  1  (C13H9Br)
 ------ Lewis --------------------------------------
    1. CR ( 1)Br  1             1.00000   -20.55331
    2. CR ( 2)Br  1             1.00000  -451.56305
    3. CR ( 3)Br  1             1.00000   -79.98031
    4. CR ( 4)Br  1             1.00000    -7.38152
    5. CR ( 5)Br  1             0.99999   -55.78168
    6. CR ( 6)Br  1             1.00000    -7.36582
    7. CR ( 7)Br  1             1.00000   -55.77773
    8. CR ( 8)Br  1             1.00000    -7.36770
    9. CR ( 9)Br  1             1.00000   -55.77792
   10. CR (10)Br  1             0.99984    -2.93054
   11. CR (11)Br  1             0.99993    -2.93223
   12. CR (12)Br  1             1.00000    -2.91995
   13. CR (13)Br  1             0.99972    -2.93073  95(g)
   14. CR (14)Br  1             0.99990    -2.92467
   15. CR ( 1) C  2             0.99995   -10.47499
   16. CR ( 1) C  3             0.99993   -10.41572
   17. CR ( 1) C  4             0.99992   -10.41972
   18. CR ( 1) C  5             0.99994   -10.43941
   19. CR ( 1) C  6             0.99995   -10.43132
   20. CR ( 1) C  7             0.99992   -10.41449
   21. CR ( 1) C  8             0.99987   -10.40316  128(g)
   22. CR ( 1) C  9             0.99995   -10.42087
   23. CR ( 1) C 10             0.99992   -10.39652
   24. CR ( 1) C 11             0.99993   -10.40800
   25. CR ( 1) C 12             0.99993   -10.39581
   26. CR ( 1) C 13             0.99992   -10.40684
   27. CR ( 1) C 14             0.99994   -10.42831
   28. LP ( 1)Br  1             0.99860    -0.90904  103(v)
   29. LP ( 2)Br  1             0.98987    -0.50791  65(v),66(v),102(v)
   30. LP ( 3)Br  1             0.84951    -0.47413  61(v)
   31. LP ( 1) C 14             0.43262    -0.26501  82(v),89(v),61(r),153(g)
                                                     149(v),75(r),132(v),117(v)
                                                     63(r)
   32. BD ( 1)Br  1- C  2       0.99333    -0.78696  106(v),122(v),67(v),74(v)
   33. BD ( 1) C  2- C  3       0.99120    -0.89327  66(g),67(g),111(v),69(g)
                                                     77(v),122(v),71(v),110(v)
                                                     123(v)
   34. BD ( 1) C  2- C  7       0.99040    -0.89000  65(g),76(v),74(g),119(v)
                                                     77(g),69(v),106(v),107(v)
                                                     118(v)
   35. BD ( 1) C  3- C  4       0.98753    -0.86501  64(v),73(v),70(g),65(g)
                                                     114(v),102(v),69(g),71(g)
                                                     115(v),103(v)
   36. BD ( 2) C  3- C  4       0.85821    -0.48311  61(v),62(v),104(v)
   37. BD ( 1) C  3- H 15       0.99053    -0.73315  66(v),70(v),103(v),110(v)
                                                     67(g),64(v),65(g)
   38. BD ( 1) C  4- C  5       0.98840    -0.87625  72(g),73(g),67(g),107(v)
                                                     150(v),71(g),69(v),76(v)
                                                     118(v),119(v),106(v)
   39. BD ( 1) C  4- H 16       0.99082    -0.73750  72(v),65(v),115(v),106(v)
                                                     67(g),70(g),73(v)
   40. BD ( 1) C  5- C  6       0.98443    -0.85796  70(g),74(g),91(v),73(g)
                                                     123(v),77(v),71(v),150(v)
                                                     76(g),111(v),110(v),78(v)
                                                     127(v)
   41. BD ( 1) C  5- C 14       0.98537    -0.82807  70(g),91(g),72(g),83(g)
                                                     74(v),81(v),110(v),146(v)
                                                     118(v),130(v),67(v),88(v)
                                                     76(v),78(v)
   42. BD ( 1) C  6- C  7       0.98633    -0.87409  72(g),64(v),66(g),76(g)
                                                     77(g),102(v),73(v),115(v)
                                                     114(v),126(v),103(v)
   43. BD ( 2) C  6- C  7       0.84591    -0.48414  61(v),62(v),79(v),80(v)
                                                     104(v)
   44. BD ( 1) C  6- C  8       0.98844    -0.79236  74(g),70(v),81(v),122(v)
                                                     72(g),66(v),115(v),73(v)
                                                     78(g),79(g),80(g),131(v)
                                                     83(v)
   45. BD ( 1) C  7- H 17       0.99009    -0.73417  72(v),65(v),118(v),103(v)
                                                     74(g),66(g),64(v),76(v)
   46. BD ( 1) C  8- C  9       0.98877    -0.78735  74(v),81(g),91(v),134(v)
                                                     83(g),151(v),84(v),73(v)
                                                     79(g),80(g),76(g),72(v)
                                                     119(v)
   47. BD ( 1) C  8- H 18       0.98157    -0.71153  82(v),75(v),132(v),120(v)
                                                     72(v),83(v),78(g),76(g)
   48. BD ( 1) C  8- H 19       0.98157    -0.71153  82(v),75(v),132(v),120(v)
                                                     72(v),83(v),78(g),76(g)
   49. BD ( 1) C  9- C 10       0.98882    -0.86092  83(g),78(g),84(g),85(g)
                                                     139(v),73(v),87(v),138(v)
                                                     150(v),151(v),126(v)
   50. BD ( 2) C  9- C 10       0.82659    -0.46560  63(v),79(v),80(v),82(g)
                                                     141(v)
   51. BD ( 1) C  9- C 14       0.98417    -0.84757  91(g),81(g),70(v),73(g)
                                                     85(v),92(v),135(v),114(v)
                                                     78(g),146(v),147(v),127(v)
                                                     76(v),134(v)
   52. BD ( 1) C 10- C 11       0.99021    -0.84935  78(v),81(g),131(v),86(g)
                                                     143(v),90(v),85(g),87(g)
                                                     142(v)
   53. BD ( 1) C 10- H 20       0.99140    -0.71966  83(v),86(v),130(v),138(v)
                                                     81(g),84(g),78(v)
   54. BD ( 1) C 11- C 12       0.99119    -0.85185  147(v),88(g),84(g),92(v)
                                                     85(v),135(v),90(g),87(g)
                                                     134(v),146(v)
   55. BD ( 1) C 11- H 21       0.99190    -0.72217  88(v),81(v),142(v),134(v)
                                                     86(g),84(g)
   56. BD ( 1) C 12- C 13       0.99013    -0.84988  73(v),91(g),86(g),150(v)
                                                     139(v),92(g),87(v),90(g)
                                                     151(v),138(v)
   57. BD ( 2) C 12- C 13       0.84657    -0.46533  63(v),141(v)
   58. BD ( 1) C 12- H 22       0.99177    -0.71680  91(v),84(v),138(v),146(v)
                                                     88(g),86(g)
   59. BD ( 1) C 13- C 14       0.98818    -0.86428  83(g),73(g),88(g),114(v)
                                                     92(g),143(v),90(v),78(v)
                                                     130(v),142(v)
   60. BD ( 1) C 13- H 23       0.99140    -0.72784  83(v),86(v),151(v),142(v)
                                                     88(g),91(g),73(v)
 ------ non-Lewis ----------------------------------
   61. LV ( 1) C  2             0.37068    -0.27732
   62. LV ( 1) C  5             0.38798    -0.25935
   63. LV ( 1) C 11             0.32680    -0.22180
   64. BD*( 1)Br  1- C  2       0.01141     0.02465
   65. BD*( 1) C  2- C  3       0.01068     0.48436
   66. BD*( 1) C  2- C  7       0.01063     0.48361
   67. BD*( 1) C  3- C  4       0.00727     0.50447
   68. BD*( 2) C  3- C  4       0.05137    -0.06826
   69. BD*( 1) C  3- H 15       0.00519     0.43637
   70. BD*( 1) C  4- C  5       0.01063     0.51383
   71. BD*( 1) C  4- H 16       0.00542     0.42473
   72. BD*( 1) C  5- C  6       0.01255     0.47780
   73. BD*( 1) C  5- C 14       0.01531     0.40629
   74. BD*( 1) C  6- C  7       0.01062     0.52468
   75. BD*( 2) C  6- C  7       0.06862    -0.06727
   76. BD*( 1) C  6- C  8       0.00869     0.33023
   77. BD*( 1) C  7- H 17       0.00595     0.42769
   78. BD*( 1) C  8- C  9       0.00890     0.33447
   79. BD*( 1) C  8- H 18       0.00496     0.38781
   80. BD*( 1) C  8- H 19       0.00496     0.38782
   81. BD*( 1) C  9- C 10       0.01009     0.53666
   82. BD*( 2) C  9- C 10       0.08789    -0.05945
   83. BD*( 1) C  9- C 14       0.01283     0.48697
   84. BD*( 1) C 10- C 11       0.00684     0.51523
   85. BD*( 1) C 10- H 20       0.00557     0.44066
   86. BD*( 1) C 11- C 12       0.00685     0.51628
   87. BD*( 1) C 11- H 21       0.00468     0.44761
   88. BD*( 1) C 12- C 13       0.00684     0.51857
   89. BD*( 2) C 12- C 13       0.06922    -0.05820
   90. BD*( 1) C 12- H 22       0.00485     0.45105
   91. BD*( 1) C 13- C 14       0.01086     0.52339
   92. BD*( 1) C 13- H 23       0.00549     0.43181
   93. RY ( 1)Br  1             0.00048     0.60466
   94. RY ( 2)Br  1             0.00042     0.53027
   95. RY ( 3)Br  1             0.00031     0.99034
   96. RY ( 4)Br  1             0.00010     0.65681
   97. RY ( 5)Br  1             0.00005     0.79046
   98. RY ( 6)Br  1             0.00002     0.50160
   99. RY ( 7)Br  1             0.00001     0.52884
  100. RY ( 8)Br  1             0.00001     0.63084
  101. RY ( 9)Br  1             0.00001     0.57918
  102. RY ( 1) C  2             0.00361     0.93590
  103. RY ( 2) C  2             0.00255     1.20235
  104. RY ( 3) C  2             0.00059     0.78789
  105. RY ( 4) C  2             0.00016     0.56002
  106. RY ( 1) C  3             0.00284     1.19359
  107. RY ( 2) C  3             0.00170     0.87169
  108. RY ( 3) C  3             0.00024     0.57893
  109. RY ( 4) C  3             0.00016     0.77489
  110. RY ( 1) C  4             0.00230     1.24086
  111. RY ( 2) C  4             0.00175     0.84688
  112. RY ( 3) C  4             0.00016     0.58756
  113. RY ( 4) C  4             0.00013     0.77591
  114. RY ( 1) C  5             0.00246     1.29287
  115. RY ( 2) C  5             0.00215     1.32911
  116. RY ( 3) C  5             0.00038     0.59759
  117. RY ( 4) C  5             0.00007     0.83262
  118. RY ( 1) C  6             0.00214     1.38646
  119. RY ( 2) C  6             0.00166     1.13026
  120. RY ( 3) C  6             0.00046     0.83572
  121. RY ( 4) C  6             0.00034     0.61840
  122. RY ( 1) C  7             0.00302     1.16554
  123. RY ( 2) C  7             0.00190     0.87446
  124. RY ( 3) C  7             0.00031     0.57880
  125. RY ( 4) C  7             0.00016     0.77701
  126. RY ( 1) C  8             0.00111     0.81521
  127. RY ( 2) C  8             0.00100     0.79876
  128. RY ( 3) C  8             0.00020     1.05237
  129. RY ( 4) C  8             0.00013     0.94526
  130. RY ( 1) C  9             0.00206     1.40738
  131. RY ( 2) C  9             0.00163     1.12727
  132. RY ( 3) C  9             0.00048     0.84571
  133. RY ( 4) C  9             0.00033     0.62516
  134. RY ( 1) C 10             0.00239     1.25881
  135. RY ( 2) C 10             0.00182     0.84669
  136. RY ( 3) C 10             0.00023     0.60385
  137. RY ( 4) C 10             0.00008     0.79186
  138. RY ( 1) C 11             0.00222     1.25601
  139. RY ( 2) C 11             0.00150     0.87108
  140. RY ( 3) C 11             0.00012     0.60723
  141. RY ( 4) C 11             0.00003     0.78902
  142. RY ( 1) C 12             0.00229     1.25737
  143. RY ( 2) C 12             0.00158     0.87391
  144. RY ( 3) C 12             0.00013     0.60594
  145. RY ( 4) C 12             0.00006     0.79068
  146. RY ( 1) C 13             0.00221     1.23761
  147. RY ( 2) C 13             0.00172     0.86861
  148. RY ( 3) C 13             0.00019     0.59680
  149. RY ( 4) C 13             0.00013     0.78723
  150. RY ( 1) C 14             0.00250     1.30090
  151. RY ( 2) C 14             0.00217     1.33179
  152. RY ( 3) C 14             0.00038     0.60163
  153. RY ( 4) C 14             0.00008     0.83888
  154. RY ( 1) H 15             0.00055     0.47468
  155. RY ( 1) H 16             0.00038     0.49461
  156. RY ( 1) H 17             0.00055     0.47871
  157. RY ( 1) H 18             0.00036     0.47706
  158. RY ( 1) H 19             0.00036     0.47706
  159. RY ( 1) H 20             0.00035     0.48638
  160. RY ( 1) H 21             0.00037     0.47866
  161. RY ( 1) H 22             0.00036     0.48377
  162. RY ( 1) H 23             0.00038     0.50257
          -------------------------------
                 Total Lewis   58.36429  ( 97.2738%)
           Valence non-Lewis    1.57063  (  2.6177%)
           Rydberg non-Lewis    0.06508  (  0.1085%)
          -------------------------------
               Total unit  1   60.00000  (100.0000%)
              Charge unit  1    1.00000

 $CHOOSE
  ALPHA
   LONE 1 3 END
   BOND S 1 2 D 2 3 S 2 7 S 3 4 S 3 15 D 4 5 S 4 16 S 5 6 S 5 14 D 6 7 S 6 8
        S 7 17 S 8 9 S 8 18 S 8 19 D 9 10 S 9 14 S 10 11 S 10 20 D 11 12
        S 11 21 S 12 13 S 12 22 D 13 14 S 13 23 END
  END
  BETA
   LONE 1 3 14 1 END
   BOND S 1 2 S 2 3 S 2 7 D 3 4 S 3 15 S 4 5 S 4 16 S 5 6 S 5 14 D 6 7 S 6 8
        S 7 17 S 8 9 S 8 18 S 8 19 D 9 10 S 9 14 S 10 11 S 10 20 S 11 12
        S 11 21 D 12 13 S 12 22 S 13 14 S 13 23 END
  END
 $END

 NBO analysis completed in 0.70 CPU seconds (0 wall seconds)
 Maximum scratch memory used by NBO was 693983 words (5.29 MB)
 Maximum scratch memory used by G16NBO was 61777 words (0.47 MB)

 Opening RunExU unformatted file "/home/rpaton/opt/midi/fukui/Gau-1681724.EUF"
 Read unf file /home/rpaton/opt/midi/fukui/Gau-1681724.EUF:
 Label Gaussian matrix elements                                         IVers= 2 NLab= 2 Version=ES64L-G16RevC.01
 Title arbr34_wb97xd_popncreated by GaussianPrep                       
 NAtoms=    23 NBasis=   162 NBsUse=   162 ICharg=     1 Multip=     2 NE=   121 Len12L=8 Len4L=8 IOpCl= 1 ICGU=112
 GAUSSIAN SCALARS                    NI= 1 NR= 1 NTot=       1 LenBuf=    2 NRI=1 N=    1000
 NPA CHARGES                         NI= 0 NR= 1 NTot=      23 LenBuf= 2048 NRI=1 N=      23
 Recovered energy= -3059.47394959     dipole=      2.156172061752      0.050679961739      0.000004166737
 Unable to Open any file for archive entry.
 1\1\GINC-DYNAMO\SP\UwB97XD\MIDIx\C13H9Br1(1+,2)\RPATON\27-Sep-2024\0\\
 # pop=(nbo6,hirshfeld) wb97xd/midix\\arbr34_wb97xd_popncreated by Gaus
 sianPrep\\1,2\Br,0,3.831541,-0.11031,-0.000001\C,0,1.94964,0.144188,0.
 000005\C,0,1.435826,1.437592,-0.000001\C,0,0.058084,1.637113,0.000003\
 C,0,-0.785697,0.535134,0.000001\C,0,-0.254988,-0.762855,0.000002\C,0,1
 .112498,-0.969119,0.000004\C,0,-1.375197,-1.786266,-0.000003\C,0,-2.61
 4683,-0.909601,0.000002\C,0,-3.948719,-1.27683,0.000001\C,0,-4.923995,
 -0.27896,-0.000002\C,0,-4.561147,1.067392,0.000002\C,0,-3.218836,1.438
 459,-0.000004\C,0,-2.24921,0.444674,-0.000002\H,0,2.113525,2.285526,-0
 .000003\H,0,-0.343268,2.647645,0.000001\H,0,1.534208,-1.970614,0.00000
 2\H,0,-1.333401,-2.435065,-0.887005\H,0,-1.333403,-2.435068,0.886996\H
 ,0,-4.237146,-2.326001,-0.000001\H,0,-5.975748,-0.55338,-0.000003\H,0,
 -5.332606,1.833126,0.000002\H,0,-2.937557,2.489153,-0.000002\\Version=
 ES64L-G16RevC.01\State=2-A\HF=-3059.4739496\S2=0.775537\S2-1=0.\S2A=0.
 750416\RMSD=9.775e-09\Dipole=-2.1561721,0.0506799,-0.0000042\Quadrupol
 e=24.7079262,-3.3738071,-21.334119,0.7738671,0.000004,0.0000134\PG=C01
  [X(C13H9Br1)]\\@
 The archive entry for this job was punched.


 NOTHING PUZZLES ME MORE THAN TIME AND SPACE; AND YET NOTHING TROUBLES ME LESS
                                                          -- CHARLES LAMB (1810)
 Job cpu time:       0 days  0 hours  9 minutes 37.0 seconds.
 Elapsed time:       0 days  0 hours  0 minutes 24.2 seconds.
 File lengths (MBytes):  RWF=     31 Int=      0 D2E=      0 Chk=      3 Scr=      1
 Normal termination of Gaussian 16 at Fri Sep 27 17:34:29 2024.
