 Entering Gaussian System, Link 0=/usr/local/Gaussian/G16C/g16/g16
 Input=arbr47_wb97xd_oxd.com
 Output=arbr47_wb97xd_oxd.log
 Initial command:
 /usr/local/Gaussian/G16C/g16/l1.exe "/home/rpaton/opt/midi/fukui/Gau-1694732.inp" -scrdir="/home/rpaton/opt/midi/fukui/"
 Entering Link 1 = /usr/local/Gaussian/G16C/g16/l1.exe PID=   1694733.
  
 Copyright (c) 1988-2019, Gaussian, Inc.  All Rights Reserved.
  
 This is part of the Gaussian(R) 16 program.  It is based on
 the Gaussian(R) 09 system (copyright 2009, Gaussian, Inc.),
 the Gaussian(R) 03 system (copyright 2003, Gaussian, Inc.),
 the Gaussian(R) 98 system (copyright 1998, Gaussian, Inc.),
 the Gaussian(R) 94 system (copyright 1995, Gaussian, Inc.),
 the Gaussian 92(TM) system (copyright 1992, Gaussian, Inc.),
 the Gaussian 90(TM) system (copyright 1990, Gaussian, Inc.),
 the Gaussian 88(TM) system (copyright 1988, Gaussian, Inc.),
 the Gaussian 86(TM) system (copyright 1986, Carnegie Mellon
 University), and the Gaussian 82(TM) system (copyright 1983,
 Carnegie Mellon University). Gaussian is a federally registered
 trademark of Gaussian, Inc.
  
 This software contains proprietary and confidential information,
 including trade secrets, belonging to Gaussian, Inc.
  
 This software is provided under written license and may be
 used, copied, transmitted, or stored only in accord with that
 written license.
  
 The following legend is applicable only to US Government
 contracts under FAR:
  
                    RESTRICTED RIGHTS LEGEND
  
 Use, reproduction and disclosure by the US Government is
 subject to restrictions as set forth in subparagraphs (a)
 and (c) of the Commercial Computer Software - Restricted
 Rights clause in FAR 52.227-19.
  
 Gaussian, Inc.
 340 Quinnipiac St., Bldg. 40, Wallingford CT 06492
  
  
 ---------------------------------------------------------------
 Warning -- This program may not be used in any manner that
 competes with the business of Gaussian, Inc. or will provide
 assistance to any competitor of Gaussian, Inc.  The licensee
 of this program is prohibited from giving any competitor of
 Gaussian, Inc. access to this program.  By using this program,
 the user acknowledges that Gaussian, Inc. is engaged in the
 business of creating and licensing software in the field of
 computational chemistry and represents and warrants to the
 licensee that it is not a competitor of Gaussian, Inc. and that
 it will not use this program in any manner prohibited above.
 ---------------------------------------------------------------
  

 Cite this work as:
 Gaussian 16, Revision C.01,
 M. J. Frisch, G. W. Trucks, H. B. Schlegel, G. E. Scuseria, 
 M. A. Robb, J. R. Cheeseman, G. Scalmani, V. Barone, 
 G. A. Petersson, H. Nakatsuji, X. Li, M. Caricato, A. V. Marenich, 
 J. Bloino, B. G. Janesko, R. Gomperts, B. Mennucci, H. P. Hratchian, 
 J. V. Ortiz, A. F. Izmaylov, J. L. Sonnenberg, D. Williams-Young, 
 F. Ding, F. Lipparini, F. Egidi, J. Goings, B. Peng, A. Petrone, 
 T. Henderson, D. Ranasinghe, V. G. Zakrzewski, J. Gao, N. Rega, 
 G. Zheng, W. Liang, M. Hada, M. Ehara, K. Toyota, R. Fukuda, 
 J. Hasegawa, M. Ishida, T. Nakajima, Y. Honda, O. Kitao, H. Nakai, 
 T. Vreven, K. Throssell, J. A. Montgomery, Jr., J. E. Peralta, 
 F. Ogliaro, M. J. Bearpark, J. J. Heyd, E. N. Brothers, K. N. Kudin, 
 V. N. Staroverov, T. A. Keith, R. Kobayashi, J. Normand, 
 K. Raghavachari, A. P. Rendell, J. C. Burant, S. S. Iyengar, 
 J. Tomasi, M. Cossi, J. M. Millam, M. Klene, C. Adamo, R. Cammi, 
 J. W. Ochterski, R. L. Martin, K. Morokuma, O. Farkas, 
 J. B. Foresman, and D. J. Fox, Gaussian, Inc., Wallingford CT, 2019.
 
 ******************************************
 Gaussian 16:  ES64L-G16RevC.01  3-Jul-2019
                27-Sep-2024 
 ******************************************
 %chk=arbr47_wb97xd_popn.chk
 %mem=48GB
 %nprocshared=24
 Will use up to   24 processors via shared memory.
 -----------------------------------
 # pop=(nbo6,hirshfeld) wb97xd/midix
 -----------------------------------
 1/38=1,172=1/1;
 2/12=2,17=6,18=5,40=1/2;
 3/5=20,11=2,25=1,30=1,74=-58/1,2,3;
 4//1;
 5/5=2,38=5/2;
 6/7=2,8=2,9=2,10=2,28=1,40=1,79=1,113=1,114=1,124=3103,126=1/1,12;
 99/5=1,9=1/99;
 -----------------------------------------
 arbr47_wb97xd_popncreated by GaussianPrep
 -----------------------------------------
 Symbolic Z-matrix:
 Charge =  1 Multiplicity = 2
 O                    -4.10992  -1.63072   0.58599 
 C                    -3.29858  -0.84432   0.14496 
 C                    -3.44283   0.66077   0.40329 
 O                    -2.51803   1.47764  -0.33201 
 C                    -1.21234   1.04117  -0.20859 
 C                    -0.20138   1.96928   0.00479 
 C                     1.11798   1.54028   0.09029 
 C                     1.40915   0.18607  -0.02821 
 Br                    3.20646  -0.40689   0.11013 
 C                     0.39717  -0.74077  -0.25096 
 C                    -0.91954  -0.3147   -0.35813 
 C                    -2.07079  -1.23234  -0.6735 
 H                    -4.44487   0.97875   0.09766 
 H                    -3.33552   0.83341   1.48677 
 H                    -0.4626    3.01779   0.10476 
 H                     1.9169    2.25531   0.2592 
 H                     0.63809  -1.79541  -0.35569 
 H                    -1.84491  -2.28655  -0.48374 
 H                    -2.34275  -1.13006  -1.73891 
 
                          Input orientation:                          
 ---------------------------------------------------------------------
 Center     Atomic      Atomic             Coordinates (Angstroms)
 Number     Number       Type             X           Y           Z
 ---------------------------------------------------------------------
      1          8           0       -4.109919   -1.630722    0.585986
      2          6           0       -3.298579   -0.844315    0.144959
      3          6           0       -3.442827    0.660766    0.403285
      4          8           0       -2.518027    1.477641   -0.332009
      5          6           0       -1.212342    1.041167   -0.208586
      6          6           0       -0.201379    1.969279    0.004793
      7          6           0        1.117978    1.540279    0.090290
      8          6           0        1.409152    0.186066   -0.028205
      9         35           0        3.206462   -0.406892    0.110128
     10          6           0        0.397170   -0.740770   -0.250961
     11          6           0       -0.919538   -0.314696   -0.358131
     12          6           0       -2.070795   -1.232337   -0.673500
     13          1           0       -4.444867    0.978749    0.097656
     14          1           0       -3.335515    0.833408    1.486767
     15          1           0       -0.462596    3.017789    0.104758
     16          1           0        1.916902    2.255313    0.259203
     17          1           0        0.638091   -1.795408   -0.355692
     18          1           0       -1.844914   -2.286553   -0.483742
     19          1           0       -2.342752   -1.130055   -1.738911
 ---------------------------------------------------------------------
                    Distance matrix (angstroms):
                    1          2          3          4          5
     1  O    0.000000
     2  C    1.212936   0.000000
     3  C    2.393597   1.533887   0.000000
     4  O    3.610922   2.495644   1.436383   0.000000
     5  C    4.020732   2.834153   2.343961   1.382229   0.000000
     6  C    5.345510   4.186718   3.518236   2.392071   1.388873
     7  C    6.134482   5.019487   4.655368   3.660982   2.401839
     8  C    5.842781   4.822282   4.894203   4.145262   2.763325
     9  Br   7.433279   6.519824   6.740837   6.042907   4.660931
    10  C    4.669727   3.718338   4.139797   3.664190   2.401588
    11  C    3.577962   2.488661   2.810386   2.401733   1.395157
    12  C    2.429618   1.525742   2.574058   2.767781   2.474249
    13  H    2.675817   2.154014   1.094809   2.036226   3.247599
    14  H    2.735515   2.148620   1.102386   2.095535   2.724931
    15  H    5.928170   4.791687   3.811358   2.605306   2.137133
    16  H    7.178484   6.068112   5.593750   4.541244   3.388974
    17  H    4.843292   4.080760   4.823145   4.546921   3.389971
    18  H    2.589340   2.142068   3.467972   3.826913   3.398467
    19  H    2.962886   2.131717   3.001035   2.968194   2.886854
                    6          7          8          9         10
     6  C    0.000000
     7  C    1.389983   0.000000
     8  C    2.403070   1.390222   0.000000
     9  Br   4.155799   2.855457   1.897646   0.000000
    10  C    2.787120   2.416444   1.390235   2.852014   0.000000
    11  C    2.421571   2.791681   2.404664   4.153510   1.388072
    12  C    3.768971   4.294071   3.812913   5.398599   2.551672
    13  H    4.358551   5.591119   5.908784   7.775795   5.150107
    14  H    3.648186   4.720531   5.022555   6.799334   4.408024
    15  H    1.085173   2.163668   3.397024   5.019009   3.872015
    16  H    2.152592   1.085396   2.149929   2.961845   3.397994
    17  H    3.873955   3.399412   2.151284   2.956602   1.086864
    18  H    4.588244   4.873693   4.112214   5.422380   2.733235
    19  H    4.151127   4.738493   4.328449   5.893699   3.142087
                   11         12         13         14         15
    11  C    0.000000
    12  C    1.505628   0.000000
    13  H    3.782682   3.334637   0.000000
    14  H    3.249421   3.245547   1.783652   0.000000
    15  H    3.395367   4.610375   4.473949   3.864600   0.000000
    16  H    3.877040   5.379160   6.490595   5.578227   2.503444
    17  H    2.149121   2.784980   5.808436   5.108314   4.958870
    18  H    2.181816   1.094715   4.214259   3.979818   5.513001
    19  H    2.144039   1.104320   3.498417   3.904582   4.913116
                   16         17         18         19
    16  H    0.000000
    17  H    4.292062   0.000000
    18  H    5.944054   2.534351   0.000000
    19  H    5.796363   3.352822   1.777858   0.000000
 Stoichiometry    C9H7BrO2(1+,2)
 Framework group  C1[X(C9H7BrO2)]
 Deg. of freedom    51
 Full point group                 C1      NOp   1
 Largest Abelian subgroup         C1      NOp   1
 Largest concise Abelian subgroup C1      NOp   1
                         Standard orientation:                         
 ---------------------------------------------------------------------
 Center     Atomic      Atomic             Coordinates (Angstroms)
 Number     Number       Type             X           Y           Z
 ---------------------------------------------------------------------
      1          8           0        4.109919   -1.630722   -0.585986
      2          6           0        3.298579   -0.844315   -0.144959
      3          6           0        3.442827    0.660766   -0.403285
      4          8           0        2.518027    1.477641    0.332009
      5          6           0        1.212342    1.041167    0.208586
      6          6           0        0.201379    1.969279   -0.004793
      7          6           0       -1.117978    1.540279   -0.090290
      8          6           0       -1.409152    0.186066    0.028205
      9         35           0       -3.206462   -0.406892   -0.110128
     10          6           0       -0.397170   -0.740770    0.250961
     11          6           0        0.919538   -0.314696    0.358131
     12          6           0        2.070795   -1.232337    0.673500
     13          1           0        4.444867    0.978749   -0.097656
     14          1           0        3.335515    0.833408   -1.486767
     15          1           0        0.462596    3.017789   -0.104758
     16          1           0       -1.916902    2.255313   -0.259203
     17          1           0       -0.638091   -1.795408    0.355692
     18          1           0        1.844914   -2.286553    0.483742
     19          1           0        2.342752   -1.130055    1.738911
 ---------------------------------------------------------------------
 Rotational constants (GHZ):           1.8803317           0.3084309           0.2719014
 Standard basis: MIDIx (5D, 7F)
 There are   154 symmetry adapted cartesian basis functions of A   symmetry.
 There are   150 symmetry adapted basis functions of A   symmetry.
   150 basis functions,   261 primitive gaussians,   154 cartesian basis functions
    56 alpha electrons       55 beta electrons
       nuclear repulsion energy       905.5555691979 Hartrees.
 NAtoms=   19 NActive=   19 NUniq=   19 SFac= 1.00D+00 NAtFMM=   60 NAOKFM=F Big=F
 Integral buffers will be    131072 words long.
 Raffenetti 2 integral format.
 Two-electron integral symmetry is turned on.
 Nuclear repulsion after empirical dispersion term =      905.5444915996 Hartrees.
 One-electron integrals computed using PRISM.
 NBasis=   150 RedAO= T EigKep=  1.05D-03  NBF=   150
 NBsUse=   150 1.00D-06 EigRej= -1.00D+00 NBFU=   150
 ExpMin= 1.47D-01 ExpMax= 6.10D+03 ExpMxC= 6.10D+03 IAcc=3 IRadAn=         5 AccDes= 0.00D+00
 Harris functional with IExCor= 4639 and IRadAn=       5 diagonalized for initial guess.
 HarFok:  IExCor= 4639 AccDes= 0.00D+00 IRadAn=         5 IDoV= 1 UseB2=F ITyADJ=14
 ICtDFT=  3500011 ScaDFX=  1.000000  1.000000  1.000000  1.000000
 FoFCou: FMM=F IPFlag=           0 FMFlag=      100000 FMFlg1=           0
         NFxFlg=           0 DoJE=T BraDBF=F KetDBF=T FulRan=T
         wScrn=  0.000000 ICntrl=       500 IOpCl=  0 I1Cent=   200000004 NGrid=           0
         NMat0=    1 NMatS0=      1 NMatT0=    0 NMatD0=    1 NMtDS0=    0 NMtDT0=    0
 Petite list used in FoFCou.
 Initial guess <Sx>= 0.0000 <Sy>= 0.0000 <Sz>= 0.5000 <S**2>= 0.7500 S= 0.5000
 Requested convergence on RMS density matrix=1.00D-08 within 128 cycles.
 Requested convergence on MAX density matrix=1.00D-06.
 Requested convergence on             energy=1.00D-06.
 No special actions if energy rises.
 Integral accuracy reduced to 1.0D-05 until final iterations.
 Initial convergence to 1.0D-05 achieved.  Increase integral accuracy.
 SCF Done:  E(UwB97XD) =  -3056.30057396     A.U. after   32 cycles
            NFock= 32  Conv=0.74D-08     -V/T= 2.0025
 <Sx>= 0.0000 <Sy>= 0.0000 <Sz>= 0.5000 <S**2>= 0.7641 S= 0.5070
 <L.S>= 0.000000000000E+00
 Annihilation of the first spin contaminant:
 S**2 before annihilation     0.7641,   after     0.7500

 **********************************************************************

            Population analysis using the SCF Density.

 **********************************************************************

 Orbital symmetries:
 Alpha Orbitals:
       Occupied  (A) (A) (A) (A) (A) (A) (A) (A) (A) (A) (A) (A)
                 (A) (A) (A) (A) (A) (A) (A) (A) (A) (A) (A) (A)
                 (A) (A) (A) (A) (A) (A) (A) (A) (A) (A) (A) (A)
                 (A) (A) (A) (A) (A) (A) (A) (A) (A) (A) (A) (A)
                 (A) (A) (A) (A) (A) (A) (A) (A)
       Virtual   (A) (A) (A) (A) (A) (A) (A) (A) (A) (A) (A) (A)
                 (A) (A) (A) (A) (A) (A) (A) (A) (A) (A) (A) (A)
                 (A) (A) (A) (A) (A) (A) (A) (A) (A) (A) (A) (A)
                 (A) (A) (A) (A) (A) (A) (A) (A) (A) (A) (A) (A)
                 (A) (A) (A) (A) (A) (A) (A) (A) (A) (A) (A) (A)
                 (A) (A) (A) (A) (A) (A) (A) (A) (A) (A) (A) (A)
                 (A) (A) (A) (A) (A) (A) (A) (A) (A) (A) (A) (A)
                 (A) (A) (A) (A) (A) (A) (A) (A) (A) (A)
 Beta  Orbitals:
       Occupied  (A) (A) (A) (A) (A) (A) (A) (A) (A) (A) (A) (A)
                 (A) (A) (A) (A) (A) (A) (A) (A) (A) (A) (A) (A)
                 (A) (A) (A) (A) (A) (A) (A) (A) (A) (A) (A) (A)
                 (A) (A) (A) (A) (A) (A) (A) (A) (A) (A) (A) (A)
                 (A) (A) (A) (A) (A) (A) (A)
       Virtual   (A) (A) (A) (A) (A) (A) (A) (A) (A) (A) (A) (A)
                 (A) (A) (A) (A) (A) (A) (A) (A) (A) (A) (A) (A)
                 (A) (A) (A) (A) (A) (A) (A) (A) (A) (A) (A) (A)
                 (A) (A) (A) (A) (A) (A) (A) (A) (A) (A) (A) (A)
                 (A) (A) (A) (A) (A) (A) (A) (A) (A) (A) (A) (A)
                 (A) (A) (A) (A) (A) (A) (A) (A) (A) (A) (A) (A)
                 (A) (A) (A) (A) (A) (A) (A) (A) (A) (A) (A) (A)
                 (A) (A) (A) (A) (A) (A) (A) (A) (A) (A) (A)
 The electronic state is 2-A.
 Alpha  occ. eigenvalues -- -480.34955 -62.78257 -56.37152 -56.36832 -56.36677
 Alpha  occ. eigenvalues --  -19.41617 -19.30339 -10.53168 -10.51660 -10.48861
 Alpha  occ. eigenvalues --  -10.46890 -10.46319 -10.45512 -10.45241 -10.45072
 Alpha  occ. eigenvalues --  -10.41754  -9.09084  -6.87507  -6.86419  -6.85905
 Alpha  occ. eigenvalues --   -2.97854  -2.97511  -2.97164  -2.96201  -2.96177
 Alpha  occ. eigenvalues --   -1.38873  -1.30565  -1.20657  -1.12256  -1.09775
 Alpha  occ. eigenvalues --   -1.04344  -1.03276  -0.97385  -0.92370  -0.90054
 Alpha  occ. eigenvalues --   -0.82962  -0.80844  -0.78322  -0.77080  -0.74536
 Alpha  occ. eigenvalues --   -0.73201  -0.71740  -0.70191  -0.68934  -0.67040
 Alpha  occ. eigenvalues --   -0.66512  -0.65978  -0.64506  -0.64055  -0.60879
 Alpha  occ. eigenvalues --   -0.58333  -0.56922  -0.54996  -0.53722  -0.51256
 Alpha  occ. eigenvalues --   -0.47679
 Alpha virt. eigenvalues --   -0.14899  -0.13884  -0.10340  -0.08719   0.00714
 Alpha virt. eigenvalues --    0.02595   0.04097   0.05575   0.06323   0.08035
 Alpha virt. eigenvalues --    0.09550   0.10498   0.10683   0.13273   0.14296
 Alpha virt. eigenvalues --    0.16411   0.20273   0.21095   0.22889   0.24406
 Alpha virt. eigenvalues --    0.28387   0.32671   0.34654   0.37872   0.39297
 Alpha virt. eigenvalues --    0.40723   0.43377   0.44969   0.45119   0.46147
 Alpha virt. eigenvalues --    0.48939   0.49690   0.51347   0.53343   0.54309
 Alpha virt. eigenvalues --    0.56194   0.56915   0.59225   0.62401   0.64165
 Alpha virt. eigenvalues --    0.67008   0.67481   0.67660   0.70254   0.73310
 Alpha virt. eigenvalues --    0.74451   0.76082   0.76815   0.78360   0.78664
 Alpha virt. eigenvalues --    0.80313   0.82179   0.82337   0.83226   0.83533
 Alpha virt. eigenvalues --    0.85216   0.85697   0.86681   0.86768   0.90220
 Alpha virt. eigenvalues --    0.92306   0.93367   0.95291   0.98626   1.03706
 Alpha virt. eigenvalues --    1.07179   1.09880   1.12092   1.17128   1.19647
 Alpha virt. eigenvalues --    1.22342   1.25276   1.33682   1.37595   1.38526
 Alpha virt. eigenvalues --    1.47370   1.49720   1.53813   1.57262   1.60087
 Alpha virt. eigenvalues --    1.67059   1.70438   1.72420   1.72736   1.75624
 Alpha virt. eigenvalues --    1.81239   1.84346   1.89198   1.92219   2.04565
 Alpha virt. eigenvalues --    2.11188   2.29167   2.43259   2.86459
  Beta  occ. eigenvalues -- -480.34897 -62.78217 -56.37130 -56.36687 -56.36649
  Beta  occ. eigenvalues --  -19.41131 -19.30340 -10.52885 -10.51302 -10.48845
  Beta  occ. eigenvalues --  -10.46779 -10.46313 -10.45480 -10.45275 -10.45021
  Beta  occ. eigenvalues --  -10.41760  -9.09007  -6.87483  -6.86197  -6.85872
  Beta  occ. eigenvalues --   -2.97806  -2.97416  -2.97152  -2.96104  -2.96090
  Beta  occ. eigenvalues --   -1.37713  -1.30548  -1.19916  -1.11371  -1.09461
  Beta  occ. eigenvalues --   -1.03665  -1.02965  -0.96889  -0.91934  -0.89523
  Beta  occ. eigenvalues --   -0.82699  -0.80433  -0.77900  -0.75946  -0.74162
  Beta  occ. eigenvalues --   -0.72996  -0.71570  -0.69769  -0.67539  -0.66770
  Beta  occ. eigenvalues --   -0.65993  -0.65758  -0.64140  -0.62542  -0.59792
  Beta  occ. eigenvalues --   -0.57778  -0.54660  -0.53638  -0.52610  -0.47619
  Beta virt. eigenvalues --   -0.31609  -0.12643  -0.11908  -0.09719  -0.08587
  Beta virt. eigenvalues --    0.01166   0.03701   0.04194   0.05637   0.06538
  Beta virt. eigenvalues --    0.08193   0.09760   0.10630   0.10775   0.13542
  Beta virt. eigenvalues --    0.14525   0.16819   0.20535   0.21413   0.23270
  Beta virt. eigenvalues --    0.24699   0.28626   0.32774   0.34797   0.38185
  Beta virt. eigenvalues --    0.39533   0.41000   0.43601   0.46193   0.46270
  Beta virt. eigenvalues --    0.46909   0.49131   0.49853   0.51605   0.54099
  Beta virt. eigenvalues --    0.54527   0.56329   0.57147   0.59558   0.62665
  Beta virt. eigenvalues --    0.64438   0.67396   0.67690   0.67964   0.70375
  Beta virt. eigenvalues --    0.73468   0.74852   0.76242   0.77092   0.78573
  Beta virt. eigenvalues --    0.78936   0.80605   0.82447   0.82578   0.83373
  Beta virt. eigenvalues --    0.83706   0.85352   0.85800   0.86881   0.86999
  Beta virt. eigenvalues --    0.90528   0.92610   0.93456   0.95452   0.98739
  Beta virt. eigenvalues --    1.03906   1.07350   1.10100   1.12317   1.17302
  Beta virt. eigenvalues --    1.19840   1.22491   1.25377   1.34253   1.37941
  Beta virt. eigenvalues --    1.38844   1.47613   1.50134   1.54498   1.57308
  Beta virt. eigenvalues --    1.60709   1.67679   1.71045   1.72994   1.73076
  Beta virt. eigenvalues --    1.75766   1.81369   1.84738   1.89358   1.92542
  Beta virt. eigenvalues --    2.05103   2.11255   2.29860   2.43833   2.86473
          Condensed to atoms (all electrons):
               1          2          3          4          5          6
     1  O    8.065121   0.527251  -0.074254   0.000572  -0.000011   0.000002
     2  C    0.527251   4.645971   0.258403  -0.009725  -0.015248  -0.000067
     3  C   -0.074254   0.258403   5.303166   0.099045  -0.051285   0.001127
     4  O    0.000572  -0.009725   0.099045   8.297673   0.298236  -0.040196
     5  C   -0.000011  -0.015248  -0.051285   0.298236   4.665915   0.458140
     6  C    0.000002  -0.000067   0.001127  -0.040196   0.458140   4.963169
     7  C   -0.000000   0.000008  -0.000135   0.002395  -0.031497   0.489177
     8  C   -0.000000  -0.000078   0.000017  -0.000074  -0.030883  -0.039625
     9  Br  -0.000000   0.000000  -0.000000   0.000000   0.000344   0.001137
    10  C    0.000002   0.001375   0.000007   0.001912  -0.020575  -0.011188
    11  C    0.002775  -0.032290   0.018799  -0.055465   0.365660  -0.060943
    12  C   -0.073471   0.253700  -0.185850   0.002310  -0.022458   0.001309
    13  H    0.003456  -0.016181   0.353722  -0.013144   0.003621   0.000008
    14  H    0.003262  -0.037411   0.361992  -0.012632  -0.003914   0.000803
    15  H   -0.000000   0.000024   0.000013   0.001026  -0.020104   0.380440
    16  H    0.000000  -0.000000   0.000001  -0.000014   0.001802  -0.007873
    17  H   -0.000002  -0.000002  -0.000001  -0.000013   0.001525   0.000015
    18  H    0.006459  -0.018128   0.006474   0.000031   0.002376  -0.000044
    19  H    0.001438  -0.025727   0.004943   0.000798  -0.003108   0.000065
               7          8          9         10         11         12
     1  O   -0.000000  -0.000000  -0.000000   0.000002   0.002775  -0.073471
     2  C    0.000008  -0.000078   0.000000   0.001375  -0.032290   0.253700
     3  C   -0.000135   0.000017  -0.000000   0.000007   0.018799  -0.185850
     4  O    0.002395  -0.000074   0.000000   0.001912  -0.055465   0.002310
     5  C   -0.031497  -0.030883   0.000344  -0.020575   0.365660  -0.022458
     6  C    0.489177  -0.039625   0.001137  -0.011188  -0.060943   0.001309
     7  C    5.008386   0.398855  -0.033840  -0.052148  -0.026220   0.000056
     8  C    0.398855   5.105390   0.251492   0.427701  -0.021047   0.001003
     9  Br  -0.033840   0.251492  34.610893  -0.035973   0.001580  -0.000013
    10  C   -0.052148   0.427701  -0.035973   4.936262   0.467237  -0.011186
    11  C   -0.026220  -0.021047   0.001580   0.467237   5.373422   0.129417
    12  C    0.000056   0.001003  -0.000013  -0.011186   0.129417   5.600470
    13  H    0.000001   0.000000   0.000000   0.000007  -0.000284   0.004804
    14  H   -0.000019  -0.000005  -0.000000   0.000033  -0.001653   0.006354
    15  H   -0.011650   0.002241  -0.000029  -0.000455   0.003754  -0.000008
    16  H    0.377921  -0.015772   0.000741   0.001974  -0.000042   0.000004
    17  H    0.001847  -0.012963   0.000761   0.373446  -0.006172  -0.002089
    18  H    0.000006   0.000160  -0.000007  -0.003605  -0.013654   0.349505
    19  H    0.000001  -0.000038   0.000001  -0.003004  -0.017352   0.356912
              13         14         15         16         17         18
     1  O    0.003456   0.003262  -0.000000   0.000000  -0.000002   0.006459
     2  C   -0.016181  -0.037411   0.000024  -0.000000  -0.000002  -0.018128
     3  C    0.353722   0.361992   0.000013   0.000001  -0.000001   0.006474
     4  O   -0.013144  -0.012632   0.001026  -0.000014  -0.000013   0.000031
     5  C    0.003621  -0.003914  -0.020104   0.001802   0.001525   0.002376
     6  C    0.000008   0.000803   0.380440  -0.007873   0.000015  -0.000044
     7  C    0.000001  -0.000019  -0.011650   0.377921   0.001847   0.000006
     8  C    0.000000  -0.000005   0.002241  -0.015772  -0.012963   0.000160
     9  Br   0.000000  -0.000000  -0.000029   0.000741   0.000761  -0.000007
    10  C    0.000007   0.000033  -0.000455   0.001974   0.373446  -0.003605
    11  C   -0.000284  -0.001653   0.003754  -0.000042  -0.006172  -0.013654
    12  C    0.004804   0.006354  -0.000008   0.000004  -0.002089   0.349505
    13  H    0.389059  -0.014374  -0.000014  -0.000000  -0.000000  -0.000109
    14  H   -0.014374   0.419139  -0.000033   0.000000  -0.000001  -0.000202
    15  H   -0.000014  -0.000033   0.361596  -0.002930   0.000004   0.000000
    16  H   -0.000000   0.000000  -0.002930   0.358732  -0.000037  -0.000000
    17  H   -0.000000  -0.000001   0.000004  -0.000037   0.366992   0.002242
    18  H   -0.000109  -0.000202   0.000000  -0.000000   0.002242   0.402141
    19  H   -0.000287  -0.000012  -0.000001  -0.000000   0.000010  -0.010552
              19
     1  O    0.001438
     2  C   -0.025727
     3  C    0.004943
     4  O    0.000798
     5  C   -0.003108
     6  C    0.000065
     7  C    0.000001
     8  C   -0.000038
     9  Br   0.000001
    10  C   -0.003004
    11  C   -0.017352
    12  C    0.356912
    13  H   -0.000287
    14  H   -0.000012
    15  H   -0.000001
    16  H   -0.000000
    17  H    0.000010
    18  H   -0.010552
    19  H    0.393152
          Atomic-Atomic Spin Densities.
               1          2          3          4          5          6
     1  O   -0.001067   0.000117   0.000229   0.000002   0.000010   0.000000
     2  C    0.000117   0.009867   0.002441  -0.000679  -0.002125  -0.000007
     3  C    0.000229   0.002441  -0.000729  -0.004267  -0.002967  -0.000413
     4  O    0.000002  -0.000679  -0.004267   0.257923  -0.050866  -0.002318
     5  C    0.000010  -0.002125  -0.002967  -0.050866   0.217375   0.037097
     6  C    0.000000  -0.000007  -0.000413  -0.002318   0.037097   0.035937
     7  C   -0.000000   0.000006   0.000011   0.000117  -0.006587  -0.024689
     8  C    0.000000   0.000003   0.000008   0.000015  -0.004598  -0.007451
     9  Br   0.000000  -0.000000  -0.000000  -0.000000   0.000036   0.000239
    10  C   -0.000000   0.000125  -0.000007   0.000071  -0.005516  -0.000347
    11  C    0.000032  -0.000865   0.000170  -0.003522   0.040638  -0.001443
    12  C   -0.000010  -0.000248  -0.000630   0.001168  -0.003884  -0.000021
    13  H    0.000014  -0.000338   0.000439   0.000351  -0.000052   0.000006
    14  H    0.000037  -0.002240   0.001068  -0.002935   0.003885   0.000216
    15  H    0.000000   0.000001   0.000010   0.000039  -0.000631   0.000006
    16  H    0.000000  -0.000000  -0.000000  -0.000000   0.000040  -0.000084
    17  H    0.000000   0.000001   0.000000  -0.000000   0.000029  -0.000011
    18  H   -0.000015   0.000171  -0.000004  -0.000022  -0.000059  -0.000005
    19  H    0.000056  -0.000979  -0.000176   0.000531  -0.000486   0.000003
               7          8          9         10         11         12
     1  O   -0.000000   0.000000   0.000000  -0.000000   0.000032  -0.000010
     2  C    0.000006   0.000003  -0.000000   0.000125  -0.000865  -0.000248
     3  C    0.000011   0.000008  -0.000000  -0.000007   0.000170  -0.000630
     4  O    0.000117   0.000015  -0.000000   0.000071  -0.003522   0.001168
     5  C   -0.006587  -0.004598   0.000036  -0.005516   0.040638  -0.003884
     6  C   -0.024689  -0.007451   0.000239  -0.000347  -0.001443  -0.000021
     7  C    0.020378   0.032688  -0.003240  -0.001673  -0.001235  -0.000001
     8  C    0.032688   0.296476  -0.051485   0.027660  -0.007945   0.000110
     9  Br  -0.003240  -0.051485   0.243882  -0.002047   0.000274  -0.000001
    10  C   -0.001673   0.027660  -0.002047  -0.041016  -0.023706   0.000733
    11  C   -0.001235  -0.007945   0.000274  -0.023706   0.102222  -0.008577
    12  C   -0.000001   0.000110  -0.000001   0.000733  -0.008577  -0.001450
    13  H   -0.000000  -0.000000  -0.000000   0.000000  -0.000038   0.000059
    14  H   -0.000020  -0.000008   0.000000  -0.000030   0.000454  -0.000063
    15  H   -0.000012   0.000035   0.000000  -0.000015   0.000023  -0.000001
    16  H    0.000280  -0.000496  -0.000027   0.000010  -0.000017  -0.000000
    17  H    0.000011  -0.000335  -0.000067   0.000805  -0.000071   0.000065
    18  H    0.000001   0.000007  -0.000000   0.000076  -0.000341   0.001206
    19  H    0.000003   0.000016  -0.000001   0.000281  -0.002316   0.003434
              13         14         15         16         17         18
     1  O    0.000014   0.000037   0.000000   0.000000   0.000000  -0.000015
     2  C   -0.000338  -0.002240   0.000001  -0.000000   0.000001   0.000171
     3  C    0.000439   0.001068   0.000010  -0.000000   0.000000  -0.000004
     4  O    0.000351  -0.002935   0.000039  -0.000000  -0.000000  -0.000022
     5  C   -0.000052   0.003885  -0.000631   0.000040   0.000029  -0.000059
     6  C    0.000006   0.000216   0.000006  -0.000084  -0.000011  -0.000005
     7  C   -0.000000  -0.000020  -0.000012   0.000280   0.000011   0.000001
     8  C   -0.000000  -0.000008   0.000035  -0.000496  -0.000335   0.000007
     9  Br  -0.000000   0.000000   0.000000  -0.000027  -0.000067  -0.000000
    10  C    0.000000  -0.000030  -0.000015   0.000010   0.000805   0.000076
    11  C   -0.000038   0.000454   0.000023  -0.000017  -0.000071  -0.000341
    12  C    0.000059  -0.000063  -0.000001  -0.000000   0.000065   0.001206
    13  H   -0.001642   0.000291  -0.000000   0.000000  -0.000000   0.000001
    14  H    0.000291   0.013404  -0.000007   0.000000  -0.000000  -0.000016
    15  H   -0.000000  -0.000007  -0.002540   0.000043  -0.000000   0.000000
    16  H    0.000000   0.000000   0.000043  -0.001698   0.000000  -0.000000
    17  H   -0.000000  -0.000000  -0.000000   0.000000   0.000258   0.000010
    18  H    0.000001  -0.000016   0.000000  -0.000000   0.000010   0.001799
    19  H    0.000005   0.000037  -0.000000   0.000000  -0.000010  -0.000605
              19
     1  O    0.000056
     2  C   -0.000979
     3  C   -0.000176
     4  O    0.000531
     5  C   -0.000486
     6  C    0.000003
     7  C    0.000003
     8  C    0.000016
     9  Br  -0.000001
    10  C    0.000281
    11  C   -0.002316
    12  C    0.003434
    13  H    0.000005
    14  H    0.000037
    15  H   -0.000000
    16  H    0.000000
    17  H   -0.000010
    18  H   -0.000605
    19  H    0.006319
 Mulliken charges and spin densities:
               1          2
     1  O   -0.462599  -0.000595
     2  C    0.468125   0.005250
     3  C   -0.096186  -0.004817
     4  O   -0.572733   0.195608
     5  C    0.401461   0.221342
     6  C   -0.135458   0.036715
     7  C   -0.123145   0.016039
     8  C   -0.066376   0.284697
     9  Br   0.202911   0.187563
    10  C   -0.071823  -0.044596
    11  C   -0.127521   0.093736
    12  C   -0.410769  -0.008111
    13  H    0.289715  -0.000904
    14  H    0.278673   0.014073
    15  H    0.286127  -0.003049
    16  H    0.285492  -0.001949
    17  H    0.274438   0.000683
    18  H    0.276907   0.002201
    19  H    0.302762   0.006113
 Sum of Mulliken charges =   1.00000   1.00000
 Mulliken charges and spin densities with hydrogens summed into heavy atoms:
               1          2
     1  O   -0.462599  -0.000595
     2  C    0.468125   0.005250
     3  C    0.472201   0.008352
     4  O   -0.572733   0.195608
     5  C    0.401461   0.221342
     6  C    0.150669   0.033666
     7  C    0.162346   0.014090
     8  C   -0.066376   0.284697
     9  Br   0.202911   0.187563
    10  C    0.202614  -0.043913
    11  C   -0.127521   0.093736
    12  C    0.168900   0.000203
 Electronic spatial extent (au):  <R**2>=           3486.5596
 Charge=              1.0000 electrons
 Dipole moment (field-independent basis, Debye):
    X=              0.1493    Y=              2.3867    Z=              0.4538  Tot=              2.4340
 Quadrupole moment (field-independent basis, Debye-Ang):
   XX=            -51.1552   YY=            -67.5253   ZZ=            -76.7720
   XY=              6.6222   XZ=              2.4238   YZ=             -4.2540
 Traceless Quadrupole moment (field-independent basis, Debye-Ang):
   XX=             13.9956   YY=             -2.3745   ZZ=            -11.6212
   XY=              6.6222   XZ=              2.4238   YZ=             -4.2540
 Octapole moment (field-independent basis, Debye-Ang**2):
  XXX=           -101.5630  YYY=              4.1745  ZZZ=             -4.8674  XYY=            -39.2975
  XXY=             23.4650  XXZ=              1.9045  XZZ=            -18.2925  YZZ=             -6.3348
  YYZ=             -0.4318  XYZ=            -10.4752
 Hexadecapole moment (field-independent basis, Debye-Ang**3):
 XXXX=          -2655.7665 YYYY=           -570.0121 ZZZZ=           -128.1976 XXXY=            229.5529
 XXXZ=             48.8646 YYYX=             36.8792 YYYZ=             -8.7133 ZZZX=              5.5167
 ZZZY=              1.5236 XXYY=           -628.3712 XXZZ=           -504.2540 YYZZ=           -135.1362
 XXYZ=            -35.6321 YYXZ=             12.2786 ZZXY=             13.0863
 N-N= 9.055444915996D+02 E-N=-9.065136175109D+03  KE= 3.048769885200D+03
 There are a total of      433164 grid points.
 ElSum from          density=      110.9999945437
 ElSum from atomic densities=      112.0000057389
 Hirshfeld populations at iteration   1 (CA, CB, DipXYZ):
               1          2          3          4          5
     1  O    4.090227   4.090524  -0.014125   0.017905   0.011224
     2  C    2.915860   2.910048  -0.008936   0.027015   0.021896
     3  C    2.979019   2.965680  -0.004321   0.025847   0.020359
     4  O    4.121571   3.936326   0.004968  -0.075588  -0.033929
     5  C    3.014069   2.838167   0.068343   0.036717   0.013417
     6  C    3.020744   2.965941   0.032157   0.042001   0.000579
     7  C    3.016481   2.969488  -0.030293   0.027061  -0.006008
     8  C    3.057945   2.860765  -0.030081  -0.003871  -0.001782
     9  Br  17.505676  17.302592  -0.194805  -0.063228  -0.014404
    10  C    3.007528   2.994891  -0.015699  -0.036774   0.006110
    11  C    3.022214   2.942411   0.040058  -0.005836   0.015069
    12  C    3.018205   3.012864   0.011770  -0.004804   0.002301
    13  H    0.457234   0.457301   0.166136   0.049692   0.039760
    14  H    0.466498   0.456344   0.004866   0.022687  -0.169385
    15  H    0.456495   0.454707   0.039587   0.181393  -0.017044
    16  H    0.459395   0.458121  -0.121296   0.134736  -0.027592
    17  H    0.460780   0.461154  -0.027429  -0.176493   0.018281
    18  H    0.465442   0.463593  -0.028627  -0.168942  -0.022218
    19  H    0.464615   0.459079   0.049255   0.002795   0.166951
       Tot  55.999997  54.999997  -0.058472   0.032312   0.023587

 Dip from Atomic Chgs              0.117222   0.906674   0.154963
         Total Dipole              0.058750   0.938986   0.178550

 Hirshfeld charges, spin densities, dipoles, and CM5 charges using IRadAn=      5:
              Q-H        S-H        Dx         Dy         Dz        Q-CM5   
     1  O   -0.180751  -0.000297  -0.014125   0.017905   0.011224  -0.229522
     2  C    0.174092   0.005812  -0.008936   0.027015   0.021896   0.197752
     3  C    0.055301   0.013340  -0.004321   0.025847   0.020359  -0.016046
     4  O   -0.057897   0.185244   0.004968  -0.075588  -0.033929  -0.134905
     5  C    0.147764   0.175901   0.068343   0.036717   0.013417   0.165948
     6  C    0.013315   0.054803   0.032157   0.042001   0.000579  -0.036755
     7  C    0.014031   0.046993  -0.030293   0.027061  -0.006008  -0.039051
     8  C    0.081290   0.197180  -0.030081  -0.003871  -0.001782   0.060126
     9  Br   0.191732   0.203084  -0.194805  -0.063228  -0.014404   0.206597
    10  C   -0.002419   0.012637  -0.015699  -0.036774   0.006110  -0.053142
    11  C    0.035375   0.079802   0.040058  -0.005836   0.015069   0.026638
    12  C   -0.031069   0.005341   0.011770  -0.004804   0.002301  -0.122992
    13  H    0.085465  -0.000067   0.166136   0.049692   0.039760   0.150660
    14  H    0.077158   0.010153   0.004866   0.022687  -0.169385   0.140511
    15  H    0.088798   0.001788   0.039587   0.181393  -0.017044   0.147381
    16  H    0.082484   0.001273  -0.121296   0.134736  -0.027592   0.139088
    17  H    0.078066  -0.000374  -0.027429  -0.176493   0.018281   0.135289
    18  H    0.070965   0.001849  -0.028627  -0.168942  -0.022218   0.129191
    19  H    0.076306   0.005536   0.049255   0.002795   0.166951   0.133239
       Tot   1.000005   1.000000  -0.058472   0.032312   0.023587   1.000005
 Hirshfeld charges and spin densities with hydrogens summed into heavy atoms:
              Q-H        S-H       Q-CM5   
     1  O   -0.180751  -0.000297  -0.229522
     2  C    0.174092   0.005812   0.197752
     3  C    0.217924   0.023426   0.275125
     4  O   -0.057897   0.185244  -0.134905
     5  C    0.147764   0.175901   0.165948
     6  C    0.102113   0.056591   0.110626
     7  C    0.096515   0.048266   0.100036
     8  C    0.081290   0.197180   0.060126
     9  Br   0.191732   0.203084   0.206597
    10  C    0.075647   0.012263   0.082147
    11  C    0.035375   0.079802   0.026638
    12  C    0.116202   0.012726   0.139438
 
 EQQ= 0.872504203012E-01 EQD=-0.372190417846E-01 EDD= 0.329634420717E-02
 EQQ+QD+DD= 0.533277227238E-01
 
                          Isotropic Fermi Contact Couplings
        Atom                 a.u.       MegaHertz       Gauss      10(-4) cm-1
     1  O(17)             -0.00035       0.21192       0.07562       0.07069
     2  C(13)              0.00818       9.19478       3.28093       3.06705
     3  C(13)              0.00118       1.32413       0.47248       0.44168
     4  O(17)              0.05265     -31.91691     -11.38875     -10.64633
     5  C(13)              0.01574      17.69043       6.31238       5.90089
     6  C(13)              0.00060       0.66981       0.23900       0.22342
     7  C(13)             -0.00247      -2.77937      -0.99175      -0.92710
     8  C(13)              0.02811      31.59803      11.27496      10.53997
     9  Br(79)             0.01871      21.02678       7.50288       7.01378
    10  C(13)             -0.00836      -9.39360      -3.35187      -3.13337
    11  C(13)              0.00601       6.75283       2.40958       2.25250
    12  C(13)             -0.00204      -2.29057      -0.81733      -0.76405
    13  H(1)              -0.00038      -1.68189      -0.60014      -0.56102
    14  H(1)               0.00480      21.46028       7.65756       7.15838
    15  H(1)              -0.00086      -3.82184      -1.36373      -1.27483
    16  H(1)              -0.00051      -2.29308      -0.81823      -0.76489
    17  H(1)               0.00013       0.59213       0.21129       0.19751
    18  H(1)               0.00105       4.67298       1.66743       1.55874
    19  H(1)               0.00281      12.55131       4.47862       4.18667
 --------------------------------------------------------
       Center         ----  Spin Dipole Couplings  ----
                      3XX-RR        3YY-RR        3ZZ-RR
 --------------------------------------------------------
     1   Atom       -0.000812      0.000206      0.000606
     2   Atom       -0.000200      0.005773     -0.005573
     3   Atom        0.003030     -0.008409      0.005379
     4   Atom       -0.366302     -0.305699      0.672001
     5   Atom       -0.125832     -0.128374      0.254206
     6   Atom       -0.017368     -0.021444      0.038813
     7   Atom       -0.018697     -0.015435      0.034133
     8   Atom       -0.140484     -0.148053      0.288537
     9   Atom       -1.213946     -1.060693      2.274638
    10   Atom        0.007489      0.007345     -0.014834
    11   Atom       -0.052907     -0.029644      0.082551
    12   Atom       -0.003712      0.005083     -0.001371
    13   Atom        0.008099     -0.004506     -0.003593
    14   Atom        0.001592     -0.004429      0.002837
    15   Atom       -0.004497      0.009909     -0.005412
    16   Atom       -0.001415      0.005915     -0.004499
    17   Atom       -0.000336      0.004631     -0.004295
    18   Atom       -0.001319      0.003782     -0.002463
    19   Atom       -0.001039      0.001515     -0.000477
 --------------------------------------------------------
                        XY            XZ            YZ
 --------------------------------------------------------
     1   Atom       -0.003573     -0.004848      0.005907
     2   Atom       -0.007263     -0.000954      0.003044
     3   Atom       -0.007254     -0.015214      0.007529
     4   Atom       -0.050398      0.156780     -0.307311
     5   Atom        0.002362     -0.008150      0.018658
     6   Atom       -0.010599     -0.026055      0.018518
     7   Atom       -0.001056     -0.019489      0.006521
     8   Atom       -0.001016     -0.047093      0.043409
     9   Atom       -0.101450     -0.390880      0.422694
    10   Atom       -0.002748      0.007771      0.001805
    11   Atom       -0.003286     -0.011880      0.045902
    12   Atom       -0.002065      0.001566      0.001420
    13   Atom       -0.001633     -0.002194      0.000467
    14   Atom       -0.001146     -0.004752      0.001593
    15   Atom       -0.002200      0.000048     -0.001370
    16   Atom       -0.005304      0.001104     -0.002472
    17   Atom       -0.002521      0.000865     -0.001784
    18   Atom       -0.001533      0.000124     -0.000644
    19   Atom       -0.002369      0.002142     -0.003892
 --------------------------------------------------------


 ---------------------------------------------------------------------------------
              Anisotropic Spin Dipole Couplings in Principal Axis System
 ---------------------------------------------------------------------------------

       Atom             a.u.   MegaHertz   Gauss  10(-4) cm-1        Axes

              Baa    -0.0058     0.421     0.150     0.140  0.3556 -0.5385  0.7639
     1 O(17)  Bbb    -0.0039     0.282     0.101     0.094  0.7931  0.6063  0.0583
              Bcc     0.0097    -0.703    -0.251    -0.234 -0.4946  0.5851  0.6427
 
              Baa    -0.0066    -0.890    -0.318    -0.297 -0.3251 -0.4005  0.8567
     2 C(13)  Bbb    -0.0046    -0.613    -0.219    -0.204  0.7769  0.4034  0.4835
              Bcc     0.0112     1.503     0.536     0.501 -0.5393  0.8227  0.1800
 
              Baa    -0.0119    -1.602    -0.572    -0.534  0.3698  0.9259 -0.0776
     3 C(13)  Bbb    -0.0110    -1.478    -0.527    -0.493  0.6679 -0.2068  0.7150
              Bcc     0.0229     3.079     1.099     1.027 -0.6459  0.3162  0.6948
 
              Baa    -0.3975    28.762    10.263     9.594  0.5392  0.8271  0.1586
     4 O(17)  Bbb    -0.3866    27.977     9.983     9.332  0.8302 -0.4903 -0.2653
              Bcc     0.7841   -56.739   -20.246   -18.926  0.1416 -0.2747  0.9510
 
              Baa    -0.1308   -17.559    -6.265    -5.857 -0.4941  0.8678 -0.0525
     5 C(13)  Bbb    -0.1244   -16.698    -5.958    -5.570  0.8692  0.4945 -0.0057
              Bcc     0.2553    34.257    12.224    11.427 -0.0211  0.0484  0.9986
 
              Baa    -0.0304    -4.084    -1.457    -1.362  0.7399  0.6651  0.1005
     6 C(13)  Bbb    -0.0244    -3.281    -1.171    -1.094 -0.5674  0.6974 -0.4378
              Bcc     0.0549     7.365     2.628     2.457 -0.3613  0.2669  0.8934
 
              Baa    -0.0252    -3.385    -1.208    -1.129  0.9403 -0.1125  0.3211
     7 C(13)  Bbb    -0.0161    -2.156    -0.769    -0.719  0.1429  0.9871 -0.0727
              Bcc     0.0413     5.541     1.977     1.848 -0.3088  0.1143  0.9442
 
              Baa    -0.1539   -20.647    -7.367    -6.887 -0.3922  0.9105 -0.1311
     8 C(13)  Bbb    -0.1440   -19.321    -6.894    -6.445  0.9137  0.4021  0.0591
              Bcc     0.2978    39.968    14.262    13.332 -0.1065  0.0966  0.9896
 
              Baa    -1.2753  -171.070   -61.042   -57.063  0.9463  0.3162  0.0665
     9 Br(79) Bbb    -1.0968  -147.117   -52.495   -49.073 -0.3035  0.9404 -0.1531
              Bcc     2.3721   318.187   113.537   106.136 -0.1110  0.1247  0.9860
 
              Baa    -0.0175    -2.353    -0.840    -0.785 -0.3052 -0.1024  0.9468
    10 C(13)  Bbb     0.0064     0.858     0.306     0.286  0.4544  0.8580  0.2393
              Bcc     0.0111     1.495     0.533     0.499  0.8369 -0.5033  0.2154
 
              Baa    -0.0540    -7.246    -2.585    -2.417  0.9905 -0.0785  0.1126
    11 C(13)  Bbb    -0.0459    -6.163    -2.199    -2.056  0.1114  0.9391 -0.3252
              Bcc     0.0999    13.409     4.785     4.473 -0.0802  0.3347  0.9389
 
              Baa    -0.0051    -0.685    -0.244    -0.228  0.8602  0.2373 -0.4513
    12 C(13)  Bbb    -0.0006    -0.081    -0.029    -0.027  0.4743 -0.0474  0.8791
              Bcc     0.0057     0.766     0.273     0.255 -0.1873  0.9703  0.1533
 
              Baa    -0.0048    -2.539    -0.906    -0.847  0.0837  0.9694 -0.2309
    13 H(1)   Bbb    -0.0040    -2.110    -0.753    -0.704  0.2026  0.2103  0.9564
              Bcc     0.0087     4.649     1.659     1.551  0.9757 -0.1268 -0.1788
 
              Baa    -0.0048    -2.545    -0.908    -0.849  0.0436  0.9829 -0.1787
    14 H(1)   Bbb    -0.0026    -1.367    -0.488    -0.456  0.7602  0.0834  0.6444
              Bcc     0.0073     3.912     1.396     1.305 -0.6483  0.1639  0.7435
 
              Baa    -0.0056    -2.968    -1.059    -0.990  0.1904  0.1134  0.9751
    15 H(1)   Bbb    -0.0048    -2.557    -0.912    -0.853  0.9708  0.1262 -0.2042
              Bcc     0.0104     5.525     1.971     1.843 -0.1462  0.9855 -0.0861
 
              Baa    -0.0051    -2.702    -0.964    -0.901  0.0802  0.2557  0.9634
    16 H(1)   Bbb    -0.0042    -2.222    -0.793    -0.741  0.8876  0.4215 -0.1858
              Bcc     0.0092     4.924     1.757     1.642 -0.4536  0.8700 -0.1932
 
              Baa    -0.0047    -2.495    -0.890    -0.832 -0.1023  0.1605  0.9817
    17 H(1)   Bbb    -0.0014    -0.741    -0.264    -0.247  0.9186  0.3941  0.0313
              Bcc     0.0061     3.236     1.155     1.079 -0.3818  0.9050 -0.1877
 
              Baa    -0.0025    -1.350    -0.482    -0.450  0.0386  0.1107  0.9931
    18 H(1)   Bbb    -0.0017    -0.929    -0.331    -0.310  0.9634  0.2597 -0.0663
              Bcc     0.0043     2.279     0.813     0.760 -0.2652  0.9593 -0.0966
 
              Baa    -0.0035    -1.891    -0.675    -0.631 -0.1877  0.5422  0.8190
    19 H(1)   Bbb    -0.0024    -1.301    -0.464    -0.434  0.8910  0.4449 -0.0903
              Bcc     0.0060     3.192     1.139     1.065 -0.4134  0.7128 -0.5666
 

 ---------------------------------------------------------------------------------

 Running external command "gaunbo6 R"
         input file       "/home/rpaton/opt/midi/fukui/Gau-1694733.EIn"
         output file      "/home/rpaton/opt/midi/fukui/Gau-1694733.EOu"
         message file     "/home/rpaton/opt/midi/fukui/Gau-1694733.EMs"
         fchk file        "/home/rpaton/opt/midi/fukui/Gau-1694733.EFC"
         mat. el file     "/home/rpaton/opt/midi/fukui/Gau-1694733.EUF"

 Writing WrtUnf unformatted file "/home/rpaton/opt/midi/fukui/Gau-1694733.EUF"
 Gaussian matrix elements                                         Version   2 NLab=11 Len12L=8 Len4L=8
 Write SHELL TO ATOM MAP                   from file      0 offset           0 length                  82 to matrix element file.
 Write SHELL TYPES                         from file      0 offset           0 length                  82 to matrix element file.
 Write NUMBER OF PRIMITIVES PER SHELL      from file      0 offset           0 length                  82 to matrix element file.
 Write PRIMITIVE EXPONENTS                 from file      0 offset           0 length                 147 to matrix element file.
 Write CONTRACTION COEFFICIENTS            from file      0 offset           0 length                 147 to matrix element file.
 Write P(S=P) CONTRACTION COEFFICIENTS     from file      0 offset           0 length                 147 to matrix element file.
 Write COORDINATES OF EACH SHELL           from file      0 offset           0 length                 246 to matrix element file.
 Write BONDS PER ATOM                      from file      0 offset           0 length                  19 to matrix element file.
 Write BONDED ATOMS                        from file      0 offset           0 length                  40 to matrix element file.
 Write BOND TYPES                          from file      0 offset           0 length                  40 to matrix element file.
 Write ONIOM CHARGE/MULT                   from file      0 offset           0 length                  32 to matrix element file.
 Write ONIOM ATOM LAYERS                   from file      0 offset           0 length                  19 to matrix element file.
 Write ONIOM ATOM MODIFIERS                from file      0 offset           0 length                  19 to matrix element file.
 Write ONIOM ATOM TYPES                    from file      0 offset           0 length                  19 to matrix element file.
 Write ONIOM LINK ATOMS                    from file      0 offset           0 length                  19 to matrix element file.
 Write ONIOM LINK CHARGES                  from file      0 offset           0 length                  19 to matrix element file.
 Write ONIOM LINK DISTANCES                from file      0 offset           0 length                  76 to matrix element file.
 Write SYMINF INTS                         from file      0 offset           0 length                  26 to matrix element file.
 Write ROTTR TO SO                         from file      0 offset           0 length                  12 to matrix element file.
 Write GAUSSIAN SCALARS                    from file    501 offset           0 to matrix element file.
 Write OPTIMIZATION FLAGS                  from file      0 offset           0 length                  19 to matrix element file.
 Write INTEGER ISO                         from file      0 offset           0 length                  19 to matrix element file.
 Write INTEGER SPIN                        from file      0 offset           0 length                  19 to matrix element file.
 Write REAL ZEFFECTIVE                     from file      0 offset           0 length                  19 to matrix element file.
 Write REAL QUADRUPOLEMOMENT               from file      0 offset           0 length                  19 to matrix element file.
 Write REAL GFACTOR                        from file      0 offset           0 length                  19 to matrix element file.
 Write REAL ZNUCLEAR                       from file      0 offset           0 length                  19 to matrix element file.
 Write MULLIKEN CHARGES                    from file      0 offset           0 length                  19 to matrix element file.
 Write TYPE 6 CHARGES                      from file      0 offset           0 length                  19 to matrix element file.
 Write TYPE 7 CHARGES                      from file      0 offset           0 length                  19 to matrix element file.
 Write NUCLEAR GRADIENT                    from file  10584 offset           0 length                  57 to matrix element file.
 Array NUCLEAR FORCE CONSTANTS              on  file  10585 does not exist.
 Write ELECTRIC DIPOLE MOMENT              from file      0 offset           0 length                   3 to matrix element file.
 Write NON-ADIABATIC COUPLING              from file  10810 offset           0 length                  57 to matrix element file.
 Write FINITE EM FIELD                     from file  10521 offset           0 length                  35 to matrix element file.
 Write OVERLAP                             from file  10514 offset           0 length               11325 to matrix element file.
 Write CORE HAMILTONIAN ALPHA              from file  10515 offset           0 length               11325 to matrix element file.
 Write CORE HAMILTONIAN BETA               from file  10515 offset       11325 length               11325 to matrix element file.
 Write KINETIC ENERGY                      from file  10516 offset           0 length               11325 to matrix element file.
 Write ORTHOGONAL BASIS                    from file  10685 offset           0 length               22500 to matrix element file.
 Write DIPOLE INTEGRALS                    from file  10518 offset           0 length               33975 to matrix element file.
 Array DIP VEL INTEGRALS                    on  file  10572 does not exist.
 Array R X DEL INTEGRALS                    on  file  10572 does not exist.
 Write ALPHA ORBITAL ENERGIES              from file      0 offset           0 length                 150 to matrix element file.
 Write BETA ORBITAL ENERGIES               from file      0 offset           0 length                 150 to matrix element file.
 Write ALPHA MO COEFFICIENTS               from file  10524 offset           0 length               22500 to matrix element file.
 Write BETA MO COEFFICIENTS                from file  10526 offset           0 length               22500 to matrix element file.
 Write ALPHA DENSITY MATRIX                from file      0 offset           0 length               11325 to matrix element file.
 Write BETA DENSITY MATRIX                 from file      0 offset           0 length               11325 to matrix element file.
 Write ALPHA FOCK MATRIX                   from file  10536 offset           0 length               11325 to matrix element file.
 Write BETA FOCK MATRIX                    from file  10538 offset           0 length               11325 to matrix element file.
 Write ENERGY-WEIGHTED DENSITY             from file  10571 offset           0 length               11325 to matrix element file.
 Write ALPHA SCF DENSITY MATRIX            from file      0 offset           0 length               11325 to matrix element file.
 Write BETA SCF DENSITY MATRIX             from file      0 offset           0 length               11325 to matrix element file.
 No 2e integrals to process.
 Perform NBO analysis...

 *********************************** NBO 7.0 ***********************************
             N A T U R A L   A T O M I C   O R B I T A L   A N D
          N A T U R A L   B O N D   O R B I T A L   A N A L Y S I S
 **************************** Robert Paton (I101709) ***************************
  (c) Copyright 1996-2019 Board of Regents of the University of Wisconsin System
      on behalf of the Theoretical Chemistry Institute.  All rights reserved.

          Cite this program [NBO 7.0.5 (4-Jun-2019)] as:

          NBO 7.0.  E. D. Glendening, J. K. Badenhoop, A. E. Reed,
          J. E. Carpenter, J. A. Bohmann, C. M. Morales, P. Karafiloglou,
          C. R. Landis, and F. Weinhold, Theoretical Chemistry Institute,
          University of Wisconsin, Madison, WI (2018)

 Filename set to /home/rpaton/opt/midi/fukui/Gau-1694733

 Job title:  arbr47_wb97xd_popncreated by GaussianPrep


 NATURAL POPULATIONS:  Natural atomic orbital occupancies

  NAO Atom No lang   Type(AO)    Occupancy     Spin
 -----------------------------------------------------
   1    O  1  s      Cor( 1s)     1.99990     0.00000
   2    O  1  s      Val( 2s)     1.69922    -0.00003
   3    O  1  s      Ryd( 3s)     0.00094     0.00000
   4    O  1  px     Val( 2p)     1.57152    -0.00050
   5    O  1  px     Ryd( 3p)     0.00061     0.00000
   6    O  1  py     Val( 2p)     1.73971    -0.00022
   7    O  1  py     Ryd( 3p)     0.00132     0.00000
   8    O  1  pz     Val( 2p)     1.39558     0.00008
   9    O  1  pz     Ryd( 3p)     0.00049     0.00000
  10    O  1  dxy    Ryd( 3d)     0.00457     0.00000
  11    O  1  dxz    Ryd( 3d)     0.00268     0.00000
  12    O  1  dyz    Ryd( 3d)     0.00269     0.00000
  13    O  1  dx2y2  Ryd( 3d)     0.00356     0.00000
  14    O  1  dz2    Ryd( 3d)     0.00216     0.00000

  15    C  2  s      Cor( 1s)     1.99990     0.00000
  16    C  2  s      Val( 2s)     0.85038     0.00232
  17    C  2  s      Ryd( 3s)     0.00457     0.00000
  18    C  2  px     Val( 2p)     0.85245     0.00028
  19    C  2  px     Ryd( 3p)     0.01017     0.00004
  20    C  2  py     Val( 2p)     0.91192     0.00147
  21    C  2  py     Ryd( 3p)     0.01042     0.00000
  22    C  2  pz     Val( 2p)     0.82766     0.00045
  23    C  2  pz     Ryd( 3p)     0.00458     0.00000

  24    C  3  s      Cor( 1s)     1.99976     0.00000
  25    C  3  s      Val( 2s)     1.08659    -0.00073
  26    C  3  s      Ryd( 3s)     0.00190     0.00003
  27    C  3  px     Val( 2p)     1.05239    -0.00158
  28    C  3  px     Ryd( 3p)     0.00364     0.00004
  29    C  3  py     Val( 2p)     0.98442    -0.00240
  30    C  3  py     Ryd( 3p)     0.00344    -0.00003
  31    C  3  pz     Val( 2p)     1.13266     0.00284
  32    C  3  pz     Ryd( 3p)     0.00229     0.00005

  33    O  4  s      Cor( 1s)     1.99986     0.00000
  34    O  4  s      Val( 2s)     1.61371     0.00663
  35    O  4  s      Ryd( 3s)     0.00081     0.00002
  36    O  4  px     Val( 2p)     1.37509     0.00566
  37    O  4  px     Ryd( 3p)     0.00036     0.00001
  38    O  4  py     Val( 2p)     1.75932     0.01542
  39    O  4  py     Ryd( 3p)     0.00187     0.00000
  40    O  4  pz     Val( 2p)     1.60846     0.17510
  41    O  4  pz     Ryd( 3p)     0.00085     0.00016
  42    O  4  dxy    Ryd( 3d)     0.00314     0.00000
  43    O  4  dxz    Ryd( 3d)     0.00190    -0.00016
  44    O  4  dyz    Ryd( 3d)     0.00313     0.00003
  45    O  4  dx2y2  Ryd( 3d)     0.00259     0.00004
  46    O  4  dz2    Ryd( 3d)     0.00199    -0.00003

  47    C  5  s      Cor( 1s)     1.99986     0.00000
  48    C  5  s      Val( 2s)     0.83731     0.00553
  49    C  5  s      Ryd( 3s)     0.00125     0.00009
  50    C  5  px     Val( 2p)     0.81379    -0.00016
  51    C  5  px     Ryd( 3p)     0.00626     0.00014
  52    C  5  py     Val( 2p)     1.05235     0.00253
  53    C  5  py     Ryd( 3p)     0.00647     0.00003
  54    C  5  pz     Val( 2p)     0.87452     0.19254
  55    C  5  pz     Ryd( 3p)     0.00159    -0.00034

  56    C  6  s      Cor( 1s)     1.99985     0.00000
  57    C  6  s      Val( 2s)     0.97129     0.00056
  58    C  6  s      Ryd( 3s)     0.00097     0.00001
  59    C  6  px     Val( 2p)     1.06296     0.00100
  60    C  6  px     Ryd( 3p)     0.00615     0.00005
  61    C  6  py     Val( 2p)     1.23038     0.00178
  62    C  6  py     Ryd( 3p)     0.00481     0.00003
  63    C  6  pz     Val( 2p)     0.95553     0.04131
  64    C  6  pz     Ryd( 3p)     0.00058    -0.00005

  65    C  7  s      Cor( 1s)     1.99986     0.00000
  66    C  7  s      Val( 2s)     0.96588    -0.00049
  67    C  7  s      Ryd( 3s)     0.00110     0.00001
  68    C  7  px     Val( 2p)     1.16145     0.00150
  69    C  7  px     Ryd( 3p)     0.00703     0.00005
  70    C  7  py     Val( 2p)     1.12866    -0.00352
  71    C  7  py     Ryd( 3p)     0.00530     0.00002
  72    C  7  pz     Val( 2p)     0.93766     0.03182
  73    C  7  pz     Ryd( 3p)     0.00059    -0.00003

  74    C  8  s      Cor( 1s)     1.99989     0.00000
  75    C  8  s      Val( 2s)     0.95952     0.00970
  76    C  8  s      Ryd( 3s)     0.00047    -0.00003
  77    C  8  px     Val( 2p)     1.04025     0.00807
  78    C  8  px     Ryd( 3p)     0.00681    -0.00014
  79    C  8  py     Val( 2p)     1.09980     0.00620
  80    C  8  py     Ryd( 3p)     0.00855    -0.00009
  81    C  8  pz     Val( 2p)     0.93395     0.21886
  82    C  8  pz     Ryd( 3p)     0.00126    -0.00027

  83   Br  9  s      Cor( 3s)     2.00000     0.00000
  84   Br  9  s      Cor( 1s)     2.00000     0.00000
  85   Br  9  s      Cor( 2s)     1.99999     0.00000
  86   Br  9  s      Val( 4s)     1.87965     0.00163
  87   Br  9  s      Ryd( 5s)     0.00301     0.00011
  88   Br  9  px     Cor( 3p)     2.00000     0.00000
  89   Br  9  px     Cor( 2p)     1.99999     0.00000
  90   Br  9  px     Val( 4p)     1.14918    -0.00557
  91   Br  9  px     Ryd( 5p)     0.00329     0.00011
  92   Br  9  py     Cor( 3p)     2.00000     0.00000
  93   Br  9  py     Cor( 2p)     1.99999     0.00000
  94   Br  9  py     Val( 4p)     1.88472     0.00258
  95   Br  9  py     Ryd( 5p)     0.00171    -0.00002
  96   Br  9  pz     Cor( 3p)     2.00000     0.00000
  97   Br  9  pz     Cor( 2p)     2.00000     0.00000
  98   Br  9  pz     Val( 4p)     1.74219     0.20030
  99   Br  9  pz     Ryd( 5p)     0.00067     0.00013
 100   Br  9  dxy    Cor( 3d)     1.99960     0.00000
 101   Br  9  dxy    Ryd( 4d)     0.00242    -0.00007
 102   Br  9  dxz    Cor( 3d)     1.99986     0.00001
 103   Br  9  dxz    Ryd( 4d)     0.00256    -0.00062
 104   Br  9  dyz    Cor( 3d)     1.99998     0.00000
 105   Br  9  dyz    Ryd( 4d)     0.00033    -0.00008
 106   Br  9  dx2y2  Cor( 3d)     1.99952     0.00000
 107   Br  9  dx2y2  Ryd( 4d)     0.00370    -0.00010
 108   Br  9  dz2    Cor( 3d)     1.99980     0.00000
 109   Br  9  dz2    Ryd( 4d)     0.00166     0.00005

 110    C 10  s      Cor( 1s)     1.99985     0.00000
 111    C 10  s      Val( 2s)     0.94990    -0.00248
 112    C 10  s      Ryd( 3s)     0.00132     0.00001
 113    C 10  px     Val( 2p)     1.05667    -0.00498
 114    C 10  px     Ryd( 3p)     0.00595     0.00004
 115    C 10  py     Val( 2p)     1.23248    -0.00190
 116    C 10  py     Ryd( 3p)     0.00695     0.00005
 117    C 10  pz     Val( 2p)     0.95923    -0.01047
 118    C 10  pz     Ryd( 3p)     0.00058    -0.00004

 119    C 11  s      Cor( 1s)     1.99989     0.00000
 120    C 11  s      Val( 2s)     0.87316     0.00218
 121    C 11  s      Ryd( 3s)     0.00134     0.00001
 122    C 11  px     Val( 2p)     1.10662     0.00311
 123    C 11  px     Ryd( 3p)     0.00513     0.00006
 124    C 11  py     Val( 2p)     1.08351     0.00399
 125    C 11  py     Ryd( 3p)     0.00364     0.00002
 126    C 11  pz     Val( 2p)     0.94933     0.07703
 127    C 11  pz     Ryd( 3p)     0.00111     0.00002

 128    C 12  s      Cor( 1s)     1.99975     0.00000
 129    C 12  s      Val( 2s)     1.05972    -0.00057
 130    C 12  s      Ryd( 3s)     0.00152     0.00002
 131    C 12  px     Val( 2p)     1.06665    -0.00166
 132    C 12  px     Ryd( 3p)     0.00293     0.00001
 133    C 12  py     Val( 2p)     1.23540     0.00003
 134    C 12  py     Ryd( 3p)     0.00504     0.00012
 135    C 12  pz     Val( 2p)     1.24618     0.00061
 136    C 12  pz     Ryd( 3p)     0.00069     0.00004

 137    H 13  s      Val( 1s)     0.69473    -0.00070
 138    H 13  s      Ryd( 2s)     0.00108    -0.00001

 139    H 14  s      Val( 1s)     0.70943     0.01010
 140    H 14  s      Ryd( 2s)     0.00132     0.00009

 141    H 15  s      Val( 1s)     0.69120    -0.00176
 142    H 15  s      Ryd( 2s)     0.00129    -0.00002

 143    H 16  s      Val( 1s)     0.69334    -0.00105
 144    H 16  s      Ryd( 2s)     0.00107    -0.00001

 145    H 17  s      Val( 1s)     0.69701     0.00042
 146    H 17  s      Ryd( 2s)     0.00108    -0.00002

 147    H 18  s      Val( 1s)     0.68233     0.00185
 148    H 18  s      Ryd( 2s)     0.00238     0.00001

 149    H 19  s      Val( 1s)     0.67314     0.00554
 150    H 19  s      Ryd( 2s)     0.00115     0.00012


 Summary of Natural Population Analysis:

                                     Natural Population                 Natural
             Natural    ---------------------------------------------    Spin
  Atom No    Charge        Core      Valence    Rydberg      Total      Density
 -------------------------------------------------------------------------------
    O  1   -0.42496      1.99990     6.40605    0.01901     8.42496    -0.00068
    C  2    0.52795      1.99990     3.44241    0.02974     5.47205     0.00456
    C  3   -0.26710      1.99976     4.25606    0.01127     6.26710    -0.00179
    O  4   -0.37307      1.99986     6.35658    0.01664     8.37307     0.20287
    C  5    0.40661      1.99986     3.57797    0.01556     5.59339     0.20036
    C  6   -0.23251      1.99985     4.22015    0.01251     6.23251     0.04469
    C  7   -0.20752      1.99986     4.19365    0.01401     6.20752     0.02937
    C  8   -0.05049      1.99989     4.03352    0.01708     6.05049     0.24230
   Br  9    0.32616     27.99874     6.65575    0.01935    34.67384     0.19846
    C 10   -0.21294      1.99985     4.19829    0.01480     6.21294    -0.01976
    C 11   -0.02372      1.99989     4.01262    0.01121     6.02372     0.08641
    C 12   -0.61787      1.99975     4.60795    0.01017     6.61787    -0.00138
    H 13    0.30419      0.00000     0.69473    0.00108     0.69581    -0.00071
    H 14    0.28925      0.00000     0.70943    0.00132     0.71075     0.01019
    H 15    0.30751      0.00000     0.69120    0.00129     0.69249    -0.00178
    H 16    0.30559      0.00000     0.69334    0.00107     0.69441    -0.00106
    H 17    0.30191      0.00000     0.69701    0.00108     0.69809     0.00041
    H 18    0.31530      0.00000     0.68233    0.00238     0.68470     0.00187
    H 19    0.32571      0.00000     0.67314    0.00115     0.67429     0.00566
 ===============================================================================
 * Total *  1.00000     49.99711    60.80216    0.20072   111.00000     1.00000

                                 Natural Population
 ---------------------------------------------------------
   Core                      49.99711 ( 99.9942% of   50)
   Valence                   60.80216 ( 99.6757% of   61)
   Natural Minimal Basis    110.79928 ( 99.8192% of  111)
   Natural Rydberg Basis      0.20072 (  0.1808% of  111)
 ---------------------------------------------------------

    Atom No         Natural Electron Configuration
 ----------------------------------------------------------------------------
      O  1      [core]2s( 1.70)2p( 4.71)3d( 0.02)
      C  2      [core]2s( 0.85)2p( 2.59)3p( 0.03)
      C  3      [core]2s( 1.09)2p( 3.17)3p( 0.01)
      O  4      [core]2s( 1.61)2p( 4.74)3d( 0.01)
      C  5      [core]2s( 0.84)2p( 2.74)3p( 0.01)
      C  6      [core]2s( 0.97)2p( 3.25)3p( 0.01)
      C  7      [core]2s( 0.97)2p( 3.23)3p( 0.01)
      C  8      [core]2s( 0.96)2p( 3.07)3p( 0.02)
     Br  9      [core]4s( 1.88)4p( 4.78)4d( 0.01)5p( 0.01)
      C 10      [core]2s( 0.95)2p( 3.25)3p( 0.01)
      C 11      [core]2s( 0.87)2p( 3.14)3p( 0.01)
      C 12      [core]2s( 1.06)2p( 3.55)3p( 0.01)
      H 13            1s( 0.69)
      H 14            1s( 0.71)
      H 15            1s( 0.69)
      H 16            1s( 0.69)
      H 17            1s( 0.70)
      H 18            1s( 0.68)
      H 19            1s( 0.67)


 ***************************************************
 *******         Alpha spin orbitals         *******
 ***************************************************


 NATURAL POPULATIONS:  Natural atomic orbital occupancies

  NAO Atom No lang   Type(AO)    Occupancy      Energy
 -------------------------------------------------------
   1    O  1  s      Cor( 1s)     0.99995     -19.29667
   2    O  1  s      Val( 2s)     0.84959      -0.89646
   3    O  1  s      Ryd( 3s)     0.00047       1.47728
   4    O  1  px     Val( 2p)     0.78551      -0.45799
   5    O  1  px     Ryd( 3p)     0.00031       1.66706
   6    O  1  py     Val( 2p)     0.86974      -0.47688
   7    O  1  py     Ryd( 3p)     0.00066       1.69931
   8    O  1  pz     Val( 2p)     0.69783      -0.42451
   9    O  1  pz     Ryd( 3p)     0.00024       1.59216
  10    O  1  dxy    Ryd( 3d)     0.00228       2.16364
  11    O  1  dxz    Ryd( 3d)     0.00134       1.94197
  12    O  1  dyz    Ryd( 3d)     0.00134       1.88436
  13    O  1  dx2y2  Ryd( 3d)     0.00178       1.88961
  14    O  1  dz2    Ryd( 3d)     0.00108       1.84423

  15    C  2  s      Cor( 1s)     0.99995     -10.48585
  16    C  2  s      Val( 2s)     0.42635      -0.28157
  17    C  2  s      Ryd( 3s)     0.00228       0.61432
  18    C  2  px     Val( 2p)     0.42636      -0.17728
  19    C  2  px     Ryd( 3p)     0.00510       0.91181
  20    C  2  py     Val( 2p)     0.45670      -0.16935
  21    C  2  py     Ryd( 3p)     0.00521       0.96852
  22    C  2  pz     Val( 2p)     0.41406      -0.23962
  23    C  2  pz     Ryd( 3p)     0.00229       0.83563

  24    C  3  s      Cor( 1s)     0.99988     -10.45959
  25    C  3  s      Val( 2s)     0.54293      -0.40136
  26    C  3  s      Ryd( 3s)     0.00096       0.94357
  27    C  3  px     Val( 2p)     0.52541      -0.27630
  28    C  3  px     Ryd( 3p)     0.00184       0.91084
  29    C  3  py     Val( 2p)     0.49101      -0.25186
  30    C  3  py     Ryd( 3p)     0.00171       0.75950
  31    C  3  pz     Val( 2p)     0.56775      -0.28616
  32    C  3  pz     Ryd( 3p)     0.00117       0.84331

  33    O  4  s      Cor( 1s)     0.99993     -19.41348
  34    O  4  s      Val( 2s)     0.81017      -0.99469
  35    O  4  s      Ryd( 3s)     0.00042       1.66009
  36    O  4  px     Val( 2p)     0.69038      -0.52045
  37    O  4  px     Ryd( 3p)     0.00019       1.91648
  38    O  4  py     Val( 2p)     0.88737      -0.58563
  39    O  4  py     Ryd( 3p)     0.00094       1.64661
  40    O  4  pz     Val( 2p)     0.89178      -0.59176
  41    O  4  pz     Ryd( 3p)     0.00050       1.55875
  42    O  4  dxy    Ryd( 3d)     0.00157       2.01877
  43    O  4  dxz    Ryd( 3d)     0.00087       1.81576
  44    O  4  dyz    Ryd( 3d)     0.00158       1.76059
  45    O  4  dx2y2  Ryd( 3d)     0.00131       1.92554
  46    O  4  dz2    Ryd( 3d)     0.00098       1.80330

  47    C  5  s      Cor( 1s)     0.99993     -10.52820
  48    C  5  s      Val( 2s)     0.42142      -0.28505
  49    C  5  s      Ryd( 3s)     0.00067       0.61721
  50    C  5  px     Val( 2p)     0.40682      -0.20924
  51    C  5  px     Ryd( 3p)     0.00320       1.13818
  52    C  5  py     Val( 2p)     0.52744      -0.23925
  53    C  5  py     Ryd( 3p)     0.00325       1.06380
  54    C  5  pz     Val( 2p)     0.53353      -0.36539
  55    C  5  pz     Ryd( 3p)     0.00062       0.76864

  56    C  6  s      Cor( 1s)     0.99993     -10.44732
  57    C  6  s      Val( 2s)     0.48592      -0.29421
  58    C  6  s      Ryd( 3s)     0.00049       0.54572
  59    C  6  px     Val( 2p)     0.53198      -0.22204
  60    C  6  px     Ryd( 3p)     0.00310       0.87175
  61    C  6  py     Val( 2p)     0.61608      -0.28189
  62    C  6  py     Ryd( 3p)     0.00242       1.17665
  63    C  6  pz     Val( 2p)     0.49842      -0.31924
  64    C  6  pz     Ryd( 3p)     0.00027       0.74995

  65    C  7  s      Cor( 1s)     0.99993     -10.45186
  66    C  7  s      Val( 2s)     0.48270      -0.29416
  67    C  7  s      Ryd( 3s)     0.00055       0.55044
  68    C  7  px     Val( 2p)     0.58147      -0.25444
  69    C  7  px     Ryd( 3p)     0.00354       1.00685
  70    C  7  py     Val( 2p)     0.56257      -0.25224
  71    C  7  py     Ryd( 3p)     0.00266       0.98266
  72    C  7  pz     Val( 2p)     0.48474      -0.31737
  73    C  7  pz     Ryd( 3p)     0.00028       0.75035

  74    C  8  s      Cor( 1s)     0.99994     -10.51480
  75    C  8  s      Val( 2s)     0.48461      -0.37345
  76    C  8  s      Ryd( 3s)     0.00022       0.52440
  77    C  8  px     Val( 2p)     0.52416      -0.33839
  78    C  8  px     Ryd( 3p)     0.00334       1.12815
  79    C  8  py     Val( 2p)     0.55300      -0.27843
  80    C  8  py     Ryd( 3p)     0.00423       0.92614
  81    C  8  pz     Val( 2p)     0.57640      -0.38792
  82    C  8  pz     Ryd( 3p)     0.00050       0.74345

  83   Br  9  s      Cor( 3s)     1.00000     -21.41874
  84   Br  9  s      Cor( 1s)     1.00000    -450.55579
  85   Br  9  s      Cor( 2s)     1.00000     -80.24787
  86   Br  9  s      Val( 4s)     0.94064      -0.96664
  87   Br  9  s      Ryd( 5s)     0.00156       0.68212
  88   Br  9  px     Cor( 3p)     1.00000      -7.39152
  89   Br  9  px     Cor( 2p)     0.99999     -55.85249
  90   Br  9  px     Val( 4p)     0.57181      -0.42137
  91   Br  9  px     Ryd( 5p)     0.00170       0.56396
  92   Br  9  py     Cor( 3p)     1.00000      -7.37845
  93   Br  9  py     Cor( 2p)     1.00000     -55.84923
  94   Br  9  py     Val( 4p)     0.94365      -0.53288
  95   Br  9  py     Ryd( 5p)     0.00085       0.58828
  96   Br  9  pz     Cor( 3p)     1.00000      -7.38191
  97   Br  9  pz     Cor( 2p)     1.00000     -55.85040
  98   Br  9  pz     Val( 4p)     0.97125      -0.55164
  99   Br  9  pz     Ryd( 5p)     0.00040       0.55169
 100   Br  9  dxy    Cor( 3d)     0.99980      -2.97114
 101   Br  9  dxy    Ryd( 4d)     0.00118       0.75499
 102   Br  9  dxz    Cor( 3d)     0.99994      -2.97354
 103   Br  9  dxz    Ryd( 4d)     0.00097       0.53020
 104   Br  9  dyz    Cor( 3d)     0.99999      -2.96328
 105   Br  9  dyz    Ryd( 4d)     0.00013       0.46622
 106   Br  9  dx2y2  Cor( 3d)     0.99976      -2.97121
 107   Br  9  dx2y2  Ryd( 4d)     0.00180       0.77546
 108   Br  9  dz2    Cor( 3d)     0.99990      -2.96758
 109   Br  9  dz2    Ryd( 4d)     0.00085       0.56415

 110    C 10  s      Cor( 1s)     0.99992     -10.44900
 111    C 10  s      Val( 2s)     0.47371      -0.27608
 112    C 10  s      Ryd( 3s)     0.00067       0.54225
 113    C 10  px     Val( 2p)     0.52584      -0.21958
 114    C 10  px     Ryd( 3p)     0.00300       0.83458
 115    C 10  py     Val( 2p)     0.61529      -0.28481
 116    C 10  py     Ryd( 3p)     0.00350       1.16592
 117    C 10  pz     Val( 2p)     0.47438      -0.31007
 118    C 10  pz     Ryd( 3p)     0.00027       0.75099

 119    C 11  s      Cor( 1s)     0.99995     -10.46601
 120    C 11  s      Val( 2s)     0.43767      -0.26183
 121    C 11  s      Ryd( 3s)     0.00068       0.54565
 122    C 11  px     Val( 2p)     0.55486      -0.25005
 123    C 11  px     Ryd( 3p)     0.00259       1.23834
 124    C 11  py     Val( 2p)     0.54375      -0.25148
 125    C 11  py     Ryd( 3p)     0.00183       1.17617
 126    C 11  pz     Val( 2p)     0.51318      -0.32839
 127    C 11  pz     Ryd( 3p)     0.00056       0.83611

 128    C 12  s      Cor( 1s)     0.99988     -10.41344
 129    C 12  s      Val( 2s)     0.52958      -0.35026
 130    C 12  s      Ryd( 3s)     0.00077       1.01457
 131    C 12  px     Val( 2p)     0.53250      -0.25640
 132    C 12  px     Ryd( 3p)     0.00147       0.81619
 133    C 12  py     Val( 2p)     0.61772      -0.28954
 134    C 12  py     Ryd( 3p)     0.00258       0.91855
 135    C 12  pz     Val( 2p)     0.62339      -0.30152
 136    C 12  pz     Ryd( 3p)     0.00036       0.85847

 137    H 13  s      Val( 1s)     0.34701      -0.01106
 138    H 13  s      Ryd( 2s)     0.00054       0.45303

 139    H 14  s      Val( 1s)     0.35976      -0.04273
 140    H 14  s      Ryd( 2s)     0.00071       0.46172

 141    H 15  s      Val( 1s)     0.34472      -0.00485
 142    H 15  s      Ryd( 2s)     0.00063       0.45395

 143    H 16  s      Val( 1s)     0.34615      -0.00690
 144    H 16  s      Ryd( 2s)     0.00053       0.44884

 145    H 17  s      Val( 1s)     0.34872      -0.01583
 146    H 17  s      Ryd( 2s)     0.00053       0.46374

 147    H 18  s      Val( 1s)     0.34209      -0.00567
 148    H 18  s      Ryd( 2s)     0.00120       0.48826

 149    H 19  s      Val( 1s)     0.33934      -0.02808
 150    H 19  s      Ryd( 2s)     0.00063       0.47290


 Summary of Natural Population Analysis:

                                     Natural Population
             Natural    ---------------------------------------------
  Atom No    Charge        Core      Valence    Rydberg      Total
 --------------------------------------------------------------------
    O  1   -0.21214      0.99995     3.20268    0.00951     4.21214
    C  2    0.26169      0.99995     1.72347    0.01489     2.73831
    C  3   -0.13266      0.99988     2.12709    0.00568     3.13266
    O  4   -0.28797      0.99993     3.27969    0.00835     4.28797
    C  5    0.10312      0.99993     1.88921    0.00774     2.89688
    C  6   -0.13860      0.99993     2.13240    0.00628     3.13860
    C  7   -0.11845      0.99993     2.11149    0.00703     3.11845
    C  8   -0.14640      0.99994     2.13817    0.00828     3.14640
   Br  9    0.06385     13.99938     3.42734    0.00943    17.43615
    C 10   -0.09659      0.99992     2.08923    0.00743     3.09659
    C 11   -0.05507      0.99995     2.04946    0.00566     3.05507
    C 12   -0.30825      0.99988     2.30318    0.00518     3.30825
    H 13    0.15245      0.00000     0.34701    0.00054     0.34755
    H 14    0.13953      0.00000     0.35976    0.00071     0.36047
    H 15    0.15465      0.00000     0.34472    0.00063     0.34535
    H 16    0.15333      0.00000     0.34615    0.00053     0.34667
    H 17    0.15075      0.00000     0.34872    0.00053     0.34925
    H 18    0.15671      0.00000     0.34209    0.00120     0.34329
    H 19    0.16003      0.00000     0.33934    0.00063     0.33997
 ====================================================================
 * Total *  0.00000     24.99856    30.90121    0.10023    56.00000

                                 Natural Population
 ---------------------------------------------------------
   Core                      24.99856 ( 99.9942% of   25)
   Valence                   30.90121 ( 99.6813% of   31)
   Natural Minimal Basis     55.89977 ( 99.8210% of   56)
   Natural Rydberg Basis      0.10023 (  0.1790% of   56)
 ---------------------------------------------------------

    Atom No         Natural Electron Configuration
 ----------------------------------------------------------------------------
      O  1      [core]2s( 0.85)2p( 2.35)3d( 0.01)
      C  2      [core]2s( 0.43)2p( 1.30)3p( 0.01)
      C  3      [core]2s( 0.54)2p( 1.58)
      O  4      [core]2s( 0.81)2p( 2.47)3d( 0.01)
      C  5      [core]2s( 0.42)2p( 1.47)3p( 0.01)
      C  6      [core]2s( 0.49)2p( 1.65)3p( 0.01)
      C  7      [core]2s( 0.48)2p( 1.63)3p( 0.01)
      C  8      [core]2s( 0.48)2p( 1.65)3p( 0.01)
     Br  9      [core]4s( 0.94)4p( 2.49)
      C 10      [core]2s( 0.47)2p( 1.62)3p( 0.01)
      C 11      [core]2s( 0.44)2p( 1.61)
      C 12      [core]2s( 0.53)2p( 1.77)
      H 13            1s( 0.35)
      H 14            1s( 0.36)
      H 15            1s( 0.34)
      H 16            1s( 0.35)
      H 17            1s( 0.35)
      H 18            1s( 0.34)
      H 19            1s( 0.34)


 NATURAL BOND ORBITAL ANALYSIS, alpha spin orbitals:

                            Occupancies       Lewis Structure    Low   High
         Max    Occ     -------------------  -----------------   occ   occ
  Cycle  Ctr   Thresh    Lewis   non-Lewis     CR  BD  nC  LP    (L)   (NL)
 ============================================================================
    1     2     0.95    54.16219   1.83781     25  22   0   9     4      3
[...]
   46. BD ( 1) C  7- H 16     111. RY ( 1) C  6            0.46    1.80   0.036
   46. BD ( 1) C  7- H 16     112. RY ( 2) C  6            0.37    1.78   0.032
   46. BD ( 1) C  7- H 16     120. RY ( 2) C  8            0.79    1.93   0.049
   47. BD ( 1) C  8-Br  9      67. BD*( 1) C  6- C  7      1.17    1.30   0.049
   47. BD ( 1) C  8-Br  9      75. BD*( 1) C 10- C 11      1.23    1.31   0.051
   47. BD ( 1) C  8-Br  9     115. RY ( 1) C  7            1.31    1.98   0.064
   47. BD ( 1) C  8-Br  9     132. RY ( 1) C 10            1.33    1.99   0.065
   48. BD ( 2) C  8-Br  9      68. BD*( 2) C  6- C  7      5.26    0.46   0.062
   48. BD ( 2) C  8-Br  9      76. BD*( 2) C 10- C 11      4.94    0.46   0.060
   48. BD ( 2) C  8-Br  9     118. RY ( 4) C  7            0.27    1.30   0.024
   48. BD ( 2) C  8-Br  9     135. RY ( 4) C 10            0.26    1.30   0.023
   49. BD ( 1) C  8- C 10      70. BD*( 1) C  7- C  8      1.53    1.38   0.058
   49. BD ( 1) C  8- C 10      71. BD*( 1) C  7- H 16      0.77    1.34   0.040
   49. BD ( 1) C  8- C 10      75. BD*( 1) C 10- C 11      1.21    1.41   0.052
   49. BD ( 1) C  8- C 10      77. BD*( 1) C 10- H 17      0.97    1.33   0.045
   49. BD ( 1) C  8- C 10      78. BD*( 1) C 11- C 12      1.11    1.25   0.047
   49. BD ( 1) C  8- C 10     115. RY ( 1) C  7            0.73    2.08   0.049
   49. BD ( 1) C  8- C 10     116. RY ( 2) C  7            0.44    1.77   0.035
   49. BD ( 1) C  8- C 10     137. RY ( 2) C 11            1.55    2.09   0.072
   50. BD ( 1) C 10- C 11      63. BD*( 1) O  4- C  5      1.74    1.12   0.056
   50. BD ( 1) C 10- C 11      66. BD*( 1) C  5- C 11      1.63    1.35   0.059
   50. BD ( 1) C 10- C 11      72. BD*( 1) C  8-Br  9      1.62    0.89   0.048
   50. BD ( 1) C 10- C 11      74. BD*( 1) C  8- C 10      1.33    1.36   0.054
   50. BD ( 1) C 10- C 11      77. BD*( 1) C 10- H 17      0.95    1.30   0.044
   50. BD ( 1) C 10- C 11      78. BD*( 1) C 11- C 12      1.53    1.22   0.055
   50. BD ( 1) C 10- C 11     108. RY ( 2) C  5            1.03    2.02   0.058
   50. BD ( 1) C 10- C 11     119. RY ( 1) C  8            0.97    1.80   0.053
   50. BD ( 1) C 10- C 11     120. RY ( 2) C  8            0.41    2.07   0.037
   50. BD ( 1) C 10- C 11     140. RY ( 1) C 12            0.53    1.86   0.040
   51. BD ( 2) C 10- C 11      59. BD*( 1) C  2- C 12      0.91    0.81   0.034
   51. BD ( 2) C 10- C 11      64. BD*( 2) O  4- C  5     20.94    0.32   0.103
   51. BD ( 2) C 10- C 11      73. BD*( 2) C  8-Br  9     32.64    0.28   0.121
   51. BD ( 2) C 10- C 11      80. BD*( 1) C 12- H 19      1.46    0.88   0.045
   51. BD ( 2) C 10- C 11     121. RY ( 3) C  8            0.42    1.27   0.029
   52. BD ( 1) C 10- H 17      66. BD*( 1) C  5- C 11      1.67    1.21   0.057
   52. BD ( 1) C 10- H 17      70. BD*( 1) C  7- C  8      1.37    1.22   0.052
   52. BD ( 1) C 10- H 17      72. BD*( 1) C  8-Br  9      0.46    0.75   0.023
   52. BD ( 1) C 10- H 17      74. BD*( 1) C  8- C 10      0.47    1.22   0.030
   52. BD ( 1) C 10- H 17      75. BD*( 1) C 10- C 11      0.72    1.25   0.038
   52. BD ( 1) C 10- H 17      78. BD*( 1) C 11- C 12      0.32    1.08   0.023
   52. BD ( 1) C 10- H 17     120. RY ( 2) C  8            0.83    1.93   0.051
   52. BD ( 1) C 10- H 17     136. RY ( 1) C 11            0.71    1.97   0.047
   53. BD ( 1) C 11- C 12      56. BD*( 1) O  1- C  2      0.94    1.36   0.045
   53. BD ( 1) C 11- C 12      57. BD*( 2) O  1- C  2      0.89    0.76   0.033
   53. BD ( 1) C 11- C 12      59. BD*( 1) C  2- C 12      0.27    1.12   0.022
   53. BD ( 1) C 11- C 12      63. BD*( 1) O  4- C  5      0.73    1.04   0.035
   53. BD ( 1) C 11- C 12      65. BD*( 1) C  5- C  6      1.15    1.29   0.049
   53. BD ( 1) C 11- C 12      66. BD*( 1) C  5- C 11      0.93    1.28   0.043
   53. BD ( 1) C 11- C 12      74. BD*( 1) C  8- C 10      0.88    1.28   0.042
   53. BD ( 1) C 11- C 12      75. BD*( 1) C 10- C 11      1.51    1.31   0.056
   53. BD ( 1) C 11- C 12      79. BD*( 1) C 12- H 18      0.37    1.22   0.027
   53. BD ( 1) C 11- C 12      80. BD*( 1) C 12- H 19      0.36    1.19   0.026
   53. BD ( 1) C 11- C 12      92. RY ( 3) C  2            0.37    1.62   0.031
   53. BD ( 1) C 11- C 12     107. RY ( 1) C  5            0.72    1.88   0.047
   53. BD ( 1) C 11- C 12     108. RY ( 2) C  5            0.36    1.94   0.033
   53. BD ( 1) C 11- C 12     132. RY ( 1) C 10            1.01    2.00   0.057
   54. BD ( 1) C 12- H 18      56. BD*( 1) O  1- C  2      0.47    1.25   0.031
   54. BD ( 1) C 12- H 18      57. BD*( 2) O  1- C  2      0.56    0.66   0.024
   54. BD ( 1) C 12- H 18      58. BD*( 1) C  2- C  3      1.35    1.00   0.046
   54. BD ( 1) C 12- H 18      59. BD*( 1) C  2- C 12      0.38    1.02   0.025
   54. BD ( 1) C 12- H 18      66. BD*( 1) C  5- C 11      1.34    1.17   0.050
   54. BD ( 1) C 12- H 18      76. BD*( 2) C 10- C 11      0.45    0.63   0.021
   54. BD ( 1) C 12- H 18      78. BD*( 1) C 11- C 12      0.33    1.05   0.023
   54. BD ( 1) C 12- H 18      80. BD*( 1) C 12- H 19      0.33    1.08   0.024
   54. BD ( 1) C 12- H 18      90. RY ( 1) C  2            0.36    1.50   0.029
   55. BD ( 1) C 12- H 19      56. BD*( 1) O  1- C  2      0.34    1.25   0.026
   55. BD ( 1) C 12- H 19      57. BD*( 2) O  1- C  2      4.30    0.65   0.067
   55. BD ( 1) C 12- H 19      75. BD*( 1) C 10- C 11      0.27    1.20   0.023
   55. BD ( 1) C 12- H 19      76. BD*( 2) C 10- C 11      4.39    0.62   0.066
   55. BD ( 1) C 12- H 19      79. BD*( 1) C 12- H 18      0.28    1.11   0.022
   55. BD ( 1) C 12- H 19      92. RY ( 3) C  2            0.27    1.51   0.026
   55. BD ( 1) C 12- H 19     138. RY ( 3) C 11            0.27    1.47   0.025


 NATURAL BOND ORBITALS (Summary):

                                                     Principal Delocalizations
           NBO                 Occupancy    Energy   (geminal,vicinal,remote)
 ===============================================================================
 Molecular unit  1  (C9H7O2Br)
 ------ Lewis --------------------------------------
    1. CR ( 1) O  1             0.99995   -19.29668  82(g)
    2. CR ( 1) C  2             0.99995   -10.48569
    3. CR ( 1) C  3             0.99988   -10.45953
    4. CR ( 1) O  4             0.99993   -19.40868  100(g)
    5. CR ( 1) C  5             0.99993   -10.52531
    6. CR ( 1) C  6             0.99993   -10.44678
    7. CR ( 1) C  7             0.99993   -10.45152
    8. CR ( 1) C  8             0.99995   -10.51116
    9. CR ( 1)Br  9             1.00000   -21.41789
   10. CR ( 2)Br  9             1.00000  -450.55513
   11. CR ( 3)Br  9             1.00000   -80.24761
   12. CR ( 4)Br  9             1.00000    -7.39125
   13. CR ( 5)Br  9             0.99999   -55.85225
   14. CR ( 6)Br  9             1.00000    -7.37810
   15. CR ( 7)Br  9             1.00000   -55.84893
   16. CR ( 8)Br  9             1.00000    -7.37980
   17. CR ( 9)Br  9             1.00000   -55.84893
   18. CR (10)Br  9             0.99980    -2.97100
   19. CR (11)Br  9             0.99993    -2.97260
   20. CR (12)Br  9             0.99999    -2.96233
   21. CR (13)Br  9             0.99976    -2.97107  124(g)
   22. CR (14)Br  9             0.99990    -2.96636
   23. CR ( 1) C 10             0.99992   -10.44935
   24. CR ( 1) C 11             0.99995   -10.46487
   25. CR ( 1) C 12             0.99988   -10.41349
   26. LP ( 1) O  1             0.98976    -0.79024  90(v),59(v),58(v)
   27. LP ( 2) O  1             0.93254    -0.47754  58(v),59(v),60(r)
   28. LP ( 1) O  4             0.98284    -0.76473  66(v),58(v),107(v),94(v)
                                                     61(v),65(v),56(r)
   29. LP ( 1)Br  9             0.99862    -0.94476  120(v)
   30. LP ( 2)Br  9             0.98967    -0.54289  70(v),74(v),119(v)
   31. BD ( 1) O  1- C  2       0.99783    -1.16812  60(v),59(g)
   32. BD ( 2) O  1- C  2       0.99504    -0.61487  80(v),62(v),78(v),61(v)
   33. BD ( 1) C  2- C  3       0.99353    -0.83976  81(v),64(v),79(v),140(v)
                                                     61(g)
   34. BD ( 1) C  2- C 12       0.99042    -0.82475  76(v),75(v),81(v),94(v)
                                                     60(v),79(g),78(g),80(g)
                                                     138(v)
   35. BD ( 1) C  3- O  4       0.99249    -1.01215  64(g),65(v),56(v),107(v)
   36. BD ( 1) C  3- H 13       0.98717    -0.74747  57(v),63(v),59(v),99(v)
                                                     58(g)
   37. BD ( 1) C  3- H 14       0.98035    -0.75256  57(v),64(v),59(v),92(v)
                                                     61(g)
   38. BD ( 1) O  4- C  5       0.99542    -1.06991  75(v),95(v),67(v),64(g)
                                                     61(v)
   39. BD ( 2) O  4- C  5       0.94568    -0.62428  76(v),68(v),62(v),60(g)
                                                     58(v),61(v)
   40. BD ( 1) C  5- C  6       0.98930    -0.92543  66(g),136(v),116(v),67(g)
                                                     78(v),69(g),71(v),60(v)
                                                     98(v),64(g),115(v)
   41. BD ( 1) C  5- C 11       0.98780    -0.92652  65(g),75(g),111(v),78(g)
                                                     133(v),77(v),69(v),140(v)
                                                     98(v),141(v),79(v),132(v)
   42. BD ( 1) C  6- C  7       0.98600    -0.90061  63(v),72(v),70(g),107(v)
                                                     65(g),69(g),119(v),71(g)
                                                     120(v),108(v)
   43. BD ( 2) C  6- C  7       0.86421    -0.51705  73(v),64(v),121(v)
   44. BD ( 1) C  6- H 15       0.98931    -0.76200  66(v),70(v),63(v),115(v)
                                                     67(g),65(g),108(v),107(v)
   45. BD ( 1) C  7- C  8       0.99134    -0.92926  74(g),112(v),67(g),71(g)
                                                     77(v),69(v),132(v),133(v)
   46. BD ( 1) C  7- H 16       0.99001    -0.76386  65(v),74(v),120(v),67(g)
                                                     72(v),111(v),70(g),112(v)
   47. BD ( 1) C  8-Br  9       0.99334    -0.82385  132(v),115(v),75(v),67(v)
   48. BD ( 2) C  8-Br  9       0.94830    -0.55809  68(v),76(v),118(v),135(v)
   49. BD ( 1) C  8- C 10       0.99089    -0.92750  137(v),70(g),75(g),78(v)
                                                     77(g),71(v),115(v),116(v)
   50. BD ( 1) C 10- C 11       0.98374    -0.90319  63(v),66(g),72(v),78(g)
                                                     74(g),108(v),119(v),77(g)
                                                     140(v),120(v)
   51. BD ( 2) C 10- C 11       0.85796    -0.51918  73(v),64(v),80(v),59(v)
                                                     121(v)
   52. BD ( 1) C 10- H 17       0.98953    -0.76347  66(v),70(v),120(v),75(g)
                                                     136(v),74(g),72(v),78(v)
   53. BD ( 1) C 11- C 12       0.98486    -0.82910  75(g),65(v),132(v),56(v)
                                                     66(g),57(v),74(v),63(v)
                                                     107(v),92(v),79(g),80(g)
                                                     108(v),59(g)
   54. BD ( 1) C 12- H 18       0.98729    -0.72639  58(v),66(v),57(v),56(v)
                                                     76(v),59(g),90(v),78(g)
                                                     80(g)
   55. BD ( 1) C 12- H 19       0.96844    -0.72223  76(v),57(v),56(v),79(g)
                                                     92(v),138(v),75(v)
 ------ non-Lewis ----------------------------------
   56. BD*( 1) O  1- C  2       0.00470     0.52819
   57. BD*( 2) O  1- C  2       0.03367    -0.07046
   58. BD*( 1) C  2- C  3       0.03840     0.27196
   59. BD*( 1) C  2- C 12       0.03379     0.29265
   60. BD*( 1) C  3- O  4       0.01138     0.15490
   61. BD*( 1) C  3- H 13       0.00463     0.39100
   62. BD*( 1) C  3- H 14       0.00671     0.36188
   63. BD*( 1) O  4- C  5       0.01404     0.21286
   64. BD*( 2) O  4- C  5       0.14309    -0.19952
   65. BD*( 1) C  5- C  6       0.01074     0.46274
   66. BD*( 1) C  5- C 11       0.01608     0.44708
   67. BD*( 1) C  6- C  7       0.00735     0.47572
   68. BD*( 2) C  6- C  7       0.03598    -0.09620
   69. BD*( 1) C  6- H 15       0.00497     0.41152
   70. BD*( 1) C  7- C  8       0.01072     0.45207
   71. BD*( 1) C  7- H 16       0.00528     0.41001
   72. BD*( 1) C  8-Br  9       0.01189    -0.00983
   73. BD*( 2) C  8-Br  9       0.17405    -0.23884
   74. BD*( 1) C  8- C 10       0.01056     0.45325
   75. BD*( 1) C 10- C 11       0.01129     0.48162
   76. BD*( 2) C 10- C 11       0.05453    -0.09908
   77. BD*( 1) C 10- H 17       0.00582     0.39991
   78. BD*( 1) C 11- C 12       0.01003     0.32028
   79. BD*( 1) C 12- H 18       0.00350     0.38794
   80. BD*( 1) C 12- H 19       0.00507     0.35826
   81. RY ( 1) O  1             0.00104     1.61734
   82. RY ( 2) O  1             0.00026     1.70934
   83. RY ( 3) O  1             0.00002     2.09530
   84. RY ( 4) O  1             0.00002     2.00375
   85. RY ( 5) O  1             0.00001     1.43478
   86. RY ( 6) O  1             0.00001     1.80957
   87. RY ( 7) O  1             0.00000     1.97736
   88. RY ( 8) O  1             0.00000     1.77649
   89. RY ( 9) O  1             0.00000     1.73996
   90. RY ( 1) C  2             0.00762     0.77115
   91. RY ( 2) C  2             0.00140     1.01360
   92. RY ( 3) C  2             0.00111     0.78804
   93. RY ( 4) C  2             0.00025     0.74764
   94. RY ( 1) C  3             0.00218     0.79586
   95. RY ( 2) C  3             0.00090     0.90832
   96. RY ( 3) C  3             0.00024     0.89090
   97. RY ( 4) C  3             0.00019     0.85584
   98. RY ( 1) O  4             0.00092     1.52965
   99. RY ( 2) O  4             0.00056     1.56681
  100. RY ( 3) O  4             0.00022     1.95258
  101. RY ( 4) O  4             0.00011     1.94460
  102. RY ( 5) O  4             0.00009     1.89506
  103. RY ( 6) O  4             0.00004     1.86110
  104. RY ( 7) O  4             0.00001     1.79525
  105. RY ( 8) O  4             0.00001     1.91366
  106. RY ( 9) O  4             0.00000     1.72900
  107. RY ( 1) C  5             0.00306     1.05336
  108. RY ( 2) C  5             0.00213     1.11469
  109. RY ( 3) C  5             0.00062     0.77456
  110. RY ( 4) C  5             0.00045     0.66600
  111. RY ( 1) C  6             0.00221     1.03216
  112. RY ( 2) C  6             0.00164     1.01324
  113. RY ( 3) C  6             0.00022     0.63551
  114. RY ( 4) C  6             0.00012     0.65800
  115. RY ( 1) C  7             0.00284     1.15173
  116. RY ( 2) C  7             0.00167     0.84440
  117. RY ( 3) C  7             0.00024     0.54689
  118. RY ( 4) C  7             0.00017     0.74201
  119. RY ( 1) C  8             0.00370     0.89690
  120. RY ( 2) C  8             0.00248     1.16811
  121. RY ( 3) C  8             0.00091     0.75539
  122. RY ( 4) C  8             0.00014     0.52371
  123. RY ( 1)Br  9             0.00049     0.57104
  124. RY ( 2)Br  9             0.00032     0.94962
  125. RY ( 3)Br  9             0.00030     0.49512
  126. RY ( 4)Br  9             0.00011     0.62874
  127. RY ( 5)Br  9             0.00005     0.75646
  128. RY ( 6)Br  9             0.00002     0.46870
  129. RY ( 7)Br  9             0.00001     0.49315
  130. RY ( 8)Br  9             0.00001     0.59864
  131. RY ( 9)Br  9             0.00001     0.54634
  132. RY ( 1) C 10             0.00307     1.16932
  133. RY ( 2) C 10             0.00186     0.82627
  134. RY ( 3) C 10             0.00032     0.54344
  135. RY ( 4) C 10             0.00018     0.74410
  136. RY ( 1) C 11             0.00215     1.20692
  137. RY ( 2) C 11             0.00159     1.16722
  138. RY ( 3) C 11             0.00066     0.75059
  139. RY ( 4) C 11             0.00029     0.68221
  140. RY ( 1) C 12             0.00215     0.95394
  141. RY ( 2) C 12             0.00101     0.82043
  142. RY ( 3) C 12             0.00032     0.97381
  143. RY ( 4) C 12             0.00017     0.85097
  144. RY ( 1) H 13             0.00054     0.45278
  145. RY ( 1) H 14             0.00062     0.45994
  146. RY ( 1) H 15             0.00066     0.45239
  147. RY ( 1) H 16             0.00054     0.44728
  148. RY ( 1) H 17             0.00055     0.46201
  149. RY ( 1) H 18             0.00118     0.48742
  150. RY ( 1) H 19             0.00051     0.47194
          -------------------------------
                 Total Lewis   54.27223  ( 98.6768%)
           Valence non-Lewis    0.66827  (  1.2150%)
           Rydberg non-Lewis    0.05950  (  0.1082%)
          -------------------------------
               Total unit  1   55.00000  (100.0000%)
              Charge unit  1    1.00000

 $CHOOSE
  ALPHA
   LONE 1 2 4 2 9 3 END
   BOND D 1 2 S 2 3 S 2 12 S 3 4 S 3 13 S 3 14 S 4 5 D 5 6 S 5 11 S 6 7 S 6 15
        D 7 8 S 7 16 S 8 9 S 8 10 D 10 11 S 10 17 S 11 12 S 12 18 S 12 19 END
  END
  BETA
   LONE 1 2 4 1 9 2 END
   BOND D 1 2 S 2 3 S 2 12 S 3 4 S 3 13 S 3 14 D 4 5 S 5 6 S 5 11 D 6 7 S 6 15
        S 7 8 S 7 16 D 8 9 S 8 10 D 10 11 S 10 17 S 11 12 S 12 18 S 12 19 END
  END
 $END

 NBO analysis completed in 0.88 CPU seconds (1 wall second)
 Maximum scratch memory used by NBO was 644591 words (4.92 MB)
 Maximum scratch memory used by G16NBO was 54153 words (0.41 MB)

 Opening RunExU unformatted file "/home/rpaton/opt/midi/fukui/Gau-1694733.EUF"
 Read unf file /home/rpaton/opt/midi/fukui/Gau-1694733.EUF:
 Label Gaussian matrix elements                                         IVers= 2 NLab= 2 Version=ES64L-G16RevC.01
 Title arbr47_wb97xd_popncreated by GaussianPrep                       
 NAtoms=    19 NBasis=   150 NBsUse=   150 ICharg=     1 Multip=     2 NE=   111 Len12L=8 Len4L=8 IOpCl= 1 ICGU=112
 GAUSSIAN SCALARS                    NI= 1 NR= 1 NTot=       1 LenBuf=    2 NRI=1 N=    1000
 NPA CHARGES                         NI= 0 NR= 1 NTot=      19 LenBuf= 2048 NRI=1 N=      19
 Recovered energy= -3056.30057396     dipole=      0.058740565102      0.938998371003      0.178553955553
 Unable to Open any file for archive entry.
 1\1\GINC-DYNAMO\SP\UwB97XD\MIDIx\C9H7Br1O2(1+,2)\RPATON\27-Sep-2024\0\
 \# pop=(nbo6,hirshfeld) wb97xd/midix\\arbr47_wb97xd_popncreated by Gau
 ssianPrep\\1,2\O,0,-4.109919,-1.630722,0.585986\C,0,-3.298579,-0.84431
 5,0.144959\C,0,-3.442827,0.660766,0.403285\O,0,-2.518027,1.477641,-0.3
 32009\C,0,-1.212342,1.041167,-0.208586\C,0,-0.201379,1.969279,0.004793
 \C,0,1.117978,1.540279,0.09029\C,0,1.409152,0.186066,-0.028205\Br,0,3.
 206462,-0.406892,0.110128\C,0,0.39717,-0.74077,-0.250961\C,0,-0.919538
 ,-0.314696,-0.358131\C,0,-2.070795,-1.232337,-0.6735\H,0,-4.444867,0.9
 78749,0.097656\H,0,-3.335515,0.833408,1.486767\H,0,-0.462596,3.017789,
 0.104758\H,0,1.916902,2.255313,0.259203\H,0,0.638091,-1.795408,-0.3556
 92\H,0,-1.844914,-2.286553,-0.483742\H,0,-2.342752,-1.130055,-1.738911
 \\Version=ES64L-G16RevC.01\State=2-A\HF=-3056.300574\S2=0.764092\S2-1=
 0.\S2A=0.750047\RMSD=7.438e-09\Dipole=-0.0587406,0.9389984,-0.178554\Q
 uadrupole=10.40542,-1.7653605,-8.6400594,-4.9234682,1.8020364,3.162714
 8\PG=C01 [X(C9H7Br1O2)]\\@
 The archive entry for this job was punched.


 ... THIS SEEMS PLAINLY ABSURD; BUT WHOEVER WISHES TO BECOME A 
 PHILOSOPHER MUST LEARN NOT TO BE FRIGHTENED BY ABSURDITIES.

                          -- BERTRAND RUSSELL
 Job cpu time:       0 days  0 hours 10 minutes  5.1 seconds.
 Elapsed time:       0 days  0 hours  0 minutes 25.5 seconds.
 File lengths (MBytes):  RWF=     27 Int=      0 D2E=      0 Chk=      3 Scr=      1
 Normal termination of Gaussian 16 at Fri Sep 27 17:47:16 2024.
