 Entering Gaussian System, Link 0=/usr/local/Gaussian/G16C/g16/g16
 Input=popn/arbr31_wb97xd_popn.com
 Output=popn/arbr31_wb97xd_popn.log
 Initial command:
 /usr/local/Gaussian/G16C/g16/l1.exe "/home/rpaton/opt/midi/Gau-792670.inp" -scrdir="/home/rpaton/opt/midi/"
 Entering Link 1 = /usr/local/Gaussian/G16C/g16/l1.exe PID=    792671.
  
 Copyright (c) 1988-2019, Gaussian, Inc.  All Rights Reserved.
  
 This is part of the Gaussian(R) 16 program.  It is based on
 the Gaussian(R) 09 system (copyright 2009, Gaussian, Inc.),
 the Gaussian(R) 03 system (copyright 2003, Gaussian, Inc.),
 the Gaussian(R) 98 system (copyright 1998, Gaussian, Inc.),
 the Gaussian(R) 94 system (copyright 1995, Gaussian, Inc.),
 the Gaussian 92(TM) system (copyright 1992, Gaussian, Inc.),
 the Gaussian 90(TM) system (copyright 1990, Gaussian, Inc.),
 the Gaussian 88(TM) system (copyright 1988, Gaussian, Inc.),
 the Gaussian 86(TM) system (copyright 1986, Carnegie Mellon
 University), and the Gaussian 82(TM) system (copyright 1983,
 Carnegie Mellon University). Gaussian is a federally registered
 trademark of Gaussian, Inc.
  
 This software contains proprietary and confidential information,
 including trade secrets, belonging to Gaussian, Inc.
  
 This software is provided under written license and may be
 used, copied, transmitted, or stored only in accord with that
 written license.
  
 The following legend is applicable only to US Government
 contracts under FAR:
  
                    RESTRICTED RIGHTS LEGEND
  
 Use, reproduction and disclosure by the US Government is
 subject to restrictions as set forth in subparagraphs (a)
 and (c) of the Commercial Computer Software - Restricted
 Rights clause in FAR 52.227-19.
  
 Gaussian, Inc.
 340 Quinnipiac St., Bldg. 40, Wallingford CT 06492
  
  
 ---------------------------------------------------------------
 Warning -- This program may not be used in any manner that
 competes with the business of Gaussian, Inc. or will provide
 assistance to any competitor of Gaussian, Inc.  The licensee
 of this program is prohibited from giving any competitor of
 Gaussian, Inc. access to this program.  By using this program,
 the user acknowledges that Gaussian, Inc. is engaged in the
 business of creating and licensing software in the field of
 computational chemistry and represents and warrants to the
 licensee that it is not a competitor of Gaussian, Inc. and that
 it will not use this program in any manner prohibited above.
 ---------------------------------------------------------------
  

 Cite this work as:
 Gaussian 16, Revision C.01,
 M. J. Frisch, G. W. Trucks, H. B. Schlegel, G. E. Scuseria, 
 M. A. Robb, J. R. Cheeseman, G. Scalmani, V. Barone, 
 G. A. Petersson, H. Nakatsuji, X. Li, M. Caricato, A. V. Marenich, 
 J. Bloino, B. G. Janesko, R. Gomperts, B. Mennucci, H. P. Hratchian, 
 J. V. Ortiz, A. F. Izmaylov, J. L. Sonnenberg, D. Williams-Young, 
 F. Ding, F. Lipparini, F. Egidi, J. Goings, B. Peng, A. Petrone, 
 T. Henderson, D. Ranasinghe, V. G. Zakrzewski, J. Gao, N. Rega, 
 G. Zheng, W. Liang, M. Hada, M. Ehara, K. Toyota, R. Fukuda, 
 J. Hasegawa, M. Ishida, T. Nakajima, Y. Honda, O. Kitao, H. Nakai, 
 T. Vreven, K. Throssell, J. A. Montgomery, Jr., J. E. Peralta, 
 F. Ogliaro, M. J. Bearpark, J. J. Heyd, E. N. Brothers, K. N. Kudin, 
 V. N. Staroverov, T. A. Keith, R. Kobayashi, J. Normand, 
 K. Raghavachari, A. P. Rendell, J. C. Burant, S. S. Iyengar, 
 J. Tomasi, M. Cossi, J. M. Millam, M. Klene, C. Adamo, R. Cammi, 
 J. W. Ochterski, R. L. Martin, K. Morokuma, O. Farkas, 
 J. B. Foresman, and D. J. Fox, Gaussian, Inc., Wallingford CT, 2019.
 
 ******************************************
 Gaussian 16:  ES64L-G16RevC.01  3-Jul-2019
                25-Sep-2024 
 ******************************************
 %chk=arbr31_wb97xd_popn.chk
 %mem=48GB
 %nprocshared=24
 Will use up to   24 processors via shared memory.
 ------------------------------------------------
 # pop=(nbo6read,savenbos,hirshfeld) wb97xd/midix
 ------------------------------------------------
 1/38=1,163=2,172=1/1;
 2/12=2,17=6,18=5,40=1/2;
 3/5=20,11=2,25=1,30=1,74=-58/1,2,3;
 4//1;
 5/5=2,38=5/2;
 6/7=2,8=2,9=2,10=2,28=1,40=2,73=1,79=1,113=1,114=1,124=2103,126=1/1,12;
 99/5=1,9=1/99;
 -----------------------------------------
 arbr31_wb97xd_popncreated by GaussianPrep
 -----------------------------------------
 Symbolic Z-matrix:
 Charge =  0 Multiplicity = 1
 O                     3.84262   1.41659  -0.00033 
 C                     3.09769   0.45737   0.00065 
 C                     3.50942  -1.03708  -0.00029 
 C                     2.18621  -1.85319  -0.00001 
 C                     1.09116  -0.79931   0.00018 
 C                    -0.28333  -0.98969   0.00016 
 C                    -1.10267   0.135     0.00006 
 Br                   -2.98518  -0.09599  -0.00006 
 C                    -0.57889   1.42961  -0.00002 
 C                     0.79818   1.60563   0.00004 
 C                     1.61397   0.48482   0.0002 
 H                     4.12836  -1.23376  -0.8844 
 H                     4.12913  -1.23442   0.88311 
 H                     2.10716  -2.4984    0.88435 
 H                     2.10681  -2.49831  -0.88441 
 H                    -0.71898  -1.98508   0.00012 
 H                    -1.25057   2.28207  -0.00009 
 H                     1.24804   2.59579   0.00009 
 
                          Input orientation:                          
 ---------------------------------------------------------------------
 Center     Atomic      Atomic             Coordinates (Angstroms)
 Number     Number       Type             X           Y           Z
 ---------------------------------------------------------------------
      1          8           0        3.842615    1.416587   -0.000329
      2          6           0        3.097688    0.457366    0.000653
      3          6           0        3.509418   -1.037081   -0.000294
      4          6           0        2.186211   -1.853192   -0.000009
      5          6           0        1.091157   -0.799310    0.000184
      6          6           0       -0.283334   -0.989693    0.000160
      7          6           0       -1.102674    0.134998    0.000064
      8         35           0       -2.985180   -0.095985   -0.000057
      9          6           0       -0.578886    1.429614   -0.000022
     10          6           0        0.798184    1.605630    0.000037
     11          6           0        1.613969    0.484816    0.000197
     12          1           0        4.128357   -1.233764   -0.884401
     13          1           0        4.129134   -1.234421    0.883112
     14          1           0        2.107155   -2.498401    0.884354
     15          1           0        2.106813   -2.498312   -0.884406
     16          1           0       -0.718975   -1.985078    0.000118
     17          1           0       -1.250565    2.282068   -0.000088
     18          1           0        1.248040    2.595791    0.000090
 ---------------------------------------------------------------------
                    Distance matrix (angstroms):
                    1          2          3          4          5
     1  O    0.000000
     2  C    1.214505   0.000000
     3  C    2.476188   1.550127   0.000000
     4  C    3.665396   2.483842   1.554643   0.000000
     5  C    3.532806   2.367573   2.429922   1.519806   0.000000
     6  C    4.776363   3.677675   3.793048   2.616158   1.387613
     7  C    5.108655   4.212714   4.758693   3.843132   2.384497
     8  Br   6.993330   6.107985   6.562428   5.461782   4.136567
     9  C    4.421520   3.802955   4.774810   4.292153   2.785165
    10  C    3.050295   2.570259   3.786121   3.726938   2.422719
    11  C    2.415587   1.483973   2.430822   2.407019   1.386475
    12  H    2.808486   2.169221   1.097003   2.222110   3.193090
    13  H    2.808986   2.169045   1.096995   2.222100   3.193460
    14  H    4.372827   3.240161   2.210068   1.097562   2.168160
    15  H    4.372761   3.240555   2.210012   1.097562   2.168102
    16  H    5.690292   4.531275   4.333360   2.908178   2.163937
    17  H    5.166192   4.715596   5.802947   5.376970   3.870213
    18  H    2.849972   2.827377   4.279204   4.546825   3.398724
                    6          7          8          9         10
     6  C    0.000000
     7  C    1.391491   0.000000
     8  Br   2.845819   1.896624   0.000000
     9  C    2.437293   1.396562   2.849158   0.000000
    10  C    2.811651   2.403335   4.148414   1.388274   0.000000
    11  C    2.402901   2.739073   4.635677   2.387730   1.386264
    12  H    4.506111   5.479003   7.258031   5.480314   4.464800
    13  H    4.506592   5.479680   7.258752   5.481100   4.465528
    14  H    2.961830   4.244969   5.699619   4.840066   4.397555
    15  H    2.961620   4.244693   5.699267   4.839805   4.397396
    16  H    1.086542   2.154518   2.950315   3.417564   3.898071
    17  H    3.411738   2.152157   2.943472   1.085279   2.157531
    18  H    3.898821   3.403140   5.016554   2.167401   1.087561
                   11         12         13         14         15
    11  C    0.000000
    12  H    3.171463   0.000000
    13  H    3.171966   1.767513   0.000000
    14  H    3.150325   2.968680   2.384543   0.000000
    15  H    3.150313   2.384475   2.968387   1.768760   0.000000
    16  H    3.397500   4.984323   4.984709   3.005393   3.005141
    17  H    3.381667   6.486593   6.487442   5.908418   5.908133
    18  H    2.142456   4.872786   4.873495   5.241259   5.241155
                   16         17         18
    16  H    0.000000
    17  H    4.300131   0.000000
    18  H    4.985329   2.518223   0.000000
 Stoichiometry    C9H7BrO
 Framework group  C1[X(C9H7BrO)]
 Deg. of freedom    48
 Full point group                 C1      NOp   1
 Largest Abelian subgroup         C1      NOp   1
 Largest concise Abelian subgroup C1      NOp   1
                         Standard orientation:                         
 ---------------------------------------------------------------------
 Center     Atomic      Atomic             Coordinates (Angstroms)
 Number     Number       Type             X           Y           Z
 ---------------------------------------------------------------------
      1          8           0        3.842615   -1.416587    0.000329
      2          6           0        3.097688   -0.457366   -0.000653
      3          6           0        3.509418    1.037081    0.000294
      4          6           0        2.186211    1.853192    0.000009
      5          6           0        1.091157    0.799310   -0.000184
      6          6           0       -0.283334    0.989693   -0.000160
      7          6           0       -1.102674   -0.134998   -0.000064
      8         35           0       -2.985180    0.095985    0.000057
      9          6           0       -0.578886   -1.429614    0.000022
     10          6           0        0.798184   -1.605630   -0.000037
     11          6           0        1.613969   -0.484816   -0.000197
     12          1           0        4.128357    1.233764    0.884401
     13          1           0        4.129134    1.234421   -0.883112
     14          1           0        2.107155    2.498401   -0.884354
     15          1           0        2.106813    2.498312    0.884406
     16          1           0       -0.718975    1.985078   -0.000118
     17          1           0       -1.250565   -2.282068    0.000088
     18          1           0        1.248040   -2.595791   -0.000090
 ---------------------------------------------------------------------
 Rotational constants (GHZ):           2.5054398           0.3672674           0.3215977
 Standard basis: MIDIx (5D, 7F)
 There are   139 symmetry adapted cartesian basis functions of A   symmetry.
 There are   136 symmetry adapted basis functions of A   symmetry.
   136 basis functions,   240 primitive gaussians,   139 cartesian basis functions
    52 alpha electrons       52 beta electrons
       nuclear repulsion energy       786.8718373607 Hartrees.
 NAtoms=   18 NActive=   18 NUniq=   18 SFac= 1.00D+00 NAtFMM=   60 NAOKFM=F Big=F
 Integral buffers will be    131072 words long.
 Raffenetti 2 integral format.
 Two-electron integral symmetry is turned on.
 Nuclear repulsion after empirical dispersion term =      786.8614070722 Hartrees.
 One-electron integrals computed using PRISM.
 NBasis=   136 RedAO= T EigKep=  1.13D-03  NBF=   136
 NBsUse=   136 1.00D-06 EigRej= -1.00D+00 NBFU=   136
 ExpMin= 1.47D-01 ExpMax= 6.10D+03 ExpMxC= 6.10D+03 IAcc=3 IRadAn=         5 AccDes= 0.00D+00
 Harris functional with IExCor= 4639 and IRadAn=       5 diagonalized for initial guess.
 HarFok:  IExCor= 4639 AccDes= 0.00D+00 IRadAn=         5 IDoV= 1 UseB2=F ITyADJ=14
 ICtDFT=  3500011 ScaDFX=  1.000000  1.000000  1.000000  1.000000
 FoFCou: FMM=F IPFlag=           0 FMFlag=      100000 FMFlg1=           0
         NFxFlg=           0 DoJE=T BraDBF=F KetDBF=T FulRan=T
         wScrn=  0.000000 ICntrl=       500 IOpCl=  0 I1Cent=   200000004 NGrid=           0
         NMat0=    1 NMatS0=      1 NMatT0=    0 NMatD0=    1 NMtDS0=    0 NMtDT0=    0
 Petite list used in FoFCou.
 Requested convergence on RMS density matrix=1.00D-08 within 128 cycles.
 Requested convergence on MAX density matrix=1.00D-06.
 Requested convergence on             energy=1.00D-06.
 No special actions if energy rises.
 Integral accuracy reduced to 1.0D-05 until final iterations.
 Initial convergence to 1.0D-05 achieved.  Increase integral accuracy.
 SCF Done:  E(RwB97XD) =  -2981.85115077     A.U. after   15 cycles
            NFock= 15  Conv=0.97D-08     -V/T= 2.0021

 **********************************************************************

            Population analysis using the SCF Density.

 **********************************************************************

 Orbital symmetries:
       Occupied  (A) (A) (A) (A) (A) (A) (A) (A) (A) (A) (A) (A)
                 (A) (A) (A) (A) (A) (A) (A) (A) (A) (A) (A) (A)
                 (A) (A) (A) (A) (A) (A) (A) (A) (A) (A) (A) (A)
                 (A) (A) (A) (A) (A) (A) (A) (A) (A) (A) (A) (A)
                 (A) (A) (A) (A)
       Virtual   (A) (A) (A) (A) (A) (A) (A) (A) (A) (A) (A) (A)
                 (A) (A) (A) (A) (A) (A) (A) (A) (A) (A) (A) (A)
                 (A) (A) (A) (A) (A) (A) (A) (A) (A) (A) (A) (A)
                 (A) (A) (A) (A) (A) (A) (A) (A) (A) (A) (A) (A)
                 (A) (A) (A) (A) (A) (A) (A) (A) (A) (A) (A) (A)
                 (A) (A) (A) (A) (A) (A) (A) (A) (A) (A) (A) (A)
                 (A) (A) (A) (A) (A) (A) (A) (A) (A) (A) (A) (A)
 The electronic state is 1-A.
 Alpha  occ. eigenvalues -- -480.15515 -62.58908 -56.17806 -56.17376 -56.17367
 Alpha  occ. eigenvalues --  -19.14370 -10.32678 -10.30938 -10.26920 -10.26089
 Alpha  occ. eigenvalues --  -10.26027 -10.25882 -10.25763 -10.24973 -10.24721
 Alpha  occ. eigenvalues --   -8.89758  -6.68245  -6.66817  -6.66787  -2.78553
 Alpha  occ. eigenvalues --   -2.78047  -2.78042  -2.76854  -2.76849  -1.14712
 Alpha  occ. eigenvalues --   -1.01177  -0.95205  -0.90404  -0.86981  -0.83304
 Alpha  occ. eigenvalues --   -0.78262  -0.73365  -0.69025  -0.66274  -0.59314
 Alpha  occ. eigenvalues --   -0.57523  -0.57519  -0.55194  -0.53518  -0.52104
 Alpha  occ. eigenvalues --   -0.49297  -0.49188  -0.48875  -0.47007  -0.45033
 Alpha  occ. eigenvalues --   -0.44331  -0.43919  -0.39370  -0.37043  -0.34579
 Alpha  occ. eigenvalues --   -0.32345  -0.32341
 Alpha virt. eigenvalues --    0.01125   0.05151   0.08265   0.11895   0.17732
 Alpha virt. eigenvalues --    0.19449   0.20473   0.21600   0.23370   0.25879
 Alpha virt. eigenvalues --    0.26133   0.27237   0.28857   0.30484   0.34187
 Alpha virt. eigenvalues --    0.36597   0.37769   0.41021   0.43806   0.46581
 Alpha virt. eigenvalues --    0.47807   0.54001   0.55673   0.58748   0.59892
 Alpha virt. eigenvalues --    0.61229   0.63530   0.63680   0.64337   0.66563
 Alpha virt. eigenvalues --    0.67397   0.70086   0.70632   0.71164   0.75185
 Alpha virt. eigenvalues --    0.76183   0.79990   0.82322   0.83737   0.84262
 Alpha virt. eigenvalues --    0.86596   0.88508   0.90295   0.92665   0.93934
 Alpha virt. eigenvalues --    0.95022   0.97298   0.97312   0.97628   0.98320
 Alpha virt. eigenvalues --    0.99849   1.00411   1.02263   1.02422   1.04232
 Alpha virt. eigenvalues --    1.04499   1.05278   1.08143   1.08174   1.11947
 Alpha virt. eigenvalues --    1.12692   1.15427   1.17883   1.21063   1.25442
 Alpha virt. eigenvalues --    1.27999   1.30866   1.36269   1.37671   1.50323
 Alpha virt. eigenvalues --    1.55503   1.58781   1.64701   1.66723   1.68767
 Alpha virt. eigenvalues --    1.74666   1.80970   1.89122   1.92381   1.98161
 Alpha virt. eigenvalues --    2.00569   2.11286   2.32391   3.07578
          Condensed to atoms (all electrons):
               1          2          3          4          5          6
     1  O    8.123204   0.558035  -0.063619   0.002509   0.001831   0.000003
     2  C    0.558035   4.479789   0.319912  -0.065510  -0.009824   0.000940
     3  C   -0.063619   0.319912   5.550487   0.231250  -0.036635   0.002976
     4  C    0.002509  -0.065510   0.231250   5.199501   0.266794   0.003085
     5  C    0.001831  -0.009824  -0.036635   0.266794   5.134632   0.455738
     6  C    0.000003   0.000940   0.002976   0.003085   0.455738   4.909659
     7  C   -0.000010   0.000340  -0.000351   0.000519  -0.015202   0.480217
     8  Br  -0.000000   0.000002   0.000000  -0.000021   0.002311  -0.041853
     9  C    0.000231   0.001577   0.000268   0.000345  -0.037972  -0.034897
    10  C   -0.005324  -0.000054  -0.000638   0.001667  -0.024556  -0.025990
    11  C   -0.082571   0.216492  -0.240638  -0.001776   0.399598  -0.021812
    12  H    0.002178  -0.025658   0.365028  -0.021314   0.001032  -0.000072
    13  H    0.002184  -0.025672   0.364956  -0.021300   0.001038  -0.000072
    14  H   -0.000025   0.002314  -0.024969   0.385548  -0.025896  -0.004166
    15  H   -0.000025   0.002327  -0.025012   0.385604  -0.025898  -0.004169
    16  H    0.000000  -0.000033   0.000138  -0.004155  -0.016367   0.389704
    17  H    0.000000  -0.000011   0.000001   0.000003   0.000100   0.002403
    18  H    0.007509  -0.000785   0.000769  -0.000202   0.003276   0.000070
               7          8          9         10         11         12
     1  O   -0.000010  -0.000000   0.000231  -0.005324  -0.082571   0.002178
     2  C    0.000340   0.000002   0.001577  -0.000054   0.216492  -0.025658
     3  C   -0.000351   0.000000   0.000268  -0.000638  -0.240638   0.365028
     4  C    0.000519  -0.000021   0.000345   0.001667  -0.001776  -0.021314
     5  C   -0.015202   0.002311  -0.037972  -0.024556   0.399598   0.001032
     6  C    0.480217  -0.041853  -0.034897  -0.025990  -0.021812  -0.000072
     7  C    5.052956   0.215962   0.451530  -0.019632  -0.055786   0.000007
     8  Br   0.215962  34.918285  -0.040085   0.001750   0.000413  -0.000000
     9  C    0.451530  -0.040085   4.991747   0.474265  -0.024868  -0.000003
    10  C   -0.019632   0.001750   0.474265   4.903597   0.435682  -0.000010
    11  C   -0.055786   0.000413  -0.024868   0.435682   5.543325   0.008444
    12  H    0.000007  -0.000000  -0.000003  -0.000010   0.008444   0.457754
    13  H    0.000007  -0.000000  -0.000002  -0.000010   0.008450  -0.015394
    14  H    0.000042  -0.000000   0.000007  -0.000064  -0.000685   0.001478
    15  H    0.000042  -0.000000   0.000008  -0.000065  -0.000694  -0.005123
    16  H   -0.019422   0.000687   0.002379  -0.000080   0.002458  -0.000004
    17  H   -0.022236   0.000756   0.394523  -0.018307   0.003058  -0.000000
    18  H    0.001943  -0.000046  -0.014337   0.381267  -0.025463  -0.000016
              13         14         15         16         17         18
     1  O    0.002184  -0.000025  -0.000025   0.000000   0.000000   0.007509
     2  C   -0.025672   0.002314   0.002327  -0.000033  -0.000011  -0.000785
     3  C    0.364956  -0.024969  -0.025012   0.000138   0.000001   0.000769
     4  C   -0.021300   0.385548   0.385604  -0.004155   0.000003  -0.000202
     5  C    0.001038  -0.025896  -0.025898  -0.016367   0.000100   0.003276
     6  C   -0.000072  -0.004166  -0.004169   0.389704   0.002403   0.000070
     7  C    0.000007   0.000042   0.000042  -0.019422  -0.022236   0.001943
     8  Br  -0.000000  -0.000000  -0.000000   0.000687   0.000756  -0.000046
     9  C   -0.000002   0.000007   0.000008   0.002379   0.394523  -0.014337
    10  C   -0.000010  -0.000064  -0.000065  -0.000080  -0.018307   0.381267
    11  C    0.008450  -0.000685  -0.000694   0.002458   0.003058  -0.025463
    12  H   -0.015394   0.001478  -0.005123  -0.000004  -0.000000  -0.000016
    13  H    0.457873  -0.005127   0.001476  -0.000004  -0.000000  -0.000016
    14  H   -0.005127   0.474237  -0.024144   0.000903  -0.000000   0.000005
    15  H    0.001476  -0.024144   0.474209   0.000904  -0.000000   0.000005
    16  H   -0.000004   0.000903   0.000904   0.431608  -0.000052   0.000008
    17  H   -0.000000  -0.000000  -0.000000  -0.000052   0.426016  -0.003233
    18  H   -0.000016   0.000005   0.000005   0.000008  -0.003233   0.428500
 Mulliken charges:
               1
     1  O   -0.546109
     2  C    0.545821
     3  C   -0.443924
     4  C   -0.362546
     5  C   -0.073999
     6  C   -0.111766
     7  C   -0.070924
     8  Br  -0.058160
     9  C   -0.164715
    10  C   -0.103498
    11  C   -0.163627
    12  H    0.231674
    13  H    0.231613
    14  H    0.220544
    15  H    0.220557
    16  H    0.211330
    17  H    0.216981
    18  H    0.220748
 Sum of Mulliken charges =  -0.00000
 Mulliken charges with hydrogens summed into heavy atoms:
               1
     1  O   -0.546109
     2  C    0.545821
     3  C    0.019363
     4  C    0.078555
     5  C   -0.073999
     6  C    0.099564
     7  C   -0.070924
     8  Br  -0.058160
     9  C    0.052266
    10  C    0.117250
    11  C   -0.163627
 Electronic spatial extent (au):  <R**2>=           2996.4939
 Charge=             -0.0000 electrons
 Dipole moment (field-independent basis, Debye):
    X=             -0.4389    Y=              2.0424    Z=             -0.0007  Tot=              2.0890
 Quadrupole moment (field-independent basis, Debye-Ang):
   XX=            -82.0105   YY=            -70.7249   ZZ=            -76.6082
   XY=              9.3859   XZ=             -0.0032   YZ=              0.0019
 Traceless Quadrupole moment (field-independent basis, Debye-Ang):
   XX=             -5.5626   YY=              5.7230   ZZ=             -0.1604
   XY=              9.3859   XZ=             -0.0032   YZ=              0.0019
 Octapole moment (field-independent basis, Debye-Ang**2):
  XXX=           -125.9002  YYY=             -1.9515  ZZZ=              0.0070  XYY=            -35.2165
  XXY=             36.1954  XXZ=             -0.0080  XZZ=            -21.9084  YZZ=              2.4473
  YYZ=              0.0006  XYZ=              0.0062
 Hexadecapole moment (field-independent basis, Debye-Ang**3):
 XXXX=          -2792.9226 YYYY=           -571.4517 ZZZZ=            -89.1481 XXXY=            109.4870
 XXXZ=             -0.0417 YYYX=            -12.4034 YYYZ=             -0.0002 ZZZX=              0.0106
 ZZZY=              0.0015 XXYY=           -582.9068 XXZZ=           -451.5430 YYZZ=           -116.0710
 XXYZ=              0.0195 YYXZ=             -0.0047 ZZXY=             -4.4554
 N-N= 7.868614070722D+02 E-N=-8.672931432485D+03  KE= 2.975562124177D+03
 There are a total of      409748 grid points.
 ElSum from          density=      104.0000132684
 ElSum from atomic densities=      104.0000031525
 Hirshfeld populations at iteration   1 (CA, CB, DipXYZ):
               1          2          3          4          5
     1  O    4.120499   4.120499  -0.031538   0.042157   0.000035
     2  C    2.922103   2.922103   0.003723   0.030873  -0.000346
     3  C    3.024106   3.024106  -0.018733  -0.008419   0.000021
     4  C    3.019110   3.019110   0.008816  -0.013886   0.000005
     5  C    2.996321   2.996321   0.024178   0.061591   0.000014
     6  C    3.023438   3.023438   0.002935   0.041292  -0.000001
     7  C    2.990235   2.990235  -0.049003   0.002592   0.000006
     8  Br  17.518685  17.518685  -0.040328   0.002410   0.000007
     9  C    3.021441   3.021441  -0.005481  -0.036062   0.000004
    10  C    3.007767   3.007767   0.019017  -0.054752   0.000013
    11  C    3.017238   3.017238   0.049146  -0.020132   0.000001
    12  H    0.477840   0.477840   0.092549   0.027416   0.124987
    13  H    0.477862   0.477862   0.092641   0.027468  -0.124867
    14  H    0.480489   0.480489  -0.007922   0.094828  -0.120617
    15  H    0.480486   0.480486  -0.007964   0.094815   0.120627
    16  H    0.475795   0.475795  -0.050426   0.155428   0.000008
    17  H    0.475536   0.475536  -0.086374  -0.141627   0.000008
    18  H    0.471056   0.471056   0.061857  -0.152620  -0.000010
       Tot  52.000007  52.000007   0.057093   0.153374  -0.000105

 Dip from Atomic Chgs             -0.229782   0.650158  -0.000169
         Total Dipole             -0.172689   0.803532  -0.000273

 Hirshfeld charges, spin densities, dipoles, and CM5 charges using IRadAn=      5:
              Q-H        S-H        Dx         Dy         Dz        Q-CM5   
     1  O   -0.240997   0.000000  -0.031538   0.042157   0.000035  -0.286253
     2  C    0.155795   0.000000   0.003723   0.030873  -0.000346   0.184165
     3  C   -0.048212   0.000000  -0.018733  -0.008419   0.000021  -0.146548
     4  C   -0.038220   0.000000   0.008816  -0.013886   0.000005  -0.138268
     5  C    0.007358   0.000000   0.024178   0.061591   0.000014  -0.003301
     6  C   -0.046875   0.000000   0.002935   0.041292  -0.000001  -0.097554
     7  C    0.019529   0.000000  -0.049003   0.002592   0.000006  -0.001640
     8  Br  -0.037370   0.000000  -0.040328   0.002410   0.000007  -0.022486
     9  C   -0.042883   0.000000  -0.005481  -0.036062   0.000004  -0.096028
    10  C   -0.015534   0.000000   0.019017  -0.054752   0.000013  -0.066769
    11  C   -0.034477   0.000000   0.049146  -0.020132   0.000001  -0.037639
    12  H    0.044320   0.000000   0.092549   0.027416   0.124987   0.099777
    13  H    0.044276   0.000000   0.092641   0.027468  -0.124867   0.099732
    14  H    0.039023   0.000000  -0.007922   0.094828  -0.120617   0.093288
    15  H    0.039029   0.000000  -0.007964   0.094815   0.120627   0.093295
    16  H    0.048410   0.000000  -0.050426   0.155428   0.000008   0.105289
    17  H    0.048927   0.000000  -0.086374  -0.141627   0.000008   0.105514
    18  H    0.057889   0.000000   0.061857  -0.152620  -0.000010   0.115413
       Tot  -0.000013   0.000000   0.057093   0.153374  -0.000105  -0.000013
 Hirshfeld charges with hydrogens summed into heavy atoms:
              Q-H       Q-CM5   
     1  O   -0.240997  -0.286253
     2  C    0.155795   0.184165
     3  C    0.040384   0.052960
     4  C    0.039832   0.048314
     5  C    0.007358  -0.003301
     6  C    0.001535   0.007735
     7  C    0.019529  -0.001640
     8  Br  -0.037370  -0.022486
     9  C    0.006044   0.009486
    10  C    0.042355   0.048644
    11  C   -0.034477  -0.037639
 
 EQQ= 0.000000000000E+00 EQD= 0.000000000000E+00 EDD= 0.261071763338E-02
 EQQ+QD+DD= 0.261071763338E-02
 
 Running external command "gaunbo6 R"
         input file       "/home/rpaton/opt/midi/Gau-792671.EIn"
         output file      "/home/rpaton/opt/midi/Gau-792671.EOu"
         message file     "/home/rpaton/opt/midi/Gau-792671.EMs"
         fchk file        "/home/rpaton/opt/midi/Gau-792671.EFC"
         mat. el file     "/home/rpaton/opt/midi/Gau-792671.EUF"

 Writing WrtUnf unformatted file "/home/rpaton/opt/midi/Gau-792671.EUF"
 Gaussian matrix elements                                         Version   2 NLab=11 Len12L=8 Len4L=8
 Write SHELL TO ATOM MAP                   from file      0 offset           0 length                  76 to matrix element file.
 Write SHELL TYPES                         from file      0 offset           0 length                  76 to matrix element file.
 Write NUMBER OF PRIMITIVES PER SHELL      from file      0 offset           0 length                  76 to matrix element file.
 Write PRIMITIVE EXPONENTS                 from file      0 offset           0 length                 137 to matrix element file.
 Write CONTRACTION COEFFICIENTS            from file      0 offset           0 length                 137 to matrix element file.
 Write P(S=P) CONTRACTION COEFFICIENTS     from file      0 offset           0 length                 137 to matrix element file.
 Write COORDINATES OF EACH SHELL           from file      0 offset           0 length                 228 to matrix element file.
 Write BONDS PER ATOM                      from file      0 offset           0 length                  18 to matrix element file.
 Write BONDED ATOMS                        from file      0 offset           0 length                  38 to matrix element file.
 Write BOND TYPES                          from file      0 offset           0 length                  38 to matrix element file.
 Write ONIOM CHARGE/MULT                   from file      0 offset           0 length                  32 to matrix element file.
 Write ONIOM ATOM LAYERS                   from file      0 offset           0 length                  18 to matrix element file.
 Write ONIOM ATOM MODIFIERS                from file      0 offset           0 length                  18 to matrix element file.
 Write ONIOM ATOM TYPES                    from file      0 offset           0 length                  18 to matrix element file.
 Write ONIOM LINK ATOMS                    from file      0 offset           0 length                  18 to matrix element file.
 Write ONIOM LINK CHARGES                  from file      0 offset           0 length                  18 to matrix element file.
 Write ONIOM LINK DISTANCES                from file      0 offset           0 length                  72 to matrix element file.
 Write SYMINF INTS                         from file      0 offset           0 length                  26 to matrix element file.
 Write ROTTR TO SO                         from file      0 offset           0 length                  12 to matrix element file.
 Write GAUSSIAN SCALARS                    from file    501 offset           0 to matrix element file.
 Write OPTIMIZATION FLAGS                  from file      0 offset           0 length                  18 to matrix element file.
 Write INTEGER ISO                         from file      0 offset           0 length                  18 to matrix element file.
 Write INTEGER SPIN                        from file      0 offset           0 length                  18 to matrix element file.
 Write REAL ZEFFECTIVE                     from file      0 offset           0 length                  18 to matrix element file.
 Write REAL QUADRUPOLEMOMENT               from file      0 offset           0 length                  18 to matrix element file.
 Write REAL GFACTOR                        from file      0 offset           0 length                  18 to matrix element file.
 Write REAL ZNUCLEAR                       from file      0 offset           0 length                  18 to matrix element file.
 Write MULLIKEN CHARGES                    from file      0 offset           0 length                  18 to matrix element file.
 Write TYPE 6 CHARGES                      from file      0 offset           0 length                  18 to matrix element file.
 Write TYPE 7 CHARGES                      from file      0 offset           0 length                  18 to matrix element file.
 Write NUCLEAR GRADIENT                    from file  10584 offset           0 length                  54 to matrix element file.
 Array NUCLEAR FORCE CONSTANTS              on  file  10585 does not exist.
 Write ELECTRIC DIPOLE MOMENT              from file      0 offset           0 length                   3 to matrix element file.
 Write NON-ADIABATIC COUPLING              from file  10810 offset           0 length                  54 to matrix element file.
 Write FINITE EM FIELD                     from file  10521 offset           0 length                  35 to matrix element file.
 Write OVERLAP                             from file  10514 offset           0 length                9316 to matrix element file.
 Write CORE HAMILTONIAN ALPHA              from file  10515 offset           0 length                9316 to matrix element file.
 Write CORE HAMILTONIAN BETA               from file  10515 offset        9316 length                9316 to matrix element file.
 Write KINETIC ENERGY                      from file  10516 offset           0 length                9316 to matrix element file.
 Write ORTHOGONAL BASIS                    from file  10685 offset           0 length               18496 to matrix element file.
 Write DIPOLE INTEGRALS                    from file  10518 offset           0 length               27948 to matrix element file.
 Array DIP VEL INTEGRALS                    on  file  10572 does not exist.
 Array R X DEL INTEGRALS                    on  file  10572 does not exist.
 Write ALPHA ORBITAL ENERGIES              from file      0 offset           0 length                 136 to matrix element file.
 Write ALPHA MO COEFFICIENTS               from file  10524 offset           0 length               18496 to matrix element file.
 Write ALPHA DENSITY MATRIX                from file      0 offset           0 length                9316 to matrix element file.
 Write ALPHA FOCK MATRIX                   from file  10536 offset           0 length                9316 to matrix element file.
 Write ENERGY-WEIGHTED DENSITY             from file  10571 offset           0 length                9316 to matrix element file.
 Write ALPHA SCF DENSITY MATRIX            from file      0 offset           0 length                9316 to matrix element file.
 Write INTEGER PARAMETERS                  from file      0 offset           0 length                   2 to matrix element file.
 No 2e integrals to process.
 Perform NBO analysis...

 *********************************** NBO 7.0 ***********************************
             N A T U R A L   A T O M I C   O R B I T A L   A N D
          N A T U R A L   B O N D   O R B I T A L   A N A L Y S I S
 **************************** Robert Paton (I101709) ***************************
  (c) Copyright 1996-2019 Board of Regents of the University of Wisconsin System
      on behalf of the Theoretical Chemistry Institute.  All rights reserved.

          Cite this program [NBO 7.0.5 (4-Jun-2019)] as:

          NBO 7.0.  E. D. Glendening, J. K. Badenhoop, A. E. Reed,
          J. E. Carpenter, J. A. Bohmann, C. M. Morales, P. Karafiloglou,
          C. R. Landis, and F. Weinhold, Theoretical Chemistry Institute,
          University of Wisconsin, Madison, WI (2018)

       /AONBO  / : Checkpoint the AO to NBO transformation
                   NBOs sorted by occupancy
       /BNDIDX / : Print bond indices based on the NAO density matrix

 Filename set to /home/rpaton/opt/midi/Gau-792671

 Job title:  arbr31_wb97xd_popncreated by GaussianPrep


 NATURAL POPULATIONS:  Natural atomic orbital occupancies

  NAO Atom No lang   Type(AO)    Occupancy      Energy
 -------------------------------------------------------
   1    O  1  s      Cor( 1s)     1.99989     -19.13783
   2    O  1  s      Val( 2s)     1.69397      -0.73917
   3    O  1  s      Ryd( 3s)     0.00081       1.75743
   4    O  1  px     Val( 2p)     1.76848      -0.32597
   5    O  1  px     Ryd( 3p)     0.00114       1.90412
   6    O  1  py     Val( 2p)     1.69206      -0.32715
   7    O  1  py     Ryd( 3p)     0.00062       1.91298
   8    O  1  pz     Val( 2p)     1.31300      -0.25831
   9    O  1  pz     Ryd( 3p)     0.00026       1.67905
  10    O  1  dxy    Ryd( 3d)     0.00494       2.44245
  11    O  1  dxz    Ryd( 3d)     0.00158       1.90673
  12    O  1  dyz    Ryd( 3d)     0.00260       1.91768
  13    O  1  dx2y2  Ryd( 3d)     0.00361       2.12358
  14    O  1  dz2    Ryd( 3d)     0.00167       2.09631

  15    C  2  s      Cor( 1s)     1.99987     -10.32352
  16    C  2  s      Val( 2s)     0.83309      -0.09192
  17    C  2  s      Ryd( 3s)     0.00444       0.79458
  18    C  2  px     Val( 2p)     0.91950       0.01330
  19    C  2  px     Ryd( 3p)     0.01073       1.07722
  20    C  2  py     Val( 2p)     0.87891       0.02377
  21    C  2  py     Ryd( 3p)     0.01611       1.21064
  22    C  2  pz     Val( 2p)     0.78422      -0.10968
  23    C  2  pz     Ryd( 3p)     0.00176       0.92024

  24    C  3  s      Cor( 1s)     1.99977     -10.24403
  25    C  3  s      Val( 2s)     1.07106      -0.20112
  26    C  3  s      Ryd( 3s)     0.00078       1.23848
  27    C  3  px     Val( 2p)     1.15489      -0.10367
  28    C  3  px     Ryd( 3p)     0.00215       0.99512
  29    C  3  py     Val( 2p)     1.08267      -0.10005
  30    C  3  py     Ryd( 3p)     0.00111       0.96288
  31    C  3  pz     Val( 2p)     1.28442      -0.13453
  32    C  3  pz     Ryd( 3p)     0.00146       1.09945

  33    C  4  s      Cor( 1s)     1.99976     -10.25424
  34    C  4  s      Val( 2s)     1.03722      -0.18057
  35    C  4  s      Ryd( 3s)     0.00045       1.23163
  36    C  4  px     Val( 2p)     1.03072      -0.08483
  37    C  4  px     Ryd( 3p)     0.00196       0.95430
  38    C  4  py     Val( 2p)     1.16479      -0.10489
  39    C  4  py     Ryd( 3p)     0.00176       0.96467
  40    C  4  pz     Val( 2p)     1.27758      -0.13315
  41    C  4  pz     Ryd( 3p)     0.00152       1.10750

  42    C  5  s      Cor( 1s)     1.99990     -10.26634
  43    C  5  s      Val( 2s)     0.85210      -0.04258
  44    C  5  s      Ryd( 3s)     0.00098       0.73635
  45    C  5  px     Val( 2p)     1.09794      -0.04216
  46    C  5  px     Ryd( 3p)     0.00468       1.44193
  47    C  5  py     Val( 2p)     1.07677      -0.04666
  48    C  5  py     Ryd( 3p)     0.00417       1.35184
  49    C  5  pz     Val( 2p)     0.95053      -0.12169
  50    C  5  pz     Ryd( 3p)     0.00093       0.98917

  51    C  6  s      Cor( 1s)     1.99984     -10.25748
  52    C  6  s      Val( 2s)     0.93569      -0.07861
  53    C  6  s      Ryd( 3s)     0.00116       0.71644
  54    C  6  px     Val( 2p)     1.08972      -0.03967
  55    C  6  px     Ryd( 3p)     0.00631       1.03351
  56    C  6  py     Val( 2p)     1.19808      -0.08686
  57    C  6  py     Ryd( 3p)     0.00580       1.31360
  58    C  6  pz     Val( 2p)     1.01315      -0.13420
  59    C  6  pz     Ryd( 3p)     0.00039       0.92608

  60    C  7  s      Cor( 1s)     1.99989     -10.30760
  61    C  7  s      Val( 2s)     0.94046      -0.15744
  62    C  7  s      Ryd( 3s)     0.00056       0.71355
  63    C  7  px     Val( 2p)     0.99943      -0.13580
  64    C  7  px     Ryd( 3p)     0.00668       1.34700
  65    C  7  py     Val( 2p)     1.11312      -0.07271
  66    C  7  py     Ryd( 3p)     0.00756       1.10162
  67    C  7  pz     Val( 2p)     1.04116      -0.16491
  68    C  7  pz     Ryd( 3p)     0.00077       0.93780

  69   Br  8  s      Cor( 3s)     2.00000     -21.13827
  70   Br  8  s      Cor( 1s)     2.00000    -450.77332
  71   Br  8  s      Cor( 2s)     1.99999     -79.72950
  72   Br  8  s      Val( 4s)     1.87014      -0.77601
  73   Br  8  s      Ryd( 5s)     0.00290       0.84375
  74   Br  8  px     Cor( 3p)     2.00000      -7.17139
  75   Br  8  px     Cor( 2p)     1.99999     -55.68832
  76   Br  8  px     Val( 4p)     1.12412      -0.23983
  77   Br  8  px     Ryd( 5p)     0.00354       0.72883
  78   Br  8  py     Cor( 3p)     2.00000      -7.15692
  79   Br  8  py     Cor( 2p)     1.99999     -55.68473
  80   Br  8  py     Val( 4p)     1.96787      -0.36674
  81   Br  8  py     Ryd( 5p)     0.00138       0.76078
  82   Br  8  pz     Cor( 3p)     2.00000      -7.15701
  83   Br  8  pz     Cor( 2p)     2.00000     -55.68471
  84   Br  8  pz     Val( 4p)     1.93777      -0.36320
  85   Br  8  pz     Ryd( 5p)     0.00075       0.72343
  86   Br  8  dxy    Cor( 3d)     1.99968      -2.77987
  87   Br  8  dxy    Ryd( 4d)     0.00095       0.91601
  88   Br  8  dxz    Cor( 3d)     1.99987      -2.77999
  89   Br  8  dxz    Ryd( 4d)     0.00215       0.71160
  90   Br  8  dyz    Cor( 3d)     1.99999      -2.76866
  91   Br  8  dyz    Ryd( 4d)     0.00008       0.64143
  92   Br  8  dx2y2  Cor( 3d)     1.99943      -2.78009
  93   Br  8  dx2y2  Ryd( 4d)     0.00485       0.98818
  94   Br  8  dz2    Cor( 3d)     1.99980      -2.77253
  95   Br  8  dz2    Ryd( 4d)     0.00162       0.75515

  96    C  9  s      Cor( 1s)     1.99986     -10.25576
  97    C  9  s      Val( 2s)     0.94893      -0.09333
  98    C  9  s      Ryd( 3s)     0.00091       0.72885
  99    C  9  px     Val( 2p)     1.13165      -0.05270
 100    C  9  px     Ryd( 3p)     0.00634       1.13505
 101    C  9  py     Val( 2p)     1.15788      -0.07305
 102    C  9  py     Ryd( 3p)     0.00511       1.22863
 103    C  9  pz     Val( 2p)     1.01091      -0.13341
 104    C  9  pz     Ryd( 3p)     0.00044       0.92402

 105    C 10  s      Cor( 1s)     1.99983     -10.25690
 106    C 10  s      Val( 2s)     0.94252      -0.07466
 107    C 10  s      Ryd( 3s)     0.00084       0.72771
 108    C 10  px     Val( 2p)     1.08563      -0.02882
 109    C 10  px     Ryd( 3p)     0.00599       1.08591
 110    C 10  py     Val( 2p)     1.19658      -0.06933
 111    C 10  py     Ryd( 3p)     0.00584       1.30555
 112    C 10  pz     Val( 2p)     0.94529      -0.12051
 113    C 10  pz     Ryd( 3p)     0.00028       0.92615

 114    C 11  s      Cor( 1s)     1.99990     -10.24649
 115    C 11  s      Val( 2s)     0.87266      -0.03758
 116    C 11  s      Ryd( 3s)     0.00181       0.73260
 117    C 11  px     Val( 2p)     1.12405      -0.06364
 118    C 11  px     Ryd( 3p)     0.00459       1.51172
 119    C 11  py     Val( 2p)     1.11008      -0.03735
 120    C 11  py     Ryd( 3p)     0.00445       1.42783
 121    C 11  pz     Val( 2p)     1.04278      -0.12905
 122    C 11  pz     Ryd( 3p)     0.00029       0.99945

 123    H 12  s      Val( 1s)     0.71594       0.12557
 124    H 12  s      Ryd( 2s)     0.00134       0.60862

 125    H 13  s      Val( 1s)     0.71598       0.12555
 126    H 13  s      Ryd( 2s)     0.00134       0.60863

 127    H 14  s      Val( 1s)     0.72436       0.12071
 128    H 14  s      Ryd( 2s)     0.00103       0.60613

 129    H 15  s      Val( 1s)     0.72435       0.12071
 130    H 15  s      Ryd( 2s)     0.00103       0.60614

 131    H 16  s      Val( 1s)     0.73199       0.13207
 132    H 16  s      Ryd( 2s)     0.00123       0.61440

 133    H 17  s      Val( 1s)     0.72993       0.14006
 134    H 17  s      Ryd( 2s)     0.00117       0.61037

 135    H 18  s      Val( 1s)     0.73017       0.14314
 136    H 18  s      Ryd( 2s)     0.00272       0.62098


 Summary of Natural Population Analysis:

                                     Natural Population
             Natural    ---------------------------------------------
  Atom No    Charge        Core      Valence    Rydberg      Total
 --------------------------------------------------------------------
    O  1   -0.48464      1.99989     6.46751    0.01724     8.48464
    C  2    0.55138      1.99987     3.41573    0.03303     5.44862
    C  3   -0.59831      1.99977     4.59305    0.00549     6.59831
    C  4   -0.51575      1.99976     4.51031    0.00569     6.51575
    C  5    0.01199      1.99990     3.97734    0.01076     5.98801
    C  6   -0.25014      1.99984     4.23664    0.01366     6.25014
    C  7   -0.10964      1.99989     4.09418    0.01557     6.10964
   Br  8    0.08313     27.99875     6.89990    0.01821    34.91687
    C  9   -0.26204      1.99986     4.24937    0.01280     6.26204
    C 10   -0.18279      1.99983     4.17001    0.01295     6.18279
    C 11   -0.16060      1.99990     4.14957    0.01114     6.16060
    H 12    0.28273      0.00000     0.71594    0.00134     0.71727
    H 13    0.28268      0.00000     0.71598    0.00134     0.71732
    H 14    0.27461      0.00000     0.72436    0.00103     0.72539
    H 15    0.27462      0.00000     0.72435    0.00103     0.72538
    H 16    0.26678      0.00000     0.73199    0.00123     0.73322
    H 17    0.26890      0.00000     0.72993    0.00117     0.73110
    H 18    0.26711      0.00000     0.73017    0.00272     0.73289
 ====================================================================
 * Total *  0.00000     47.99728    55.83631    0.16641   104.00000

                                 Natural Population
 ---------------------------------------------------------
   Core                      47.99728 ( 99.9943% of   48)
   Valence                   55.83631 ( 99.7077% of   56)
   Natural Minimal Basis    103.83359 ( 99.8400% of  104)
   Natural Rydberg Basis      0.16641 (  0.1600% of  104)
 ---------------------------------------------------------

    Atom No         Natural Electron Configuration
 ----------------------------------------------------------------------------
      O  1      [core]2s( 1.69)2p( 4.77)3d( 0.01)
      C  2      [core]2s( 0.83)2p( 2.58)3p( 0.03)
      C  3      [core]2s( 1.07)2p( 3.52)
      C  4      [core]2s( 1.04)2p( 3.47)3p( 0.01)
      C  5      [core]2s( 0.85)2p( 3.13)3p( 0.01)
      C  6      [core]2s( 0.94)2p( 3.30)3p( 0.01)
      C  7      [core]2s( 0.94)2p( 3.15)3p( 0.02)
     Br  8      [core]4s( 1.87)4p( 5.03)4d( 0.01)5p( 0.01)
      C  9      [core]2s( 0.95)2p( 3.30)3p( 0.01)
      C 10      [core]2s( 0.94)2p( 3.23)3p( 0.01)
      C 11      [core]2s( 0.87)2p( 3.28)3p( 0.01)
      H 12            1s( 0.72)
      H 13            1s( 0.72)
      H 14            1s( 0.72)
      H 15            1s( 0.72)
      H 16            1s( 0.73)
      H 17            1s( 0.73)
      H 18            1s( 0.73)


 Wiberg bond index matrix in the NAO basis:

     Atom    1       2       3       4       5       6       7       8       9
     ---- ------  ------  ------  ------  ------  ------  ------  ------  ------
   1.  O  0.0000  1.8400  0.0708  0.0081  0.0339  0.0010  0.0154  0.0027  0.0008
   2.  C  1.8400  0.0000  0.9645  0.0090  0.0216  0.0057  0.0046  0.0017  0.0076
   3.  C  0.0708  0.9645  0.0000  1.0029  0.0049  0.0039  0.0005  0.0004  0.0003
   4.  C  0.0081  0.0090  1.0029  0.0000  1.0011  0.0124  0.0065  0.0012  0.0011
   5.  C  0.0339  0.0216  0.0049  1.0011  0.0000  1.3956  0.0147  0.0120  0.0998
   6.  C  0.0010  0.0057  0.0039  0.0124  1.3956  0.0000  1.4163  0.0377  0.0146
   7.  C  0.0154  0.0046  0.0005  0.0065  0.0147  1.4163  0.0000  1.0417  1.3842
   8. Br  0.0027  0.0017  0.0004  0.0012  0.0120  0.0377  1.0417  0.0000  0.0350
   9.  C  0.0008  0.0076  0.0003  0.0011  0.0998  0.0146  1.3842  0.0350  0.0000
  10.  C  0.0268  0.0152  0.0048  0.0063  0.0159  0.1087  0.0143  0.0125  1.4540
  11.  C  0.0562  1.0145  0.0073  0.0099  1.3562  0.0135  0.0907  0.0119  0.0111
  12.  H  0.0101  0.0045  0.8939  0.0019  0.0029  0.0001  0.0006  0.0002  0.0001
  13.  H  0.0101  0.0045  0.8940  0.0019  0.0029  0.0001  0.0006  0.0002  0.0001
  14.  H  0.0019  0.0023  0.0023  0.8968  0.0022  0.0051  0.0000  0.0000  0.0031
  15.  H  0.0019  0.0023  0.0023  0.8968  0.0022  0.0051  0.0000  0.0000  0.0031
  16.  H  0.0006  0.0003  0.0001  0.0025  0.0052  0.8994  0.0042  0.0048  0.0058
  17.  H  0.0002  0.0002  0.0004  0.0002  0.0002  0.0056  0.0040  0.0047  0.9006
  18.  H  0.0061  0.0020  0.0012  0.0003  0.0066  0.0001  0.0058  0.0010  0.0043

     Atom   10      11      12      13      14      15      16      17      18
     ---- ------  ------  ------  ------  ------  ------  ------  ------  ------
   1.  O  0.0268  0.0562  0.0101  0.0101  0.0019  0.0019  0.0006  0.0002  0.0061
   2.  C  0.0152  1.0145  0.0045  0.0045  0.0023  0.0023  0.0003  0.0002  0.0020
   3.  C  0.0048  0.0073  0.8939  0.8940  0.0023  0.0023  0.0001  0.0004  0.0012
   4.  C  0.0063  0.0099  0.0019  0.0019  0.8968  0.8968  0.0025  0.0002  0.0003
   5.  C  0.0159  1.3562  0.0029  0.0029  0.0022  0.0022  0.0052  0.0002  0.0066
   6.  C  0.1087  0.0135  0.0001  0.0001  0.0051  0.0051  0.8994  0.0056  0.0001
   7.  C  0.0143  0.0907  0.0006  0.0006  0.0000  0.0000  0.0042  0.0040  0.0058
   8. Br  0.0125  0.0119  0.0002  0.0002  0.0000  0.0000  0.0048  0.0047  0.0010
   9.  C  1.4540  0.0111  0.0001  0.0001  0.0031  0.0031  0.0058  0.9006  0.0043
  10.  C  0.0000  1.3595  0.0005  0.0005  0.0001  0.0001  0.0002  0.0050  0.8978
  11.  C  1.3595  0.0000  0.0025  0.0025  0.0081  0.0081  0.0067  0.0060  0.0049
  12.  H  0.0005  0.0025  0.0000  0.0013  0.0014  0.0020  0.0000  0.0000  0.0000
  13.  H  0.0005  0.0025  0.0013  0.0000  0.0020  0.0014  0.0000  0.0000  0.0000
  14.  H  0.0001  0.0081  0.0014  0.0020  0.0000  0.0008  0.0001  0.0000  0.0001
  15.  H  0.0001  0.0081  0.0020  0.0014  0.0008  0.0000  0.0001  0.0000  0.0001
  16.  H  0.0002  0.0067  0.0000  0.0000  0.0001  0.0001  0.0000  0.0003  0.0003
  17.  H  0.0050  0.0060  0.0000  0.0000  0.0000  0.0000  0.0003  0.0000  0.0021
  18.  H  0.8978  0.0049  0.0000  0.0000  0.0001  0.0001  0.0003  0.0021  0.0000


 Wiberg bond index, Totals by atom:

     Atom    1
     ---- ------
   1.  O  2.0865
   2.  C  3.9004
   3.  C  3.8543
   4.  C  3.8588
   5.  C  3.9777
   6.  C  3.9248
   7.  C  4.0043
   8. Br  1.1677
   9.  C  3.9256
  10.  C  3.9218
  11.  C  3.9695
  12.  H  0.9220
  13.  H  0.9220
  14.  H  0.9261
  15.  H  0.9261
  16.  H  0.9306
  17.  H  0.9294
  18.  H  0.9326


 NBI: Natural Binding Index (NCU strength parameters)

     Atom    1       2       3       4       5       6       7       8       9
     ---- ------  ------  ------  ------  ------  ------  ------  ------  ------
   1.  O  0.0000  1.3565  0.2661  0.0897  0.1841  0.0312  0.1242  0.0521  0.0290
   2.  C  1.3565  0.0000  0.9821  0.0948  0.1468  0.0752  0.0682  0.0412  0.0874
   3.  C  0.2661  0.9821  0.0000  1.0015  0.0696  0.0628  0.0221  0.0210  0.0167
   4.  C  0.0897  0.0948  1.0015  0.0000  1.0005  0.1114  0.0808  0.0346  0.0332
   5.  C  0.1841  0.1468  0.0696  1.0005  0.0000  1.1813  0.1212  0.1097  0.3158
   6.  C  0.0312  0.0752  0.0628  0.1114  1.1813  0.0000  1.1901  0.1943  0.1209
   7.  C  0.1242  0.0682  0.0221  0.0808  0.1212  1.1901  0.0000  1.0207  1.1765
   8. Br  0.0521  0.0412  0.0210  0.0346  0.1097  0.1943  1.0207  0.0000  0.1870
   9.  C  0.0290  0.0874  0.0167  0.0332  0.3158  0.1209  1.1765  0.1870  0.0000
  10.  C  0.1638  0.1233  0.0691  0.0792  0.1259  0.3297  0.1196  0.1116  1.2058
  11.  C  0.2371  1.0072  0.0854  0.0996  1.1645  0.1163  0.3011  0.1092  0.1052
  12.  H  0.1004  0.0672  0.9455  0.0436  0.0539  0.0073  0.0249  0.0123  0.0119
  13.  H  0.1004  0.0672  0.9455  0.0436  0.0539  0.0073  0.0249  0.0123  0.0119
  14.  H  0.0432  0.0481  0.0475  0.9470  0.0472  0.0715  0.0064  0.0032  0.0552
  15.  H  0.0433  0.0482  0.0475  0.9470  0.0472  0.0714  0.0064  0.0032  0.0552
  16.  H  0.0245  0.0162  0.0088  0.0497  0.0720  0.9484  0.0652  0.0695  0.0764
  17.  H  0.0139  0.0130  0.0197  0.0145  0.0142  0.0747  0.0630  0.0683  0.9490
  18.  H  0.0781  0.0448  0.0340  0.0168  0.0815  0.0099  0.0760  0.0309  0.0655

     Atom   10      11      12      13      14      15      16      17      18
     ---- ------  ------  ------  ------  ------  ------  ------  ------  ------
   1.  O  0.1638  0.2371  0.1004  0.1004  0.0432  0.0433  0.0245  0.0139  0.0781
   2.  C  0.1233  1.0072  0.0672  0.0672  0.0481  0.0482  0.0162  0.0130  0.0448
   3.  C  0.0691  0.0854  0.9455  0.9455  0.0475  0.0475  0.0088  0.0197  0.0340
   4.  C  0.0792  0.0996  0.0436  0.0436  0.9470  0.9470  0.0497  0.0145  0.0168
   5.  C  0.1259  1.1645  0.0539  0.0539  0.0472  0.0472  0.0720  0.0142  0.0815
   6.  C  0.3297  0.1163  0.0073  0.0073  0.0715  0.0714  0.9484  0.0747  0.0099
   7.  C  0.1196  0.3011  0.0249  0.0249  0.0064  0.0064  0.0652  0.0630  0.0760
   8. Br  0.1116  0.1092  0.0123  0.0123  0.0032  0.0032  0.0695  0.0683  0.0309
   9.  C  1.2058  0.1052  0.0119  0.0119  0.0552  0.0552  0.0764  0.9490  0.0655
  10.  C  0.0000  1.1660  0.0216  0.0216  0.0077  0.0077  0.0125  0.0704  0.9475
  11.  C  1.1660  0.0000  0.0504  0.0504  0.0898  0.0898  0.0820  0.0773  0.0697
  12.  H  0.0216  0.0504  0.0000  0.0359  0.0369  0.0444  0.0036  0.0034  0.0045
  13.  H  0.0216  0.0504  0.0359  0.0000  0.0444  0.0368  0.0036  0.0034  0.0045
  14.  H  0.0077  0.0898  0.0369  0.0444  0.0000  0.0274  0.0104  0.0011  0.0106
  15.  H  0.0077  0.0898  0.0444  0.0368  0.0274  0.0000  0.0104  0.0011  0.0107
  16.  H  0.0125  0.0820  0.0036  0.0036  0.0104  0.0104  0.0000  0.0173  0.0177
  17.  H  0.0704  0.0773  0.0034  0.0034  0.0011  0.0011  0.0173  0.0000  0.0462
  18.  H  0.9475  0.0697  0.0045  0.0045  0.0106  0.0107  0.0177  0.0462  0.0000


 NATURAL BOND ORBITAL ANALYSIS:

                            Occupancies       Lewis Structure    Low   High
         Max    Occ     -------------------  -----------------   occ   occ
  Cycle  Ctr   Thresh    Lewis   non-Lewis     CR  BD  nC  LP    (L)   (NL)
 ============================================================================
    1     2     1.90    99.56535   4.43465     24  20   0   8     4      6
    2     2     1.86   100.45627   3.54373     24  20   0   8     3      4
    3     2     1.68   101.09636   2.90364     24  21   0   7     2      4
    4     2     1.66   101.75160   2.24840     24  22   0   6     1      4
    5     2     1.65   101.75160   2.24840     24  22   0   6     1      4
    6     2     1.63   101.75160   2.24840     24  22   0   6     1      4
    7     2     1.62   102.33514   1.66486     24  23   0   5     0      4
    8     2     1.61   102.33514   1.66486     24  23   0   5     0      4
    9     2     1.62   102.33514   1.66486     24  23   0   5     0      4
 ----------------------------------------------------------------------------

 Structure accepted: No low occupancy Lewis orbitals

 -------------------------------------------------------
   Core                     47.99728 ( 99.994% of  48)
   Valence Lewis            54.33786 ( 97.032% of  56)
  ==================      =============================
   Total Lewis             102.33514 ( 98.399% of 104)
  -----------------------------------------------------
   Valence non-Lewis         1.55560 (  1.496% of 104)
   Rydberg non-Lewis         0.10926 (  0.105% of 104)
  ==================      =============================
   Total non-Lewis           1.66486 (  1.601% of 104)
 -------------------------------------------------------


     (Occupancy)   Bond orbital / Coefficients / Hybrids
 ------------------ Lewis ------------------------------------------------------
   1. (1.99989) CR ( 1) O  1            s(100.00%)
                                         1.0000  0.0000  0.0000  0.0000  0.0000
                                         0.0000  0.0000  0.0000  0.0000  0.0000
                                         0.0000  0.0000  0.0000  0.0000
   2. (1.99987) CR ( 1) C  2            s(100.00%)
                                         1.0000  0.0000  0.0000  0.0000  0.0000
                                         0.0000  0.0000  0.0000  0.0000
   3. (1.99977) CR ( 1) C  3            s(100.00%)
                                         1.0000  0.0000  0.0000  0.0000  0.0000
                                         0.0000  0.0000  0.0000  0.0000
   4. (1.99976) CR ( 1) C  4            s(100.00%)
                                         1.0000  0.0000  0.0000  0.0000  0.0000
                                         0.0000  0.0000  0.0000  0.0000
   5. (1.99990) CR ( 1) C  5            s(100.00%)
                                         1.0000  0.0000  0.0000  0.0000  0.0000
                                         0.0000  0.0000  0.0000  0.0000
   6. (1.99984) CR ( 1) C  6            s(100.00%)
                                         1.0000  0.0000  0.0000  0.0000  0.0000
                                         0.0000  0.0000  0.0000  0.0000
   7. (1.99989) CR ( 1) C  7            s(100.00%)
                                         1.0000  0.0000  0.0000  0.0000  0.0000
                                         0.0000  0.0000  0.0000  0.0000
   8. (2.00000) CR ( 1)Br  8            s(100.00%)
                                         1.0000  0.0000  0.0000  0.0000  0.0000
                                         0.0000  0.0000  0.0000  0.0000  0.0000
                                         0.0000  0.0000  0.0000  0.0000  0.0000
                                         0.0000  0.0000  0.0000  0.0000  0.0000
                                         0.0000  0.0000  0.0000  0.0000  0.0000
                                         0.0000  0.0000
   9. (2.00000) CR ( 2)Br  8            s(100.00%)
                                         0.0000  1.0000  0.0000  0.0000  0.0000
                                         0.0000  0.0000  0.0000  0.0000  0.0000
                                         0.0000  0.0000  0.0000  0.0000  0.0000
                                         0.0000  0.0000  0.0000  0.0000  0.0000
                                         0.0000  0.0000  0.0000  0.0000  0.0000
                                         0.0000  0.0000
  10. (1.99999) CR ( 3)Br  8            s(100.00%)
                                         0.0000  0.0000  1.0000  0.0000  0.0000
                                         0.0000  0.0000  0.0000  0.0000  0.0000
                                         0.0000  0.0000  0.0000  0.0000  0.0000
                                         0.0000  0.0000  0.0000  0.0000  0.0000
                                         0.0000  0.0000  0.0000  0.0000  0.0000
                                         0.0000  0.0000
  11. (2.00000) CR ( 4)Br  8            s(  0.00%)p 1.00(100.00%)
                                         0.0000  0.0000  0.0000  0.0000  0.0000
                                         1.0000  0.0000  0.0000  0.0000  0.0000
                                         0.0000  0.0000  0.0000  0.0000  0.0000
                                         0.0000  0.0000  0.0000  0.0000  0.0000
                                         0.0000  0.0000  0.0000  0.0000  0.0000
                                         0.0000  0.0000
  12. (1.99999) CR ( 5)Br  8            s(  0.00%)p 1.00(100.00%)
                                         0.0000  0.0000  0.0000  0.0000  0.0000
                                         0.0000  1.0000  0.0000  0.0000  0.0000
                                         0.0000  0.0000  0.0000  0.0000  0.0000
                                         0.0000  0.0000  0.0000  0.0000  0.0000
                                         0.0000  0.0000  0.0000  0.0000  0.0000
                                         0.0000  0.0000
  13. (2.00000) CR ( 6)Br  8            s(  0.00%)p 1.00(100.00%)
                                         0.0000  0.0000  0.0000  0.0000  0.0000
                                         0.0000  0.0000  0.0000  0.0000  1.0000
                                         0.0000  0.0000  0.0000  0.0000  0.0000
                                         0.0000  0.0000  0.0000  0.0000  0.0000
                                         0.0000  0.0000  0.0000  0.0000  0.0000
                                         0.0000  0.0000
  14. (1.99999) CR ( 7)Br  8            s(  0.00%)p 1.00(100.00%)
                                         0.0000  0.0000  0.0000  0.0000  0.0000
                                         0.0000  0.0000  0.0000  0.0000  0.0000
                                         1.0000  0.0000  0.0000  0.0000  0.0000
                                         0.0000  0.0000  0.0000  0.0000  0.0000
                                         0.0000  0.0000  0.0000  0.0000  0.0000
                                         0.0000  0.0000
  15. (2.00000) CR ( 8)Br  8            s(  0.00%)p 1.00(100.00%)
                                         0.0000  0.0000  0.0000  0.0000  0.0000
                                         0.0000  0.0000  0.0000  0.0000  0.0000
                                         0.0000  0.0000  0.0000  1.0000  0.0000
                                         0.0000  0.0000  0.0000  0.0000  0.0000
                                         0.0000  0.0000  0.0000  0.0000  0.0000
                                         0.0000  0.0000
  16. (2.00000) CR ( 9)Br  8            s(  0.00%)p 1.00(100.00%)
                                         0.0000  0.0000  0.0000  0.0000  0.0000
                                         0.0000  0.0000  0.0000  0.0000  0.0000
                                         0.0000  0.0000  0.0000  0.0000  1.0000
                                         0.0000  0.0000  0.0000  0.0000  0.0000
                                         0.0000  0.0000  0.0000  0.0000  0.0000
                                         0.0000  0.0000
  17. (1.99968) CR (10)Br  8            s(  0.00%)p 0.00(  0.00%)d 1.00(100.00%)
                                         0.0000  0.0000  0.0000  0.0000  0.0000
                                         0.0000  0.0000  0.0000  0.0000  0.0000
                                         0.0000  0.0000  0.0000  0.0000  0.0000
                                         0.0000  0.0000  1.0000  0.0000  0.0000
                                         0.0000  0.0000  0.0000  0.0000  0.0000
                                         0.0000  0.0000
  18. (1.99987) CR (11)Br  8            s(  0.00%)p 0.00(  0.00%)d 1.00(100.00%)
                                         0.0000  0.0000  0.0000  0.0000  0.0000
                                         0.0000  0.0000  0.0000  0.0000  0.0000
                                         0.0000  0.0000  0.0000  0.0000  0.0000
                                         0.0000  0.0000  0.0000  0.0000  1.0000
                                         0.0000  0.0000  0.0000  0.0000  0.0000
                                         0.0000  0.0000
  19. (1.99999) CR (12)Br  8            s(  0.00%)p 0.00(  0.00%)d 1.00(100.00%)
                                         0.0000  0.0000  0.0000  0.0000  0.0000
                                         0.0000  0.0000  0.0000  0.0000  0.0000
                                         0.0000  0.0000  0.0000  0.0000  0.0000
                                         0.0000  0.0000  0.0000  0.0000  0.0000
                                         0.0000  1.0000  0.0000  0.0000  0.0000
                                         0.0000  0.0000
  20. (1.99943) CR (13)Br  8            s(  0.00%)p 0.00(  0.00%)d 1.00(100.00%)
                                         0.0000  0.0000  0.0000  0.0000  0.0000
                                         0.0000  0.0000  0.0000  0.0000  0.0000
                                         0.0000  0.0000  0.0000  0.0000  0.0000
                                         0.0000  0.0000  0.0000  0.0000  0.0000
                                         0.0000  0.0000  0.0000  1.0000  0.0000
                                         0.0000  0.0000
  21. (1.99980) CR (14)Br  8            s(  0.00%)p 0.00(  0.00%)d 1.00(100.00%)
                                         0.0000  0.0000  0.0000  0.0000  0.0000
                                         0.0000  0.0000  0.0000  0.0000  0.0000
                                         0.0000  0.0000  0.0000  0.0000  0.0000
                                         0.0000  0.0000  0.0000  0.0000  0.0000
                                         0.0000  0.0000  0.0000  0.0000  0.0000
                                         1.0000  0.0000
  22. (1.99986) CR ( 1) C  9            s(100.00%)
                                         1.0000  0.0000  0.0000  0.0000  0.0000
                                         0.0000  0.0000  0.0000  0.0000
  23. (1.99983) CR ( 1) C 10            s(100.00%)
                                         1.0000  0.0000  0.0000  0.0000  0.0000
                                         0.0000  0.0000  0.0000  0.0000
  24. (1.99990) CR ( 1) C 11            s(100.00%)
                                         1.0000  0.0000  0.0000  0.0000  0.0000
                                         0.0000  0.0000  0.0000  0.0000
  25. (1.98088) LP ( 1) O  1            s( 57.03%)p 0.75( 42.91%)d 0.00(  0.07%)
                                         0.0000  0.7551 -0.0072  0.4223 -0.0012
                                        -0.5007  0.0012  0.0004  0.0000  0.0205
                                         0.0000  0.0000  0.0038  0.0151
  26. (1.86995) LP ( 2) O  1            s(  0.06%)p99.99( 99.76%)d 3.14(  0.18%)
                                         0.0000  0.0241 -0.0017 -0.7811  0.0030
                                        -0.6224  0.0022 -0.0002  0.0000 -0.0099
                                         0.0000  0.0000  0.0417 -0.0001
  27. (1.99726) LP ( 1)Br  8            s( 87.38%)p 0.14( 12.62%)d 0.00(  0.00%)
                                         0.0000  0.0000  0.0000  0.9347 -0.0096
                                         0.0000  0.0000 -0.3524 -0.0137  0.0000
                                         0.0000  0.0420  0.0016  0.0000  0.0000
                                         0.0000  0.0000  0.0000  0.0009  0.0000
                                         0.0000  0.0000  0.0000  0.0000 -0.0039
                                         0.0000  0.0010
  28. (1.98181) LP ( 2)Br  8            s(  0.00%)p 1.00( 99.98%)d 0.00(  0.02%)
                                         0.0000  0.0000  0.0000  0.0012 -0.0003
                                         0.0000  0.0000  0.1216 -0.0021  0.0000
                                         0.0000  0.9923 -0.0162  0.0000  0.0000
                                        -0.0001  0.0000  0.0000  0.0145  0.0000
                                         0.0000  0.0000  0.0000  0.0000  0.0035
                                         0.0000 -0.0001
  29. (1.93874) LP ( 3)Br  8            s(  0.00%)p 1.00( 99.97%)d 0.00(  0.03%)
                                         0.0000  0.0000  0.0000  0.0000  0.0000
                                         0.0000  0.0000  0.0001  0.0000  0.0000
                                         0.0000  0.0001  0.0000  0.0000  0.0000
                                         0.9998 -0.0140  0.0000  0.0000  0.0000
                                         0.0173  0.0000 -0.0020  0.0000  0.0000
                                         0.0000  0.0000
  30. (1.99793) BD ( 1) O  1- C  2
               ( 65.64%)   0.8102* O  1 s( 42.88%)p 1.32( 56.71%)d 0.01(  0.41%)
                                         0.0000  0.6547  0.0129 -0.4569  0.0032
                                         0.5986 -0.0036 -0.0009  0.0000 -0.0544
                                         0.0001 -0.0001 -0.0142 -0.0302
               ( 34.36%)   0.5862* C  2 s( 32.47%)p 2.08( 67.53%)
                                         0.0000  0.5680  0.0449  0.5073  0.0570
                                        -0.6405 -0.0671  0.0003  0.0001
  31. (1.98012) BD ( 2) O  1- C  2
               ( 64.32%)   0.8020* O  1 s(  0.00%)p 1.00( 99.67%)d 0.00(  0.33%)
                                         0.0000  0.0003  0.0000 -0.0007  0.0000
                                         0.0006  0.0000  0.9983  0.0122 -0.0001
                                        -0.0352  0.0450  0.0000 -0.0001
               ( 35.68%)   0.5973* C  2 s(  0.00%)p 1.00(100.00%)
                                         0.0000 -0.0002  0.0000 -0.0003  0.0001
                                         0.0001 -0.0001  0.9991 -0.0418
  32. (1.98690) BD ( 1) C  2- C  3
               ( 47.68%)   0.6905* C  2 s( 32.60%)p 2.07( 67.40%)
                                         0.0000  0.5705 -0.0246  0.3135  0.0285
                                         0.7578 -0.0258  0.0002  0.0000
               ( 52.32%)   0.7233* C  3 s( 24.36%)p 3.11( 75.64%)
                                         0.0000  0.4935 -0.0016 -0.2154  0.0161
                                        -0.8424 -0.0097 -0.0006  0.0000
  33. (1.97933) BD ( 1) C  2- C 11
               ( 46.76%)   0.6838* C  2 s( 34.50%)p 1.90( 65.50%)
                                         0.0000  0.5873 -0.0053 -0.8012 -0.0008
                                        -0.1116 -0.0245 -0.0001  0.0000
               ( 53.24%)   0.7296* C 11 s( 30.17%)p 2.31( 69.83%)
                                         0.0000  0.5492 -0.0073  0.8334 -0.0142
                                        -0.0563 -0.0192 -0.0003  0.0000
  34. (1.98567) BD ( 1) C  3- C  4
               ( 49.63%)   0.7045* C  3 s( 26.51%)p 2.77( 73.49%)
                                         0.0000  0.5148  0.0074 -0.7083  0.0012
                                         0.4825  0.0199 -0.0001  0.0000
               ( 50.37%)   0.7097* C  4 s( 25.62%)p 2.90( 74.38%)
                                         0.0000  0.5062  0.0025  0.7564  0.0127
                                        -0.4137  0.0168  0.0001  0.0000
  35. (1.97477) BD ( 1) C  3- H 12
               ( 63.96%)   0.7998* C  3 s( 24.56%)p 3.07( 75.44%)
                                         0.0000  0.4956 -0.0007  0.4749  0.0034
                                         0.1685  0.0031  0.7073 -0.0107
               ( 36.04%)   0.6003* H 12 s(100.00%)
                                         1.0000  0.0003
  36. (1.97479) BD ( 1) C  3- H 13
               ( 63.96%)   0.7997* C  3 s( 24.55%)p 3.07( 75.45%)
                                         0.0000  0.4955 -0.0007  0.4756  0.0034
                                         0.1692  0.0031 -0.7067  0.0107
               ( 36.04%)   0.6003* H 13 s(100.00%)
                                         1.0000  0.0003
  37. (1.97643) BD ( 1) C  4- C  5
               ( 48.99%)   0.7000* C  4 s( 25.85%)p 2.87( 74.15%)
                                         0.0000  0.5084  0.0095 -0.6490 -0.0223
                                        -0.5655 -0.0029 -0.0001  0.0000
               ( 51.01%)   0.7142* C  5 s( 30.68%)p 2.26( 69.32%)
                                         0.0000  0.5539 -0.0085  0.5486 -0.0313
                                         0.6255  0.0030  0.0000  0.0000
  38. (1.97829) BD ( 1) C  4- H 14
               ( 63.70%)   0.7981* C  4 s( 24.26%)p 3.12( 75.74%)
                                         0.0000  0.4926 -0.0042 -0.0537  0.0034
                                         0.5045  0.0028 -0.7070  0.0129
               ( 36.30%)   0.6025* H 14 s(100.00%)
                                         1.0000  0.0013
  39. (1.97828) BD ( 1) C  4- H 15
               ( 63.70%)   0.7981* C  4 s( 24.26%)p 3.12( 75.74%)
                                         0.0000  0.4925 -0.0042 -0.0540  0.0034
                                         0.5044  0.0028  0.7070 -0.0129
               ( 36.30%)   0.6025* H 15 s(100.00%)
                                         1.0000  0.0013
  40. (1.97065) BD ( 1) C  5- C  6
               ( 50.84%)   0.7130* C  5 s( 36.27%)p 1.76( 63.73%)
                                         0.0000  0.6022  0.0099 -0.7831 -0.0014
                                         0.1536  0.0223  0.0001  0.0000
               ( 49.16%)   0.7012* C  6 s( 35.63%)p 1.81( 64.37%)
                                         0.0000  0.5968  0.0098  0.7978  0.0246
                                        -0.0776  0.0241  0.0000  0.0000
  41. (1.96699) BD ( 1) C  5- C 11
               ( 49.96%)   0.7068* C  5 s( 33.03%)p 2.03( 66.97%)
                                         0.0000  0.5747  0.0002  0.2917  0.0038
                                        -0.7645 -0.0115 -0.0001  0.0000
               ( 50.04%)   0.7074* C 11 s( 33.45%)p 1.99( 66.55%)
                                         0.0000  0.5783  0.0042 -0.3306 -0.0045
                                         0.7458  0.0070  0.0000  0.0000
  42. (1.62632) BD ( 2) C  5- C 11
               ( 46.34%)   0.6807* C  5 s(  0.00%)p 1.00(100.00%)
                                         0.0000  0.0000  0.0000  0.0001  0.0000
                                        -0.0001  0.0000  1.0000  0.0014
               ( 53.66%)   0.7325* C 11 s(  0.00%)p 1.00(100.00%)
                                         0.0000  0.0002  0.0000  0.0003  0.0000
                                         0.0000  0.0000  1.0000  0.0013
  43. (1.97980) BD ( 1) C  6- C  7
               ( 49.14%)   0.7010* C  6 s( 34.72%)p 1.88( 65.28%)
                                         0.0000  0.5891  0.0127 -0.5013 -0.0390
                                        -0.6324  0.0048  0.0000  0.0000
               ( 50.86%)   0.7131* C  7 s( 38.93%)p 1.57( 61.07%)
                                         0.0000  0.6239  0.0043  0.4171  0.0003
                                         0.6602  0.0296 -0.0001  0.0000
  44. (1.68344) BD ( 2) C  6- C  7
               ( 48.94%)   0.6995* C  6 s(  0.00%)p 1.00(100.00%)
                                         0.0000  0.0000  0.0000  0.0000  0.0000
                                         0.0000  0.0000  1.0000 -0.0049
               ( 51.06%)   0.7146* C  7 s(  0.00%)p 1.00(100.00%)
                                         0.0000  0.0000  0.0000  0.0001  0.0000
                                         0.0001  0.0000  1.0000  0.0051
  45. (1.98186) BD ( 1) C  6- H 16
               ( 63.47%)   0.7967* C  6 s( 29.69%)p 2.37( 70.31%)
                                         0.0000  0.5447 -0.0149 -0.3321  0.0108
                                         0.7695 -0.0225  0.0000  0.0000
               ( 36.53%)   0.6044* H 16 s(100.00%)
                                         1.0000  0.0029
  46. (1.98751) BD ( 1) C  7-Br  8
               ( 50.47%)   0.7104* C  7 s( 22.27%)p 3.49( 77.73%)
                                         0.0000  0.4718 -0.0090 -0.8740  0.0463
                                         0.1066 -0.0060  0.0000  0.0000
               ( 49.53%)   0.7038*Br  8 s( 12.82%)p 6.75( 86.54%)d 0.05(  0.64%)
                                         0.0000  0.0000  0.0000  0.3543  0.0514
                                         0.0000  0.0000  0.9217  0.0548  0.0000
                                         0.0000 -0.1134 -0.0068  0.0000  0.0000
                                        -0.0001  0.0000  0.0000 -0.0167  0.0000
                                         0.0000  0.0000  0.0000  0.0000  0.0673
                                         0.0000 -0.0394
  47. (1.98102) BD ( 1) C  7- C  9
               ( 51.14%)   0.7151* C  7 s( 38.78%)p 1.58( 61.22%)
                                         0.0000  0.6227  0.0045  0.2454 -0.0067
                                        -0.7424 -0.0287  0.0001  0.0000
               ( 48.86%)   0.6990* C  9 s( 34.46%)p 1.90( 65.54%)
                                         0.0000  0.5869  0.0137 -0.3282 -0.0375
                                         0.7390  0.0074  0.0000  0.0000
  48. (1.97441) BD ( 1) C  9- C 10
               ( 50.21%)   0.7086* C  9 s( 35.77%)p 1.80( 64.23%)
                                         0.0000  0.5980  0.0060  0.7912  0.0159
                                        -0.1225 -0.0322  0.0000  0.0000
               ( 49.79%)   0.7056* C 10 s( 35.36%)p 1.83( 64.64%)
                                         0.0000  0.5946  0.0074 -0.7998 -0.0213
                                         0.0737 -0.0293  0.0001  0.0000
  49. (1.66629) BD ( 2) C  9- C 10
               ( 52.39%)   0.7238* C  9 s(  0.00%)p 1.00(100.00%)
                                         0.0000  0.0000  0.0000  0.0000  0.0000
                                        -0.0001  0.0000 -0.9999  0.0122
               ( 47.61%)   0.6900* C 10 s(  0.00%)p 1.00(100.00%)
                                         0.0000  0.0000  0.0000 -0.0001  0.0000
                                         0.0000  0.0000 -0.9999  0.0101
  50. (1.98256) BD ( 1) C  9- H 17
               ( 63.54%)   0.7971* C  9 s( 29.80%)p 2.36( 70.20%)
                                         0.0000  0.5458 -0.0141 -0.5144  0.0177
                                        -0.6609  0.0158  0.0001  0.0000
               ( 36.46%)   0.6038* H 17 s(100.00%)
                                         1.0000  0.0026
  51. (1.97382) BD ( 1) C 10- C 11
               ( 48.68%)   0.6977* C 10 s( 34.91%)p 1.86( 65.09%)
                                         0.0000  0.5908  0.0121  0.4968  0.0343
                                         0.6347  0.0044 -0.0001  0.0000
               ( 51.32%)   0.7164* C 11 s( 36.38%)p 1.75( 63.62%)
                                         0.0000  0.6030  0.0116 -0.4422  0.0119
                                        -0.6635 -0.0147  0.0001  0.0000
  52. (1.98205) BD ( 1) C 10- H 18
               ( 63.59%)   0.7974* C 10 s( 29.76%)p 2.36( 70.24%)
                                         0.0000  0.5454 -0.0136  0.3340 -0.0118
                                        -0.7682  0.0225  0.0000  0.0000
               ( 36.41%)   0.6034* H 18 s(100.00%)
                                         1.0000  0.0047
 ---------------- non-Lewis ----------------------------------------------------
  53. (0.00820) BD*( 1) O  1- C  2
               ( 34.36%)   0.5862* O  1 s( 42.88%)p 1.32( 56.71%)d 0.01(  0.41%)
                                         0.0000 -0.6547 -0.0129  0.4569 -0.0032
                                        -0.5986  0.0036  0.0009  0.0000  0.0544
                                        -0.0001  0.0001  0.0142  0.0302
               ( 65.64%)  -0.8102* C  2 s( 32.47%)p 2.08( 67.53%)
                                         0.0000 -0.5680 -0.0449 -0.5073 -0.0570
                                         0.6405  0.0671 -0.0003 -0.0001
  54. (0.12218) BD*( 2) O  1- C  2
               ( 35.68%)   0.5973* O  1 s(  0.00%)p 1.00( 99.67%)d 0.00(  0.33%)
                                         0.0000  0.0003  0.0000 -0.0007  0.0000
                                         0.0006  0.0000  0.9983  0.0122 -0.0001
                                        -0.0352  0.0450  0.0000 -0.0001
               ( 64.32%)  -0.8020* C  2 s(  0.00%)p 1.00(100.00%)
                                         0.0000 -0.0002  0.0000 -0.0003  0.0001
                                         0.0001 -0.0001  0.9991 -0.0418
  55. (0.07229) BD*( 1) C  2- C  3
               ( 52.32%)   0.7233* C  2 s( 32.60%)p 2.07( 67.40%)
                                         0.0000  0.5705 -0.0246  0.3135  0.0285
                                         0.7578 -0.0258  0.0002  0.0000
               ( 47.68%)  -0.6905* C  3 s( 24.36%)p 3.11( 75.64%)
                                         0.0000  0.4935 -0.0016 -0.2154  0.0161
                                        -0.8424 -0.0097 -0.0006  0.0000
  56. (0.07081) BD*( 1) C  2- C 11
               ( 53.24%)   0.7296* C  2 s( 34.50%)p 1.90( 65.50%)
                                         0.0000  0.5873 -0.0053 -0.8012 -0.0008
                                        -0.1116 -0.0245 -0.0001  0.0000
               ( 46.76%)  -0.6838* C 11 s( 30.17%)p 2.31( 69.83%)
                                         0.0000  0.5492 -0.0073  0.8334 -0.0142
                                        -0.0563 -0.0192 -0.0003  0.0000
  57. (0.00772) BD*( 1) C  3- C  4
               ( 50.37%)   0.7097* C  3 s( 26.51%)p 2.77( 73.49%)
                                         0.0000  0.5148  0.0074 -0.7083  0.0012
                                         0.4825  0.0199 -0.0001  0.0000
               ( 49.63%)  -0.7045* C  4 s( 25.62%)p 2.90( 74.38%)
                                         0.0000  0.5062  0.0025  0.7564  0.0127
                                        -0.4137  0.0168  0.0001  0.0000
  58. (0.00662) BD*( 1) C  3- H 12
[...]
 Molecular unit  1  (C9H7OBr)
 ------ Lewis --------------------------------------
    1. CR ( 1) O  1             1.99989   -19.13783  77(g)
    2. CR ( 1) C  2             1.99987   -10.32352
    3. CR ( 1) C  3             1.99977   -10.24403
    4. CR ( 1) C  4             1.99976   -10.25424  96(g)
    5. CR ( 1) C  5             1.99990   -10.26634
    6. CR ( 1) C  6             1.99984   -10.25748
    7. CR ( 1) C  7             1.99989   -10.30760
    8. CR ( 1)Br  8             2.00000   -21.13827
    9. CR ( 2)Br  8             2.00000  -450.77332
   10. CR ( 3)Br  8             1.99999   -79.72950
   11. CR ( 4)Br  8             2.00000    -7.17139
   12. CR ( 5)Br  8             1.99999   -55.68832
   13. CR ( 6)Br  8             2.00000    -7.15692
   14. CR ( 7)Br  8             1.99999   -55.68473
   15. CR ( 8)Br  8             2.00000    -7.15701
   16. CR ( 9)Br  8             2.00000   -55.68471
   17. CR (10)Br  8             1.99968    -2.77987
   18. CR (11)Br  8             1.99987    -2.77999
   19. CR (12)Br  8             1.99999    -2.76866
   20. CR (13)Br  8             1.99943    -2.78009  111(g)
   21. CR (14)Br  8             1.99980    -2.77253
   22. CR ( 1) C  9             1.99986   -10.25576
   23. CR ( 1) C 10             1.99983   -10.25690
   24. CR ( 1) C 11             1.99990   -10.24649
   25. LP ( 1) O  1             1.98088    -0.63728  85(v),56(v),55(v)
   26. LP ( 2) O  1             1.86995    -0.32561  55(v),56(v),57(r)
   27. LP ( 1)Br  8             1.99726    -0.76524  106(v)
   28. LP ( 2)Br  8             1.98181    -0.36874  70(v),66(v),105(v)
   29. LP ( 3)Br  8             1.93874    -0.36354  67(v)
   30. BD ( 1) O  1- C  2       1.99793    -1.01378  56(g)
   31. BD ( 2) O  1- C  2       1.98012    -0.45637  65(v),58(v),59(v)
   32. BD ( 1) C  2- C  3       1.98690    -0.63997  74(v),76(v),60(v),127(v)
                                                     95(v),126(v),59(g),58(g)
   33. BD ( 1) C  2- C 11       1.97933    -0.67369  74(g),63(v),64(g),122(v)
                                                     97(v),71(v),89(v),76(v)
                                                     60(v),57(v)
   34. BD ( 1) C  3- C  4       1.98567    -0.61847  53(v),63(v),60(g),86(v)
                                                     61(g),62(g),64(v),59(g)
                                                     58(g),98(v),56(v)
   35. BD ( 1) C  3- H 12       1.97477    -0.56846  54(v),56(v),94(v),62(v)
                                                     61(v),88(v)
   36. BD ( 1) C  3- H 13       1.97479    -0.56845  54(v),56(v),94(v),61(v)
                                                     62(v),88(v)
   37. BD ( 1) C  4- C  5       1.97643    -0.63786  74(v),63(g),64(g),101(v)
                                                     66(v),55(v),126(v),56(v)
                                                     57(g),61(g),62(g)
   38. BD ( 1) C  4- H 14       1.97829    -0.57030  65(v),64(v),99(v),90(v)
                                                     58(v),59(v),60(g)
   39. BD ( 1) C  4- H 15       1.97828    -0.57029  65(v),64(v),99(v),90(v)
                                                     59(v),58(v),60(g)
   40. BD ( 1) C  5- C  6       1.97065    -0.71034  64(g),69(v),66(g),60(g)
                                                     105(v),127(v),68(g),56(v)
                                                     93(v),106(v)
   41. BD ( 1) C  5- C 11       1.96699    -0.69865  74(g),63(g),53(v),68(v)
                                                     56(g),102(v),60(g),75(v)
                                                     122(v),86(v),93(v),123(v)
                                                     57(v),87(v)
   42. BD ( 2) C  5- C 11       1.62632    -0.31860  72(v),67(v),54(v),61(v)
                                                     62(v),125(v),104(v)
   43. BD ( 1) C  6- C  7       1.97980    -0.73066  70(g),63(g),60(v),98(v)
                                                     68(g),73(v),118(v),97(v)
                                                     119(v)
   44. BD ( 2) C  6- C  7       1.68344    -0.34060  65(v),72(v),109(v),121(v)
                                                     99(v)
   45. BD ( 1) C  6- H 16       1.98186    -0.58850  64(v),70(v),97(v),106(v)
                                                     63(g),66(g),69(v)
   46. BD ( 1) C  7-Br  8       1.98751    -0.64010  118(v),101(v),63(v),71(v)
   47. BD ( 1) C  7- C  9       1.98102    -0.72933  66(g),71(g),123(v),73(g)
                                                     68(v),75(v),101(v),102(v)
   48. BD ( 1) C  9- C 10       1.97441    -0.70665  69(v),56(v),74(g),70(g)
                                                     126(v),105(v),73(g),75(g)
                                                     106(v)
   49. BD ( 2) C  9- C 10       1.66629    -0.32360  67(v),65(v),129(v),107(v)
   50. BD ( 1) C  9- H 17       1.98256    -0.58652  66(v),74(v),106(v),122(v)
                                                     71(g),70(g),69(v)
   51. BD ( 1) C 10- C 11       1.97382    -0.70379  64(g),56(g),71(g),119(v)
                                                     85(v),73(v),75(g),60(v)
                                                     98(v),97(v)
   52. BD ( 1) C 10- H 18       1.98205    -0.58201  64(v),70(v),118(v),74(g)
                                                     126(v),71(g),127(v),56(v)
 ------ non-Lewis ----------------------------------
   53. BD*( 1) O  1- C  2       0.00820     0.68432
   54. BD*( 2) O  1- C  2       0.12218     0.08243
   55. BD*( 1) C  2- C  3       0.07229     0.43066
   56. BD*( 1) C  2- C 11       0.07081     0.53178
   57. BD*( 1) C  3- C  4       0.00772     0.42953
   58. BD*( 1) C  3- H 12       0.00662     0.52982
   59. BD*( 1) C  3- H 13       0.00662     0.52980
   60. BD*( 1) C  4- C  5       0.02341     0.48119
   61. BD*( 1) C  4- H 14       0.00978     0.52628
   62. BD*( 1) C  4- H 15       0.00978     0.52628
   63. BD*( 1) C  5- C  6       0.02297     0.67413
   64. BD*( 1) C  5- C 11       0.02600     0.67353
   65. BD*( 2) C  5- C 11       0.36699     0.06813
   66. BD*( 1) C  6- C  7       0.02131     0.64283
   67. BD*( 2) C  6- C  7       0.37092     0.04118
   68. BD*( 1) C  6- H 16       0.01270     0.56203
   69. BD*( 1) C  7-Br  8       0.02364     0.17327
   70. BD*( 1) C  7- C  9       0.02190     0.63507
   71. BD*( 1) C  9- C 10       0.01475     0.66914
   72. BD*( 2) C  9- C 10       0.29012     0.06670
   73. BD*( 1) C  9- H 17       0.01123     0.57125
   74. BD*( 1) C 10- C 11       0.02234     0.68239
   75. BD*( 1) C 10- H 18       0.01333     0.57381
   76. RY ( 1) O  1             0.00170     1.78110
   77. RY ( 2) O  1             0.00054     1.99252
   78. RY ( 3) O  1             0.00014     1.67053
   79. RY ( 4) O  1             0.00005     2.46848
   80. RY ( 5) O  1             0.00002     2.15225
   81. RY ( 6) O  1             0.00001     1.95041
   82. RY ( 7) O  1             0.00001     1.99152
   83. RY ( 8) O  1             0.00000     1.88419
   84. RY ( 9) O  1             0.00000     1.85299
   85. RY ( 1) C  2             0.01620     0.98653
   86. RY ( 2) C  2             0.00495     1.13036
   87. RY ( 3) C  2             0.00126     0.95023
   88. RY ( 4) C  2             0.00096     0.92453
   89. RY ( 1) C  3             0.00201     1.05504
   90. RY ( 2) C  3             0.00120     1.10066
   91. RY ( 3) C  3             0.00063     1.01080
   92. RY ( 4) C  3             0.00037     1.12630
   93. RY ( 1) C  4             0.00192     0.98289
   94. RY ( 2) C  4             0.00116     1.10893
   95. RY ( 3) C  4             0.00097     0.95702
   96. RY ( 4) C  4             0.00024     1.20364
   97. RY ( 1) C  5             0.00433     1.51470
   98. RY ( 2) C  5             0.00325     1.24845
   99. RY ( 3) C  5             0.00093     0.98902
  100. RY ( 4) C  5             0.00065     0.76703
  101. RY ( 1) C  6             0.00564     1.32779
  102. RY ( 2) C  6             0.00366     1.00858
  103. RY ( 3) C  6             0.00058     0.71476
  104. RY ( 4) C  6             0.00032     0.92677
  105. RY ( 1) C  7             0.00645     1.09013
  106. RY ( 2) C  7             0.00511     1.35645
  107. RY ( 3) C  7             0.00079     0.93743
  108. RY ( 4) C  7             0.00038     0.71061
  109. RY ( 1)Br  8             0.00194     0.67401
  110. RY ( 2)Br  8             0.00097     0.74023
  111. RY ( 3)Br  8             0.00059     1.11705
  112. RY ( 4)Br  8             0.00024     0.80360
  113. RY ( 5)Br  8             0.00010     0.93262
  114. RY ( 6)Br  8             0.00005     0.64081
  115. RY ( 7)Br  8             0.00003     0.66861
  116. RY ( 8)Br  8             0.00002     0.76197
  117. RY ( 9)Br  8             0.00001     0.71261
  118. RY ( 1) C  9             0.00536     1.33672
  119. RY ( 2) C  9             0.00325     1.02348
  120. RY ( 3) C  9             0.00043     0.72111
  121. RY ( 4) C  9             0.00031     0.92561
  122. RY ( 1) C 10             0.00552     1.36624
  123. RY ( 2) C 10             0.00364     1.01456
  124. RY ( 3) C 10             0.00037     0.72652
  125. RY ( 4) C 10             0.00021     0.92753
  126. RY ( 1) C 11             0.00446     1.41493
  127. RY ( 2) C 11             0.00398     1.44539
  128. RY ( 3) C 11             0.00115     0.80938
  129. RY ( 4) C 11             0.00029     0.99931
  130. RY ( 1) H 12             0.00134     0.60848
  131. RY ( 1) H 13             0.00134     0.60849
  132. RY ( 1) H 14             0.00103     0.60543
  133. RY ( 1) H 15             0.00103     0.60545
  134. RY ( 1) H 16             0.00124     0.61284
  135. RY ( 1) H 17             0.00118     0.60893
  136. RY ( 1) H 18             0.00273     0.61844
          -------------------------------
                 Total Lewis  102.33514  ( 98.3992%)
           Valence non-Lewis    1.55560  (  1.4958%)
           Rydberg non-Lewis    0.10926  (  0.1051%)
          -------------------------------
               Total unit  1  104.00000  (100.0000%)
              Charge unit  1    0.00000

 $CHOOSE
   LONE 1 2 8 3 END
   BOND D 1 2 S 2 3 S 2 11 S 3 4 S 3 12 S 3 13 S 4 5 S 4 14 S 4 15 S 5 6 D 5 11
        D 6 7 S 6 16 S 7 8 S 7 9 D 9 10 S 9 17 S 10 11 S 10 18 END
 $END


 Checkpoint NBOs sorted by occupancy:

  Sort    Occ       Energy   Orig   Label
 -----------------------------------------------------------
    1.  2.00000   -21.13827    8.   CR ( 1)Br  8
    2.  2.00000  -450.77332    9.   CR ( 2)Br  8
    3.  2.00000    -7.17139   11.   CR ( 4)Br  8
    4.  2.00000    -7.15692   13.   CR ( 6)Br  8
    5.  2.00000    -7.15701   15.   CR ( 8)Br  8
    6.  2.00000   -55.68471   16.   CR ( 9)Br  8
    7.  1.99999   -55.68473   14.   CR ( 7)Br  8
    8.  1.99999    -2.76866   19.   CR (12)Br  8
    9.  1.99999   -79.72950   10.   CR ( 3)Br  8
   10.  1.99999   -55.68832   12.   CR ( 5)Br  8
   11.  1.99990   -10.26634    5.   CR ( 1) C  5
   12.  1.99990   -10.24649   24.   CR ( 1) C 11
   13.  1.99989   -19.13783    1.   CR ( 1) O  1
   14.  1.99989   -10.30760    7.   CR ( 1) C  7
   15.  1.99987    -2.77999   18.   CR (11)Br  8
   16.  1.99987   -10.32352    2.   CR ( 1) C  2
   17.  1.99986   -10.25576   22.   CR ( 1) C  9
   18.  1.99984   -10.25748    6.   CR ( 1) C  6
   19.  1.99983   -10.25690   23.   CR ( 1) C 10
   20.  1.99980    -2.77253   21.   CR (14)Br  8
   21.  1.99977   -10.24403    3.   CR ( 1) C  3
   22.  1.99976   -10.25424    4.   CR ( 1) C  4
   23.  1.99968    -2.77987   17.   CR (10)Br  8
   24.  1.99943    -2.78009   20.   CR (13)Br  8
   25.  1.99793    -1.01378   30.   BD ( 1) O  1- C  2
   26.  1.99726    -0.76524   27.   LP ( 1)Br  8
   27.  1.98751    -0.64010   46.   BD ( 1) C  7-Br  8
   28.  1.98690    -0.63997   32.   BD ( 1) C  2- C  3
   29.  1.98567    -0.61847   34.   BD ( 1) C  3- C  4
   30.  1.98256    -0.58652   50.   BD ( 1) C  9- H 17
   31.  1.98205    -0.58201   52.   BD ( 1) C 10- H 18
   32.  1.98186    -0.58850   45.   BD ( 1) C  6- H 16
   33.  1.98181    -0.36874   28.   LP ( 2)Br  8
   34.  1.98102    -0.72933   47.   BD ( 1) C  7- C  9
   35.  1.98088    -0.63728   25.   LP ( 1) O  1
   36.  1.98012    -0.45637   31.   BD ( 2) O  1- C  2
   37.  1.97980    -0.73066   43.   BD ( 1) C  6- C  7
   38.  1.97933    -0.67369   33.   BD ( 1) C  2- C 11
   39.  1.97829    -0.57030   38.   BD ( 1) C  4- H 14
   40.  1.97828    -0.57029   39.   BD ( 1) C  4- H 15
   41.  1.97643    -0.63786   37.   BD ( 1) C  4- C  5
   42.  1.97479    -0.56845   36.   BD ( 1) C  3- H 13
   43.  1.97477    -0.56846   35.   BD ( 1) C  3- H 12
   44.  1.97441    -0.70665   48.   BD ( 1) C  9- C 10
   45.  1.97382    -0.70379   51.   BD ( 1) C 10- C 11
   46.  1.97065    -0.71034   40.   BD ( 1) C  5- C  6
   47.  1.96699    -0.69865   41.   BD ( 1) C  5- C 11
   48.  1.93874    -0.36354   29.   LP ( 3)Br  8
   49.  1.86995    -0.32561   26.   LP ( 2) O  1
   50.  1.68344    -0.34060   44.   BD ( 2) C  6- C  7
   51.  1.66629    -0.32360   49.   BD ( 2) C  9- C 10
   52.  1.62632    -0.31860   42.   BD ( 2) C  5- C 11
   53.  0.37092     0.04118   67.   BD*( 2) C  6- C  7
   54.  0.36699     0.06813   65.   BD*( 2) C  5- C 11
   55.  0.29012     0.06670   72.   BD*( 2) C  9- C 10
   56.  0.12218     0.08243   54.   BD*( 2) O  1- C  2
   57.  0.07229     0.43066   55.   BD*( 1) C  2- C  3
   58.  0.07081     0.53178   56.   BD*( 1) C  2- C 11
   59.  0.02600     0.67353   64.   BD*( 1) C  5- C 11
   60.  0.02364     0.17327   69.   BD*( 1) C  7-Br  8
   61.  0.02341     0.48119   60.   BD*( 1) C  4- C  5
   62.  0.02297     0.67413   63.   BD*( 1) C  5- C  6
   63.  0.02234     0.68239   74.   BD*( 1) C 10- C 11
   64.  0.02190     0.63507   70.   BD*( 1) C  7- C  9
   65.  0.02131     0.64283   66.   BD*( 1) C  6- C  7
   66.  0.01620     0.98653   85.   RY ( 1) C  2
   67.  0.01475     0.66914   71.   BD*( 1) C  9- C 10
   68.  0.01333     0.57381   75.   BD*( 1) C 10- H 18
   69.  0.01270     0.56203   68.   BD*( 1) C  6- H 16
   70.  0.01123     0.57125   73.   BD*( 1) C  9- H 17
   71.  0.00978     0.52628   61.   BD*( 1) C  4- H 14
   72.  0.00978     0.52628   62.   BD*( 1) C  4- H 15
   73.  0.00820     0.68432   53.   BD*( 1) O  1- C  2
   74.  0.00772     0.42953   57.   BD*( 1) C  3- C  4
   75.  0.00662     0.52980   59.   BD*( 1) C  3- H 13
   76.  0.00662     0.52982   58.   BD*( 1) C  3- H 12
   77.  0.00645     1.09013  105.   RY ( 1) C  7
   78.  0.00564     1.32779  101.   RY ( 1) C  6
   79.  0.00552     1.36624  122.   RY ( 1) C 10
   80.  0.00536     1.33672  118.   RY ( 1) C  9
   81.  0.00511     1.35645  106.   RY ( 2) C  7
   82.  0.00495     1.13036   86.   RY ( 2) C  2
   83.  0.00446     1.41493  126.   RY ( 1) C 11
   84.  0.00433     1.51470   97.   RY ( 1) C  5
   85.  0.00398     1.44539  127.   RY ( 2) C 11
   86.  0.00366     1.00858  102.   RY ( 2) C  6
   87.  0.00364     1.01456  123.   RY ( 2) C 10
   88.  0.00325     1.24845   98.   RY ( 2) C  5
   89.  0.00325     1.02348  119.   RY ( 2) C  9
   90.  0.00273     0.61844  136.   RY ( 1) H 18
   91.  0.00201     1.05504   89.   RY ( 1) C  3
   92.  0.00194     0.67401  109.   RY ( 1)Br  8
   93.  0.00192     0.98289   93.   RY ( 1) C  4
   94.  0.00170     1.78110   76.   RY ( 1) O  1
   95.  0.00134     0.60849  131.   RY ( 1) H 13
   96.  0.00134     0.60848  130.   RY ( 1) H 12
   97.  0.00126     0.95023   87.   RY ( 3) C  2
   98.  0.00124     0.61284  134.   RY ( 1) H 16
   99.  0.00120     1.10066   90.   RY ( 2) C  3
  100.  0.00118     0.60893  135.   RY ( 1) H 17
  101.  0.00116     1.10893   94.   RY ( 2) C  4
  102.  0.00115     0.80938  128.   RY ( 3) C 11
  103.  0.00103     0.60543  132.   RY ( 1) H 14
  104.  0.00103     0.60545  133.   RY ( 1) H 15
  105.  0.00097     0.95702   95.   RY ( 3) C  4
  106.  0.00097     0.74023  110.   RY ( 2)Br  8
  107.  0.00096     0.92453   88.   RY ( 4) C  2
  108.  0.00093     0.98902   99.   RY ( 3) C  5
  109.  0.00079     0.93743  107.   RY ( 3) C  7
  110.  0.00065     0.76703  100.   RY ( 4) C  5
  111.  0.00063     1.01080   91.   RY ( 3) C  3
  112.  0.00059     1.11705  111.   RY ( 3)Br  8
  113.  0.00058     0.71476  103.   RY ( 3) C  6
  114.  0.00054     1.99252   77.   RY ( 2) O  1
  115.  0.00043     0.72111  120.   RY ( 3) C  9
  116.  0.00038     0.71061  108.   RY ( 4) C  7
  117.  0.00037     0.72652  124.   RY ( 3) C 10
  118.  0.00037     1.12630   92.   RY ( 4) C  3
  119.  0.00032     0.92677  104.   RY ( 4) C  6
  120.  0.00031     0.92561  121.   RY ( 4) C  9
  121.  0.00029     0.99931  129.   RY ( 4) C 11
  122.  0.00024     0.80360  112.   RY ( 4)Br  8
  123.  0.00024     1.20364   96.   RY ( 4) C  4
  124.  0.00021     0.92753  125.   RY ( 4) C 10
  125.  0.00014     1.67053   78.   RY ( 3) O  1
  126.  0.00010     0.93262  113.   RY ( 5)Br  8
  127.  0.00005     2.46848   79.   RY ( 4) O  1
  128.  0.00005     0.64081  114.   RY ( 6)Br  8
  129.  0.00003     0.66861  115.   RY ( 7)Br  8
  130.  0.00002     0.76197  116.   RY ( 8)Br  8
  131.  0.00002     2.15225   80.   RY ( 5) O  1
  132.  0.00001     1.95041   81.   RY ( 6) O  1
  133.  0.00001     0.71261  117.   RY ( 9)Br  8
  134.  0.00001     1.99152   82.   RY ( 7) O  1
  135.  0.00000     1.88419   83.   RY ( 8) O  1
  136.  0.00000     1.85299   84.   RY ( 9) O  1

 NBO analysis completed in 0.31 CPU seconds (0 wall seconds)
 Maximum scratch memory used by NBO was 609528 words (4.65 MB)
 Maximum scratch memory used by G16NBO was 37008 words (0.28 MB)

 Opening RunExU unformatted file "/home/rpaton/opt/midi/Gau-792671.EUF"
 Read unf file /home/rpaton/opt/midi/Gau-792671.EUF:
 Label Gaussian matrix elements                                         IVers= 2 NLab= 2 Version=ES64L-G16RevC.01
 Title arbr31_wb97xd_popncreated by GaussianPrep                       
 NAtoms=    18 NBasis=   136 NBsUse=   136 ICharg=     0 Multip=     1 NE=   104 Len12L=8 Len4L=8 IOpCl= 0 ICGU=111
 GAUSSIAN SCALARS                    NI= 1 NR= 1 NTot=       1 LenBuf=    2 NRI=1 N=    1000
 ALPHA ORBITAL ENERGIES              NI= 0 NR= 1 NTot=     136 LenBuf= 2048 NRI=1 N=     136
 ALPHA MO COEFFICIENTS               NI= 0 NR= 1 NTot=   18496 LenBuf= 2048 NRI=1 N=     136     136
 Store file  10524 Len=   18496.
 NPA CHARGES                         NI= 0 NR= 1 NTot=      18 LenBuf= 2048 NRI=1 N=      18
 Recovered energy= -2981.85115077     dipole=     -0.172660891000      0.803543217051     -0.000273607908
 Unable to Open any file for archive entry.
 1\1\GINC-DYNAMO\SP\RwB97XD\MIDIx\C9H7Br1O1\RPATON\25-Sep-2024\0\\# pop
 =(nbo6read,savenbos,hirshfeld) wb97xd/midix\\arbr31_wb97xd_popncreated
  by GaussianPrep\\0,1\O,0,3.842615,1.416587,-0.000329\C,0,3.097688,0.4
 57366,0.000653\C,0,3.509418,-1.037081,-0.000294\C,0,2.186211,-1.853192
 ,-0.000009\C,0,1.091157,-0.79931,0.000184\C,0,-0.283334,-0.989693,0.00
 016\C,0,-1.102674,0.134998,0.000064\Br,0,-2.98518,-0.095985,-0.000057\
 C,0,-0.578886,1.429614,-0.000022\C,0,0.798184,1.60563,0.000037\C,0,1.6
 13969,0.484816,0.000197\H,0,4.128357,-1.233764,-0.884401\H,0,4.129134,
 -1.234421,0.883112\H,0,2.107155,-2.498401,0.884354\H,0,2.106813,-2.498
 312,-0.884406\H,0,-0.718975,-1.985078,0.000118\H,0,-1.250565,2.282068,
 -0.000088\H,0,1.24804,2.595791,0.00009\\Version=ES64L-G16RevC.01\State
 =1-A\HF=-2981.8511508\RMSD=9.684e-09\Dipole=-0.1726608,-0.8035432,0.00
 02736\Quadrupole=-4.1356687,4.2548958,-0.1192272,-6.9781693,0.0023455,
 0.0014039\PG=C01 [X(C9H7Br1O1)]\\@
 The archive entry for this job was punched.


 ON A CLEAR DISK YOU CAN SEEK FOREVER.
 Job cpu time:       0 days  0 hours  2 minutes 58.3 seconds.
 Elapsed time:       0 days  0 hours  0 minutes  7.7 seconds.
 File lengths (MBytes):  RWF=     15 Int=      0 D2E=      0 Chk=      2 Scr=      1
 Normal termination of Gaussian 16 at Wed Sep 25 23:31:28 2024.
