 Entering Gaussian System, Link 0=/usr/local/Gaussian/G16C/g16/g16
 Input=popn/arbr39_wb97xd_popn.com
 Output=popn/arbr39_wb97xd_popn.log
 Initial command:
 /usr/local/Gaussian/G16C/g16/l1.exe "/home/rpaton/opt/midi/Gau-802000.inp" -scrdir="/home/rpaton/opt/midi/"
 Entering Link 1 = /usr/local/Gaussian/G16C/g16/l1.exe PID=    802001.
  
 Copyright (c) 1988-2019, Gaussian, Inc.  All Rights Reserved.
  
 This is part of the Gaussian(R) 16 program.  It is based on
 the Gaussian(R) 09 system (copyright 2009, Gaussian, Inc.),
 the Gaussian(R) 03 system (copyright 2003, Gaussian, Inc.),
 the Gaussian(R) 98 system (copyright 1998, Gaussian, Inc.),
 the Gaussian(R) 94 system (copyright 1995, Gaussian, Inc.),
 the Gaussian 92(TM) system (copyright 1992, Gaussian, Inc.),
 the Gaussian 90(TM) system (copyright 1990, Gaussian, Inc.),
 the Gaussian 88(TM) system (copyright 1988, Gaussian, Inc.),
 the Gaussian 86(TM) system (copyright 1986, Carnegie Mellon
 University), and the Gaussian 82(TM) system (copyright 1983,
 Carnegie Mellon University). Gaussian is a federally registered
 trademark of Gaussian, Inc.
  
 This software contains proprietary and confidential information,
 including trade secrets, belonging to Gaussian, Inc.
  
 This software is provided under written license and may be
 used, copied, transmitted, or stored only in accord with that
 written license.
  
 The following legend is applicable only to US Government
 contracts under FAR:
  
                    RESTRICTED RIGHTS LEGEND
  
 Use, reproduction and disclosure by the US Government is
 subject to restrictions as set forth in subparagraphs (a)
 and (c) of the Commercial Computer Software - Restricted
 Rights clause in FAR 52.227-19.
  
 Gaussian, Inc.
 340 Quinnipiac St., Bldg. 40, Wallingford CT 06492
  
  
 ---------------------------------------------------------------
 Warning -- This program may not be used in any manner that
 competes with the business of Gaussian, Inc. or will provide
 assistance to any competitor of Gaussian, Inc.  The licensee
 of this program is prohibited from giving any competitor of
 Gaussian, Inc. access to this program.  By using this program,
 the user acknowledges that Gaussian, Inc. is engaged in the
 business of creating and licensing software in the field of
 computational chemistry and represents and warrants to the
 licensee that it is not a competitor of Gaussian, Inc. and that
 it will not use this program in any manner prohibited above.
 ---------------------------------------------------------------
  

 Cite this work as:
 Gaussian 16, Revision C.01,
 M. J. Frisch, G. W. Trucks, H. B. Schlegel, G. E. Scuseria, 
 M. A. Robb, J. R. Cheeseman, G. Scalmani, V. Barone, 
 G. A. Petersson, H. Nakatsuji, X. Li, M. Caricato, A. V. Marenich, 
 J. Bloino, B. G. Janesko, R. Gomperts, B. Mennucci, H. P. Hratchian, 
 J. V. Ortiz, A. F. Izmaylov, J. L. Sonnenberg, D. Williams-Young, 
 F. Ding, F. Lipparini, F. Egidi, J. Goings, B. Peng, A. Petrone, 
 T. Henderson, D. Ranasinghe, V. G. Zakrzewski, J. Gao, N. Rega, 
 G. Zheng, W. Liang, M. Hada, M. Ehara, K. Toyota, R. Fukuda, 
 J. Hasegawa, M. Ishida, T. Nakajima, Y. Honda, O. Kitao, H. Nakai, 
 T. Vreven, K. Throssell, J. A. Montgomery, Jr., J. E. Peralta, 
 F. Ogliaro, M. J. Bearpark, J. J. Heyd, E. N. Brothers, K. N. Kudin, 
 V. N. Staroverov, T. A. Keith, R. Kobayashi, J. Normand, 
 K. Raghavachari, A. P. Rendell, J. C. Burant, S. S. Iyengar, 
 J. Tomasi, M. Cossi, J. M. Millam, M. Klene, C. Adamo, R. Cammi, 
 J. W. Ochterski, R. L. Martin, K. Morokuma, O. Farkas, 
 J. B. Foresman, and D. J. Fox, Gaussian, Inc., Wallingford CT, 2019.
 
 ******************************************
 Gaussian 16:  ES64L-G16RevC.01  3-Jul-2019
                25-Sep-2024 
 ******************************************
 %chk=arbr39_wb97xd_popn.chk
 %mem=48GB
 %nprocshared=24
 Will use up to   24 processors via shared memory.
 ------------------------------------------------
 # pop=(nbo6read,savenbos,hirshfeld) wb97xd/midix
 ------------------------------------------------
 1/38=1,163=2,172=1/1;
 2/12=2,17=6,18=5,40=1/2;
 3/5=20,11=2,25=1,30=1,74=-58/1,2,3;
 4//1;
 5/5=2,38=5/2;
 6/7=2,8=2,9=2,10=2,28=1,40=2,73=1,79=1,113=1,114=1,124=2103,126=1/1,12;
 99/5=1,9=1/99;
 -----------------------------------------
 arbr39_wb97xd_popncreated by GaussianPrep
 -----------------------------------------
 Symbolic Z-matrix:
 Charge =  0 Multiplicity = 1
 O                     1.73824  -2.17925  -0.00002 
 C                     1.61674  -0.96798  -0.00005 
 C                     0.35667  -0.18832  -0.00002 
 C                    -0.93694  -0.68651  -0.00001 
 C                    -1.9807    0.22593  0. 
 Br                   -3.77499  -0.39079   0.00001 
 C                    -1.72858   1.59961   0. 
 C                    -0.42166   2.07936  -0.00001 
 C                     0.62935   1.17211  -0.00002 
 C                     2.12467   1.44088  -0.00002 
 C                     2.76929   0.03689  -0.00001 
 C                     3.8625   -0.23845   1.09252 
 C                     4.97313  -0.08005   0.00005 
 C                     3.86256  -0.23844  -1.09249 
 H                    -1.10641  -1.75988  -0.00002 
 H                    -2.56402   2.29343   0.00001 
 H                    -0.23869   3.15145   0. 
 H                     2.41729   2.02233   0.88534 
 H                     2.41729   2.02232  -0.88539 
 H                     3.88522   0.45136   1.94188 
 H                     3.78742  -1.27299   1.44727 
 H                     5.77116  -0.82791   0.00006 
 H                     5.41455   0.92283   0.00007 
 H                     3.88532   0.45139  -1.94183 
 H                     3.7875   -1.27297  -1.44726 
 
                          Input orientation:                          
 ---------------------------------------------------------------------
 Center     Atomic      Atomic             Coordinates (Angstroms)
 Number     Number       Type             X           Y           Z
 ---------------------------------------------------------------------
      1          8           0        1.738242   -2.179249   -0.000018
      2          6           0        1.616738   -0.967983   -0.000049
      3          6           0        0.356671   -0.188322   -0.000024
      4          6           0       -0.936935   -0.686511   -0.000014
      5          6           0       -1.980704    0.225925   -0.000001
      6         35           0       -3.774990   -0.390785    0.000009
      7          6           0       -1.728578    1.599610    0.000003
      8          6           0       -0.421663    2.079362   -0.000005
      9          6           0        0.629352    1.172106   -0.000017
     10          6           0        2.124675    1.440875   -0.000018
     11          6           0        2.769285    0.036889   -0.000011
     12          6           0        3.862498   -0.238450    1.092524
     13          6           0        4.973126   -0.080051    0.000047
     14          6           0        3.862555   -0.238437   -1.092489
     15          1           0       -1.106411   -1.759875   -0.000020
     16          1           0       -2.564021    2.293433    0.000013
     17          1           0       -0.238690    3.151454    0.000001
     18          1           0        2.417287    2.022329    0.885343
     19          1           0        2.417288    2.022321   -0.885385
     20          1           0        3.885215    0.451364    1.941875
     21          1           0        3.787422   -1.272990    1.447274
     22          1           0        5.771158   -0.827908    0.000064
     23          1           0        5.414550    0.922830    0.000065
     24          1           0        3.885317    0.451387   -1.941831
     25          1           0        3.787496   -1.272972   -1.447255
 ---------------------------------------------------------------------
                    Distance matrix (angstroms):
                    1          2          3          4          5
     1  O    0.000000
     2  C    1.217345   0.000000
     3  C    2.423330   1.481769   0.000000
     4  C    3.063468   2.569138   1.386221   0.000000
     5  C    4.428930   3.790383   2.373799   1.386360   0.000000
     6  Br   5.796062   5.422535   4.136619   2.853421   1.897312
     7  C    5.128218   4.217069   2.746810   2.419307   1.396631
     8  C    4.775035   3.666250   2.397539   2.813460   2.421949
     9  C    3.530045   2.356886   1.387487   2.430579   2.776266
    10  C    3.640691   2.461828   2.404188   3.728167   4.281383
    11  C    2.444242   1.529095   2.423103   3.776159   4.753749
    12  C    3.077793   2.601802   3.672465   4.942566   5.962572
    13  C    3.856307   3.471853   4.617724   5.941095   6.960558
    14  C    3.077816   2.601799   3.672494   4.942608   5.962620
    15  H    2.875400   2.835954   2.147181   1.086661   2.169744
    16  H    6.205993   5.302413   3.832695   3.395214   2.148220
    17  H    5.685478   4.518006   3.392427   3.900964   3.404898
    18  H    4.347209   3.219746   3.149125   4.401418   4.832518
    19  H    4.347202   3.219723   3.149119   4.401416   4.832523
    20  H    3.911594   3.306297   4.078087   5.321543   6.183099
    21  H    2.667414   2.626717   3.878302   4.975756   6.132914
    22  H    4.253297   4.156781   5.452132   6.709583   7.823166
    23  H    4.810211   4.242470   5.178494   6.552201   7.428018
    24  H    3.911626   3.306294   4.078135   5.321614   6.183182
    25  H    2.667447   2.626712   3.878338   4.975811   6.132974
                    6          7          8          9         10
     6  Br   0.000000
     7  C    2.854728   0.000000
     8  C    4.164904   1.392188   0.000000
     9  C    4.673420   2.396371   1.388433   0.000000
    10  C    6.177461   3.856521   2.625167   1.519285   0.000000
    11  C    6.558235   4.761604   3.788647   2.422402   1.544894
    12  C    7.716736   5.986000   4.991984   3.692770   2.652133
    13  C    8.753633   6.908987   5.810922   4.520649   3.229069
    14  C    7.716790   5.986044   4.992017   3.692794   2.652133
    15  H    2.999287   3.416611   3.899823   3.407255   4.548045
    16  H    2.944736   1.085981   2.153027   3.384524   4.765577
    17  H    5.005285   2.151275   1.087594   2.161323   2.917460
    18  H    6.704568   4.260366   2.974345   2.168745   1.098897
    19  H    6.704574   4.260376   2.974356   2.168746   1.098898
    20  H    7.947251   6.050125   4.997046   3.858893   2.801710
    21  H    7.750028   6.385349   5.572188   4.248123   3.496347
    22  H    9.556151   7.882822   6.841290   5.517085   4.294673
    23  H    9.282954   7.175117   5.949702   4.791686   3.330413
    24  H    7.947345   6.050203   4.997106   3.858936   2.801711
    25  H    7.750098   6.385402   5.572225   4.248150   3.496346
                   11         12         13         14         15
    11  C    0.000000
    12  C    1.569891   0.000000
    13  C    2.206941   1.565915   0.000000
    14  C    1.569889   2.185013   1.565915   0.000000
    15  H    4.271929   5.310221   6.307343   5.310262   0.000000
    16  H    5.791040   6.993151   7.902026   6.993197   4.307428
    17  H    4.329946   5.431832   6.132345   5.431860   4.987393
    18  H    2.202209   2.691223   3.425794   3.333419   5.244557
    19  H    2.202210   3.333443   3.425823   2.691229   5.244553
    20  H    2.277720   1.094421   2.288372   3.111865   5.794555
    21  H    2.201595   1.096247   2.218888   2.743418   5.126531
    22  H    3.123958   2.276821   1.093684   2.276821   6.940426
    23  H    2.789681   2.225063   1.095731   2.225063   7.051230
    24  H    2.277718   3.111865   2.288372   1.094421   5.794623
    25  H    2.201591   2.743417   2.218888   1.096246   5.126587
                   16         17         18         19         20
    16  H    0.000000
    17  H    2.478581   0.000000
    18  H    5.066630   3.018769   0.000000
    19  H    5.066643   3.018786   1.770728   0.000000
    20  H    6.982599   5.297920   2.395622   3.551917   0.000000
    21  H    7.426625   6.154663   3.612778   4.263524   1.796550
    22  H    8.900448   7.207884   4.489546   4.489573   2.993985
    23  H    8.095440   6.076667   3.313035   3.313077   2.516301
    24  H    6.982682   5.297972   3.551885   2.395625   3.883706
    25  H    7.426681   6.154695   4.263507   3.612772   3.803825
                   21         22         23         24         25
    21  H    0.000000
    22  H    2.495541   0.000000
    23  H    3.092505   1.786688   0.000000
    24  H    3.803826   2.993985   2.516301   0.000000
    25  H    2.894529   2.495542   3.092505   1.796549   0.000000
 Stoichiometry    C12H11BrO
 Framework group  C1[X(C12H11BrO)]
 Deg. of freedom    69
 Full point group                 C1      NOp   1
 Largest Abelian subgroup         C1      NOp   1
 Largest concise Abelian subgroup C1      NOp   1
                         Standard orientation:                         
 ---------------------------------------------------------------------
 Center     Atomic      Atomic             Coordinates (Angstroms)
 Number     Number       Type             X           Y           Z
 ---------------------------------------------------------------------
      1          8           0        1.738242   -2.179249   -0.000018
      2          6           0        1.616738   -0.967983   -0.000049
      3          6           0        0.356671   -0.188322   -0.000024
      4          6           0       -0.936935   -0.686511   -0.000014
      5          6           0       -1.980704    0.225925   -0.000001
      6         35           0       -3.774990   -0.390785    0.000009
      7          6           0       -1.728578    1.599610    0.000003
      8          6           0       -0.421663    2.079362   -0.000005
      9          6           0        0.629352    1.172106   -0.000017
     10          6           0        2.124675    1.440875   -0.000018
     11          6           0        2.769285    0.036889   -0.000011
     12          6           0        3.862498   -0.238450    1.092524
     13          6           0        4.973126   -0.080051    0.000047
     14          6           0        3.862555   -0.238437   -1.092489
     15          1           0       -1.106411   -1.759875   -0.000020
     16          1           0       -2.564021    2.293433    0.000013
     17          1           0       -0.238690    3.151454    0.000001
     18          1           0        2.417287    2.022329    0.885343
     19          1           0        2.417288    2.022321   -0.885385
     20          1           0        3.885215    0.451364    1.941875
     21          1           0        3.787422   -1.272990    1.447274
     22          1           0        5.771158   -0.827908    0.000064
     23          1           0        5.414550    0.922830    0.000065
     24          1           0        3.885317    0.451387   -1.941831
     25          1           0        3.787496   -1.272972   -1.447255
 ---------------------------------------------------------------------
 Rotational constants (GHZ):           1.6574692           0.2219818           0.2023554
 Standard basis: MIDIx (5D, 7F)
 There are   174 symmetry adapted cartesian basis functions of A   symmetry.
 There are   171 symmetry adapted basis functions of A   symmetry.
   171 basis functions,   297 primitive gaussians,   174 cartesian basis functions
    63 alpha electrons       63 beta electrons
       nuclear repulsion energy      1111.1768742269 Hartrees.
 NAtoms=   25 NActive=   25 NUniq=   25 SFac= 1.00D+00 NAtFMM=   60 NAOKFM=F Big=F
 Integral buffers will be    131072 words long.
 Raffenetti 2 integral format.
 Two-electron integral symmetry is turned on.
 Nuclear repulsion after empirical dispersion term =     1111.1588590362 Hartrees.
 One-electron integrals computed using PRISM.
 NBasis=   171 RedAO= T EigKep=  1.08D-03  NBF=   171
 NBsUse=   171 1.00D-06 EigRej= -1.00D+00 NBFU=   171
 ExpMin= 1.47D-01 ExpMax= 6.10D+03 ExpMxC= 6.10D+03 IAcc=3 IRadAn=         5 AccDes= 0.00D+00
 Harris functional with IExCor= 4639 and IRadAn=       5 diagonalized for initial guess.
 HarFok:  IExCor= 4639 AccDes= 0.00D+00 IRadAn=         5 IDoV= 1 UseB2=F ITyADJ=14
 ICtDFT=  3500011 ScaDFX=  1.000000  1.000000  1.000000  1.000000
 FoFCou: FMM=F IPFlag=           0 FMFlag=      100000 FMFlg1=           0
         NFxFlg=           0 DoJE=T BraDBF=F KetDBF=T FulRan=T
         wScrn=  0.000000 ICntrl=       500 IOpCl=  0 I1Cent=   200000004 NGrid=           0
         NMat0=    1 NMatS0=      1 NMatT0=    0 NMatD0=    1 NMtDS0=    0 NMtDT0=    0
 Petite list used in FoFCou.
 Requested convergence on RMS density matrix=1.00D-08 within 128 cycles.
 Requested convergence on MAX density matrix=1.00D-06.
 Requested convergence on             energy=1.00D-06.
 No special actions if energy rises.
 Integral accuracy reduced to 1.0D-05 until final iterations.
 Initial convergence to 1.0D-05 achieved.  Increase integral accuracy.
 SCF Done:  E(RwB97XD) =  -3097.84042994     A.U. after   16 cycles
            NFock= 16  Conv=0.36D-08     -V/T= 2.0026

 **********************************************************************

            Population analysis using the SCF Density.

 **********************************************************************

 Orbital symmetries:
       Occupied  (A) (A) (A) (A) (A) (A) (A) (A) (A) (A) (A) (A)
                 (A) (A) (A) (A) (A) (A) (A) (A) (A) (A) (A) (A)
                 (A) (A) (A) (A) (A) (A) (A) (A) (A) (A) (A) (A)
                 (A) (A) (A) (A) (A) (A) (A) (A) (A) (A) (A) (A)
                 (A) (A) (A) (A) (A) (A) (A) (A) (A) (A) (A) (A)
                 (A) (A) (A)
       Virtual   (A) (A) (A) (A) (A) (A) (A) (A) (A) (A) (A) (A)
                 (A) (A) (A) (A) (A) (A) (A) (A) (A) (A) (A) (A)
                 (A) (A) (A) (A) (A) (A) (A) (A) (A) (A) (A) (A)
                 (A) (A) (A) (A) (A) (A) (A) (A) (A) (A) (A) (A)
                 (A) (A) (A) (A) (A) (A) (A) (A) (A) (A) (A) (A)
                 (A) (A) (A) (A) (A) (A) (A) (A) (A) (A) (A) (A)
                 (A) (A) (A) (A) (A) (A) (A) (A) (A) (A) (A) (A)
                 (A) (A) (A) (A) (A) (A) (A) (A) (A) (A) (A) (A)
                 (A) (A) (A) (A) (A) (A) (A) (A) (A) (A) (A) (A)
 The electronic state is 1-A.
 Alpha  occ. eigenvalues -- -480.15064 -62.58454 -56.17355 -56.16924 -56.16912
 Alpha  occ. eigenvalues --  -19.14539 -10.32181 -10.30251 -10.26614 -10.26382
 Alpha  occ. eigenvalues --  -10.26179 -10.25828 -10.25669 -10.25320 -10.25187
 Alpha  occ. eigenvalues --  -10.23965 -10.23928 -10.23553  -8.89298  -6.67789
 Alpha  occ. eigenvalues --   -6.66348  -6.66332  -2.78096  -2.77594  -2.77578
 Alpha  occ. eigenvalues --   -2.76390  -2.76386  -1.14682  -1.01183  -0.97401
 Alpha  occ. eigenvalues --   -0.93283  -0.88989  -0.86989  -0.80670  -0.78580
 Alpha  occ. eigenvalues --   -0.76828  -0.73258  -0.69973  -0.66620  -0.62500
 Alpha  occ. eigenvalues --   -0.59243  -0.58423  -0.58011  -0.55258  -0.55051
 Alpha  occ. eigenvalues --   -0.54192  -0.52845  -0.50250  -0.49896  -0.48136
 Alpha  occ. eigenvalues --   -0.48110  -0.46277  -0.46097  -0.43853  -0.42714
 Alpha  occ. eigenvalues --   -0.41440  -0.39831  -0.39673  -0.38528  -0.36694
 Alpha  occ. eigenvalues --   -0.34924  -0.32162  -0.31834
 Alpha virt. eigenvalues --    0.00962   0.05044   0.08662   0.11657   0.16144
 Alpha virt. eigenvalues --    0.18339   0.19464   0.19617   0.20851   0.23105
 Alpha virt. eigenvalues --    0.23150   0.24620   0.25657   0.26010   0.26568
 Alpha virt. eigenvalues --    0.28084   0.28761   0.29744   0.30385   0.33637
 Alpha virt. eigenvalues --    0.34850   0.35778   0.37034   0.38012   0.40951
 Alpha virt. eigenvalues --    0.44074   0.46789   0.49051   0.49573   0.54571
 Alpha virt. eigenvalues --    0.55822   0.58848   0.59496   0.61330   0.63984
 Alpha virt. eigenvalues --    0.64137   0.64569   0.66199   0.67381   0.69116
 Alpha virt. eigenvalues --    0.71198   0.71580   0.73862   0.76048   0.76520
 Alpha virt. eigenvalues --    0.77761   0.79825   0.80379   0.83665   0.83914
 Alpha virt. eigenvalues --    0.84077   0.84517   0.86840   0.88672   0.89119
 Alpha virt. eigenvalues --    0.91752   0.92690   0.94492   0.96065   0.96150
 Alpha virt. eigenvalues --    0.97054   0.97134   0.97438   0.99923   1.00457
 Alpha virt. eigenvalues --    1.00761   1.01261   1.02344   1.03384   1.04291
 Alpha virt. eigenvalues --    1.04718   1.06384   1.06594   1.06738   1.08551
 Alpha virt. eigenvalues --    1.08930   1.11744   1.12137   1.12392   1.15152
 Alpha virt. eigenvalues --    1.17784   1.19740   1.21528   1.24075   1.28055
 Alpha virt. eigenvalues --    1.30098   1.31860   1.38342   1.38548   1.40913
 Alpha virt. eigenvalues --    1.43336   1.48114   1.57980   1.63213   1.65138
 Alpha virt. eigenvalues --    1.67786   1.68395   1.73620   1.76269   1.81693
 Alpha virt. eigenvalues --    1.90424   1.91527   1.98543   1.98940   2.04152
 Alpha virt. eigenvalues --    2.17354   2.37828   3.09042
          Condensed to atoms (all electrons):
               1          2          3          4          5          6
     1  O    8.134666   0.558082  -0.079339  -0.003828   0.000217   0.000000
     2  C    0.558082   4.462554   0.238620  -0.001012   0.002087  -0.000018
     3  C   -0.079339   0.238620   5.502928   0.428321  -0.016624   0.002402
     4  C   -0.003828  -0.001012   0.428321   4.915063   0.459990  -0.040592
     5  C    0.000217   0.002087  -0.016624   0.459990   5.073651   0.213232
     6  Br   0.000000  -0.000018   0.002402  -0.040592   0.213232  34.921794
     7  C   -0.000007   0.000434  -0.041535  -0.034554   0.458452  -0.039473
     8  C    0.000000   0.000853  -0.027182  -0.025060  -0.024973   0.001754
     9  C    0.002031  -0.012174   0.403065  -0.016830  -0.050662   0.000380
    10  C    0.002507  -0.047232  -0.010093   0.000429   0.000500   0.000001
    11  C   -0.084075   0.236448  -0.226645   0.001407   0.000197   0.000001
    12  C    0.000770  -0.038649   0.006759  -0.000008   0.000000  -0.000000
    13  C   -0.000820   0.016448  -0.001214  -0.000002   0.000000   0.000000
    14  C    0.000771  -0.038648   0.006759  -0.000008   0.000000  -0.000000
    15  H    0.006684  -0.001083  -0.020195   0.375741  -0.013052   0.000782
    16  H    0.000000   0.000002   0.000061   0.002606  -0.022261   0.001164
    17  H    0.000000  -0.000055   0.002922  -0.000109   0.002750  -0.000051
    18  H   -0.000027   0.001797  -0.000191  -0.000049   0.000008  -0.000000
    19  H   -0.000027   0.001796  -0.000191  -0.000049   0.000008  -0.000000
    20  H    0.000047   0.001792  -0.000100  -0.000000  -0.000000   0.000000
    21  H    0.009211  -0.002039   0.002252   0.000021  -0.000001  -0.000000
    22  H    0.000039  -0.000520   0.000015  -0.000000  -0.000000  -0.000000
    23  H   -0.000004  -0.000389   0.000024  -0.000000   0.000000  -0.000000
    24  H    0.000047   0.001792  -0.000100  -0.000000  -0.000000   0.000000
    25  H    0.009210  -0.002039   0.002252   0.000021  -0.000001  -0.000000
               7          8          9         10         11         12
     1  O   -0.000007   0.000000   0.002031   0.002507  -0.084075   0.000770
     2  C    0.000434   0.000853  -0.012174  -0.047232   0.236448  -0.038649
     3  C   -0.041535  -0.027182   0.403065  -0.010093  -0.226645   0.006759
     4  C   -0.034554  -0.025060  -0.016830   0.000429   0.001407  -0.000008
     5  C    0.458452  -0.024973  -0.050662   0.000500   0.000197   0.000000
     6  Br  -0.039473   0.001754   0.000380   0.000001   0.000001  -0.000000
     7  C    4.964851   0.496022  -0.025579   0.000404  -0.000318   0.000002
     8  C    0.496022   4.889471   0.463084   0.004640   0.002472  -0.000018
     9  C   -0.025579   0.463084   5.124437   0.289421  -0.047854   0.002143
    10  C    0.000404   0.004640   0.289421   5.160452   0.178977  -0.028683
    11  C   -0.000318   0.002472  -0.047854   0.178977   6.277842   0.208993
    12  C    0.000002  -0.000018   0.002143  -0.028683   0.208993   5.295927
    13  C   -0.000000   0.000003  -0.000215   0.008584  -0.222886   0.323244
    14  C    0.000002  -0.000018   0.002144  -0.028682   0.208988  -0.208674
    15  H    0.001773   0.000092   0.002650  -0.000173   0.000774  -0.000007
    16  H    0.392646  -0.017980   0.002952  -0.000020   0.000001  -0.000000
    17  H   -0.021553   0.397762  -0.022603  -0.004378   0.000163  -0.000002
    18  H    0.000040  -0.004207  -0.025734   0.382971  -0.024703  -0.005562
    19  H    0.000040  -0.004207  -0.025734   0.382969  -0.024702   0.002428
    20  H   -0.000000  -0.000009   0.000318  -0.006799  -0.022526   0.374788
    21  H    0.000000  -0.000001  -0.000463   0.004381  -0.046336   0.385714
    22  H    0.000000  -0.000000   0.000002  -0.000338   0.013367  -0.027363
    23  H   -0.000000  -0.000000   0.000006   0.000900   0.005139  -0.031071
    24  H   -0.000000  -0.000009   0.000318  -0.006799  -0.022526   0.010722
    25  H    0.000000  -0.000001  -0.000463   0.004381  -0.046336   0.010452
              13         14         15         16         17         18
     1  O   -0.000820   0.000771   0.006684   0.000000   0.000000  -0.000027
     2  C    0.016448  -0.038648  -0.001083   0.000002  -0.000055   0.001797
     3  C   -0.001214   0.006759  -0.020195   0.000061   0.002922  -0.000191
     4  C   -0.000002  -0.000008   0.375741   0.002606  -0.000109  -0.000049
     5  C    0.000000   0.000000  -0.013052  -0.022261   0.002750   0.000008
     6  Br   0.000000  -0.000000   0.000782   0.001164  -0.000051  -0.000000
     7  C   -0.000000   0.000002   0.001773   0.392646  -0.021553   0.000040
     8  C    0.000003  -0.000018   0.000092  -0.017980   0.397762  -0.004207
     9  C   -0.000215   0.002144   0.002650   0.002952  -0.022603  -0.025734
    10  C    0.008584  -0.028682  -0.000173  -0.000020  -0.004378   0.382971
    11  C   -0.222886   0.208988   0.000774   0.000001   0.000163  -0.024703
    12  C    0.323244  -0.208674  -0.000007  -0.000000  -0.000002  -0.005562
    13  C    5.283350   0.323243   0.000000   0.000000   0.000000  -0.000097
    14  C    0.323243   5.295931  -0.000007  -0.000000  -0.000002   0.002427
    15  H    0.000000  -0.000007   0.417427  -0.000048   0.000008   0.000004
    16  H    0.000000  -0.000000  -0.000048   0.428506  -0.003846  -0.000000
    17  H    0.000000  -0.000002   0.000008  -0.003846   0.444689   0.000938
    18  H   -0.000097   0.002427   0.000004  -0.000000   0.000938   0.479250
    19  H   -0.000097  -0.005562   0.000004  -0.000000   0.000938  -0.024103
    20  H   -0.024237   0.010722   0.000000  -0.000000   0.000000   0.005015
    21  H   -0.036786   0.010452  -0.000009   0.000000  -0.000000   0.000066
    22  H    0.384635  -0.027363  -0.000000  -0.000000  -0.000000   0.000009
    23  H    0.384648  -0.031071  -0.000000  -0.000000   0.000000  -0.000042
    24  H   -0.024236   0.374788   0.000000  -0.000000   0.000000   0.000017
    25  H   -0.036786   0.385716  -0.000009   0.000000  -0.000000  -0.000146
              19         20         21         22         23         24
     1  O   -0.000027   0.000047   0.009211   0.000039  -0.000004   0.000047
     2  C    0.001796   0.001792  -0.002039  -0.000520  -0.000389   0.001792
     3  C   -0.000191  -0.000100   0.002252   0.000015   0.000024  -0.000100
     4  C   -0.000049  -0.000000   0.000021  -0.000000  -0.000000  -0.000000
     5  C    0.000008  -0.000000  -0.000001  -0.000000   0.000000  -0.000000
     6  Br  -0.000000   0.000000  -0.000000  -0.000000  -0.000000   0.000000
     7  C    0.000040  -0.000000   0.000000   0.000000  -0.000000  -0.000000
     8  C   -0.004207  -0.000009  -0.000001  -0.000000  -0.000000  -0.000009
     9  C   -0.025734   0.000318  -0.000463   0.000002   0.000006   0.000318
    10  C    0.382969  -0.006799   0.004381  -0.000338   0.000900  -0.006799
    11  C   -0.024702  -0.022526  -0.046336   0.013367   0.005139  -0.022526
    12  C    0.002428   0.374788   0.385714  -0.027363  -0.031071   0.010722
    13  C   -0.000097  -0.024237  -0.036786   0.384635   0.384648  -0.024236
    14  C   -0.005562   0.010722   0.010452  -0.027363  -0.031071   0.374788
    15  H    0.000004   0.000000  -0.000009  -0.000000  -0.000000   0.000000
    16  H   -0.000000  -0.000000   0.000000  -0.000000  -0.000000  -0.000000
    17  H    0.000938   0.000000  -0.000000  -0.000000   0.000000   0.000000
    18  H   -0.024103   0.005015   0.000066   0.000009  -0.000042   0.000017
    19  H    0.479251   0.000017  -0.000146   0.000009  -0.000042   0.005016
    20  H    0.000017   0.494369  -0.019643   0.001305  -0.005169  -0.000419
    21  H   -0.000146  -0.019643   0.478707  -0.003914   0.002870  -0.000390
    22  H    0.000009   0.001305  -0.003914   0.488383  -0.022879   0.001305
    23  H   -0.000042  -0.005169   0.002870  -0.022879   0.502099  -0.005169
    24  H    0.005016  -0.000419  -0.000390   0.001305  -0.005169   0.494369
    25  H    0.000066  -0.000390   0.001219  -0.003914   0.002870  -0.019643
              25
     1  O    0.009210
     2  C   -0.002039
     3  C    0.002252
     4  C    0.000021
     5  C   -0.000001
     6  Br  -0.000000
     7  C    0.000000
     8  C   -0.000001
     9  C   -0.000463
    10  C    0.004381
    11  C   -0.046336
    12  C    0.010452
    13  C   -0.036786
    14  C    0.385716
    15  H   -0.000009
    16  H    0.000000
    17  H   -0.000000
    18  H   -0.000146
    19  H    0.000066
    20  H   -0.000390
    21  H    0.001219
    22  H   -0.003914
    23  H    0.002870
    24  H   -0.019643
    25  H    0.478708
 Mulliken charges:
               1
     1  O   -0.556154
     2  C    0.621151
     3  C   -0.172970
     4  C   -0.061499
     5  C   -0.083519
     6  Br  -0.061375
     7  C   -0.151649
     8  C   -0.152491
     9  C   -0.064641
    10  C   -0.288323
    11  C   -0.365864
    12  C   -0.281906
    13  C   -0.376780
    14  C   -0.281908
    15  H    0.228645
    16  H    0.216215
    17  H    0.202427
    18  H    0.212318
    19  H    0.212318
    20  H    0.190917
    21  H    0.214834
    22  H    0.197222
    23  H    0.197279
    24  H    0.190916
    25  H    0.214834
 Sum of Mulliken charges =  -0.00000
 Mulliken charges with hydrogens summed into heavy atoms:
               1
     1  O   -0.556154
     2  C    0.621151
     3  C   -0.172970
     4  C    0.167146
     5  C   -0.083519
     6  Br  -0.061375
     7  C    0.064566
     8  C    0.049936
     9  C   -0.064641
    10  C    0.136314
    11  C   -0.365864
    12  C    0.123845
    13  C    0.017722
    14  C    0.123842
 Electronic spatial extent (au):  <R**2>=           4868.9617
 Charge=             -0.0000 electrons
 Dipole moment (field-independent basis, Debye):
    X=              1.2447    Y=              3.1668    Z=             -0.0000  Tot=              3.4026
 Quadrupole moment (field-independent basis, Debye-Ang):
   XX=            -90.8080   YY=            -92.4908   ZZ=            -95.3438
   XY=              3.7558   XZ=             -0.0000   YZ=              0.0000
 Traceless Quadrupole moment (field-independent basis, Debye-Ang):
   XX=              2.0728   YY=              0.3901   ZZ=             -2.4629
   XY=              3.7558   XZ=             -0.0000   YZ=              0.0000
 Octapole moment (field-independent basis, Debye-Ang**2):
  XXX=           -107.0911  YYY=              5.1803  ZZZ=              0.0003  XYY=            -50.3204
  XXY=              0.1238  XXZ=              0.0004  XZZ=            -32.5882  YZZ=             -9.1007
  YYZ=              0.0003  XYZ=             -0.0001
 Hexadecapole moment (field-independent basis, Debye-Ang**3):
 XXXX=          -4637.3208 YYYY=           -734.6828 ZZZZ=           -226.1065 XXXY=             46.5972
 XXXZ=             -0.0009 YYYX=             52.8508 YYYZ=              0.0001 ZZZX=             -0.0015
 ZZZY=              0.0001 XXYY=           -892.2044 XXZZ=           -837.5267 YYZZ=           -163.7131
 XXYZ=             -0.0002 YYXZ=             -0.0003 ZZXY=             16.8533
 N-N= 1.111158859036D+03 E-N=-9.589077641346D+03  KE= 3.089721132466D+03
 There are a total of      571444 grid points.
 ElSum from          density=      126.0000061239
 ElSum from atomic densities=      126.0000527454
 Hirshfeld populations at iteration   1 (CA, CB, DipXYZ):
               1          2          3          4          5
     1  O    4.118040   4.118040  -0.004752   0.055357   0.000001
     2  C    2.925162   2.925162  -0.006837   0.017620  -0.000014
     3  C    3.014482   3.014482   0.029403  -0.044659  -0.000000
     4  C    3.012610   3.012610   0.008212  -0.048886   0.000000
     5  C    2.995636   2.995636  -0.046830  -0.012909   0.000000
     6  Br  17.521757  17.521757  -0.035221  -0.016549   0.000000
     7  C    3.015655   3.015655  -0.016022   0.033928   0.000001
     8  C    3.018523   3.018523   0.007453   0.048384   0.000000
     9  C    2.997173   2.997173   0.052634   0.037080   0.000000
    10  C    3.021887   3.021887  -0.011682  -0.002935   0.000000
    11  C    2.996931   2.996931  -0.009645   0.004057  -0.000000
    12  C    3.021986   3.021986   0.015467   0.002661  -0.009741
    13  C    3.023275   3.023275  -0.017038  -0.011912  -0.000000
    14  C    3.021987   3.021987   0.015466   0.002660   0.009742
    15  H    0.470985   0.470985  -0.015142  -0.164816  -0.000001
    16  H    0.475231   0.475231  -0.113404   0.119252   0.000002
    17  H    0.475721   0.475721   0.024468   0.160978   0.000001
    18  H    0.481478   0.481478   0.039840   0.086643   0.114121
    19  H    0.481478   0.481478   0.039840   0.086642  -0.114122
    20  H    0.485617   0.485617   0.007282   0.087017   0.118410
    21  H    0.483180   0.483180   0.001705  -0.134837   0.056838
    22  H    0.485534   0.485534   0.109369  -0.102907   0.000002
    23  H    0.486875   0.486875   0.062643   0.132585   0.000003
    24  H    0.485617   0.485617   0.007288   0.087018  -0.118408
    25  H    0.483180   0.483180   0.001707  -0.134837  -0.056839
       Tot  63.000003  63.000003   0.146204   0.286634  -0.000004

 Dip from Atomic Chgs              0.343408   0.959293   0.000001
         Total Dipole              0.489612   1.245927  -0.000004

 Hirshfeld charges, spin densities, dipoles, and CM5 charges using IRadAn=      5:
              Q-H        S-H        Dx         Dy         Dz        Q-CM5   
     1  O   -0.236080   0.000000  -0.004752   0.055357   0.000001  -0.283580
     2  C    0.149675   0.000000  -0.006837   0.017620  -0.000014   0.181828
     3  C   -0.028964   0.000000   0.029403  -0.044659  -0.000000  -0.031657
     4  C   -0.025221   0.000000   0.008212  -0.048886   0.000000  -0.074583
     5  C    0.008727   0.000000  -0.046830  -0.012909   0.000000  -0.012283
     6  Br  -0.043514   0.000000  -0.035221  -0.016549   0.000000  -0.028578
     7  C   -0.031310   0.000000  -0.016022   0.033928   0.000001  -0.084527
     8  C   -0.037047   0.000000   0.007453   0.048384   0.000000  -0.089555
     9  C    0.005654   0.000000   0.052634   0.037080   0.000000  -0.004706
    10  C   -0.043774   0.000000  -0.011682  -0.002935   0.000000  -0.139528
    11  C    0.006138   0.000000  -0.009645   0.004057  -0.000000  -0.010463
    12  C   -0.043973   0.000000   0.015467   0.002661  -0.009741  -0.145549
    13  C   -0.046550   0.000000  -0.017038  -0.011912  -0.000000  -0.152021
    14  C   -0.043974   0.000000   0.015466   0.002660   0.009742  -0.145550
    15  H    0.058029   0.000000  -0.015142  -0.164816  -0.000001   0.116362
    16  H    0.049538   0.000000  -0.113404   0.119252   0.000002   0.106115
    17  H    0.048558   0.000000   0.024468   0.160978   0.000001   0.104370
    18  H    0.037043   0.000000   0.039840   0.086643   0.114121   0.092450
    19  H    0.037043   0.000000   0.039840   0.086642  -0.114122   0.092450
    20  H    0.028766   0.000000   0.007282   0.087017   0.118410   0.082426
    21  H    0.033640   0.000000   0.001705  -0.134837   0.056838   0.091172
    22  H    0.028932   0.000000   0.109369  -0.102907   0.000002   0.081749
    23  H    0.026250   0.000000   0.062643   0.132585   0.000003   0.080057
    24  H    0.028766   0.000000   0.007288   0.087018  -0.118408   0.082425
    25  H    0.033640   0.000000   0.001707  -0.134837  -0.056839   0.091172
       Tot  -0.000006   0.000000   0.146204   0.286634  -0.000004  -0.000006
 Hirshfeld charges with hydrogens summed into heavy atoms:
              Q-H       Q-CM5   
     1  O   -0.236080  -0.283580
     2  C    0.149675   0.181828
     3  C   -0.028964  -0.031657
     4  C    0.032809   0.041780
     5  C    0.008727  -0.012283
     6  Br  -0.043514  -0.028578
     7  C    0.018227   0.021587
     8  C    0.011512   0.014815
     9  C    0.005654  -0.004706
    10  C    0.030313   0.045371
    11  C    0.006138  -0.010463
    12  C    0.018433   0.028049
    13  C    0.008632   0.009785
    14  C    0.018432   0.028047
 
 EQQ= 0.000000000000E+00 EQD= 0.000000000000E+00 EDD= 0.260553523636E-02
 EQQ+QD+DD= 0.260553523636E-02
 
 Running external command "gaunbo6 R"
         input file       "/home/rpaton/opt/midi/Gau-802001.EIn"
         output file      "/home/rpaton/opt/midi/Gau-802001.EOu"
         message file     "/home/rpaton/opt/midi/Gau-802001.EMs"
         fchk file        "/home/rpaton/opt/midi/Gau-802001.EFC"
         mat. el file     "/home/rpaton/opt/midi/Gau-802001.EUF"

 Writing WrtUnf unformatted file "/home/rpaton/opt/midi/Gau-802001.EUF"
 Gaussian matrix elements                                         Version   2 NLab=11 Len12L=8 Len4L=8
 Write SHELL TO ATOM MAP                   from file      0 offset           0 length                  99 to matrix element file.
 Write SHELL TYPES                         from file      0 offset           0 length                  99 to matrix element file.
 Write NUMBER OF PRIMITIVES PER SHELL      from file      0 offset           0 length                  99 to matrix element file.
 Write PRIMITIVE EXPONENTS                 from file      0 offset           0 length                 176 to matrix element file.
 Write CONTRACTION COEFFICIENTS            from file      0 offset           0 length                 176 to matrix element file.
 Write P(S=P) CONTRACTION COEFFICIENTS     from file      0 offset           0 length                 176 to matrix element file.
 Write COORDINATES OF EACH SHELL           from file      0 offset           0 length                 297 to matrix element file.
 Write BONDS PER ATOM                      from file      0 offset           0 length                  25 to matrix element file.
 Write BONDED ATOMS                        from file      0 offset           0 length                  54 to matrix element file.
 Write BOND TYPES                          from file      0 offset           0 length                  54 to matrix element file.
 Write ONIOM CHARGE/MULT                   from file      0 offset           0 length                  32 to matrix element file.
 Write ONIOM ATOM LAYERS                   from file      0 offset           0 length                  25 to matrix element file.
 Write ONIOM ATOM MODIFIERS                from file      0 offset           0 length                  25 to matrix element file.
 Write ONIOM ATOM TYPES                    from file      0 offset           0 length                  25 to matrix element file.
 Write ONIOM LINK ATOMS                    from file      0 offset           0 length                  25 to matrix element file.
 Write ONIOM LINK CHARGES                  from file      0 offset           0 length                  25 to matrix element file.
 Write ONIOM LINK DISTANCES                from file      0 offset           0 length                 100 to matrix element file.
 Write SYMINF INTS                         from file      0 offset           0 length                  26 to matrix element file.
 Write ROTTR TO SO                         from file      0 offset           0 length                  12 to matrix element file.
 Write GAUSSIAN SCALARS                    from file    501 offset           0 to matrix element file.
 Write OPTIMIZATION FLAGS                  from file      0 offset           0 length                  25 to matrix element file.
 Write INTEGER ISO                         from file      0 offset           0 length                  25 to matrix element file.
 Write INTEGER SPIN                        from file      0 offset           0 length                  25 to matrix element file.
 Write REAL ZEFFECTIVE                     from file      0 offset           0 length                  25 to matrix element file.
 Write REAL QUADRUPOLEMOMENT               from file      0 offset           0 length                  25 to matrix element file.
 Write REAL GFACTOR                        from file      0 offset           0 length                  25 to matrix element file.
 Write REAL ZNUCLEAR                       from file      0 offset           0 length                  25 to matrix element file.
 Write MULLIKEN CHARGES                    from file      0 offset           0 length                  25 to matrix element file.
 Write TYPE 6 CHARGES                      from file      0 offset           0 length                  25 to matrix element file.
 Write TYPE 7 CHARGES                      from file      0 offset           0 length                  25 to matrix element file.
 Write NUCLEAR GRADIENT                    from file  10584 offset           0 length                  75 to matrix element file.
 Array NUCLEAR FORCE CONSTANTS              on  file  10585 does not exist.
 Write ELECTRIC DIPOLE MOMENT              from file      0 offset           0 length                   3 to matrix element file.
 Write NON-ADIABATIC COUPLING              from file  10810 offset           0 length                  75 to matrix element file.
 Write FINITE EM FIELD                     from file  10521 offset           0 length                  35 to matrix element file.
 Write OVERLAP                             from file  10514 offset           0 length               14706 to matrix element file.
 Write CORE HAMILTONIAN ALPHA              from file  10515 offset           0 length               14706 to matrix element file.
 Write CORE HAMILTONIAN BETA               from file  10515 offset       14706 length               14706 to matrix element file.
 Write KINETIC ENERGY                      from file  10516 offset           0 length               14706 to matrix element file.
 Write ORTHOGONAL BASIS                    from file  10685 offset           0 length               29241 to matrix element file.
 Write DIPOLE INTEGRALS                    from file  10518 offset           0 length               44118 to matrix element file.
 Array DIP VEL INTEGRALS                    on  file  10572 does not exist.
 Array R X DEL INTEGRALS                    on  file  10572 does not exist.
 Write ALPHA ORBITAL ENERGIES              from file      0 offset           0 length                 171 to matrix element file.
 Write ALPHA MO COEFFICIENTS               from file  10524 offset           0 length               29241 to matrix element file.
 Write ALPHA DENSITY MATRIX                from file      0 offset           0 length               14706 to matrix element file.
 Write ALPHA FOCK MATRIX                   from file  10536 offset           0 length               14706 to matrix element file.
 Write ENERGY-WEIGHTED DENSITY             from file  10571 offset           0 length               14706 to matrix element file.
 Write ALPHA SCF DENSITY MATRIX            from file      0 offset           0 length               14706 to matrix element file.
 Write INTEGER PARAMETERS                  from file      0 offset           0 length                   2 to matrix element file.
 No 2e integrals to process.
 Perform NBO analysis...

 *********************************** NBO 7.0 ***********************************
             N A T U R A L   A T O M I C   O R B I T A L   A N D
          N A T U R A L   B O N D   O R B I T A L   A N A L Y S I S
 **************************** Robert Paton (I101709) ***************************
  (c) Copyright 1996-2019 Board of Regents of the University of Wisconsin System
      on behalf of the Theoretical Chemistry Institute.  All rights reserved.

          Cite this program [NBO 7.0.5 (4-Jun-2019)] as:

          NBO 7.0.  E. D. Glendening, J. K. Badenhoop, A. E. Reed,
          J. E. Carpenter, J. A. Bohmann, C. M. Morales, P. Karafiloglou,
          C. R. Landis, and F. Weinhold, Theoretical Chemistry Institute,
          University of Wisconsin, Madison, WI (2018)

       /AONBO  / : Checkpoint the AO to NBO transformation
                   NBOs sorted by occupancy
       /BNDIDX / : Print bond indices based on the NAO density matrix

 Filename set to /home/rpaton/opt/midi/Gau-802001

 Job title:  arbr39_wb97xd_popncreated by GaussianPrep


 NATURAL POPULATIONS:  Natural atomic orbital occupancies

  NAO Atom No lang   Type(AO)    Occupancy      Energy
 -------------------------------------------------------
   1    O  1  s      Cor( 1s)     1.99989     -19.14003
   2    O  1  s      Val( 2s)     1.69357      -0.73844
   3    O  1  s      Ryd( 3s)     0.00068       1.80925
   4    O  1  px     Val( 2p)     1.86257      -0.32298
   5    O  1  px     Ryd( 3p)     0.00171       1.85347
   6    O  1  py     Val( 2p)     1.59581      -0.32983
   7    O  1  py     Ryd( 3p)     0.00016       1.99364
   8    O  1  pz     Val( 2p)     1.32100      -0.25990
   9    O  1  pz     Ryd( 3p)     0.00026       1.68864
  10    O  1  dxy    Ryd( 3d)     0.00345       2.13974
  11    O  1  dxz    Ryd( 3d)     0.00004       1.89502
  12    O  1  dyz    Ryd( 3d)     0.00406       1.94038
  13    O  1  dx2y2  Ryd( 3d)     0.00478       2.45066
  14    O  1  dz2    Ryd( 3d)     0.00161       2.10412

  15    C  2  s      Cor( 1s)     1.99986     -10.31837
  16    C  2  s      Val( 2s)     0.81596      -0.07092
  17    C  2  s      Ryd( 3s)     0.00420       0.81403
  18    C  2  px     Val( 2p)     0.99179      -0.02248
  19    C  2  px     Ryd( 3p)     0.00627       1.20848
  20    C  2  py     Val( 2p)     0.81238       0.07088
  21    C  2  py     Ryd( 3p)     0.02283       1.15472
  22    C  2  pz     Val( 2p)     0.77663      -0.10435
  23    C  2  pz     Ryd( 3p)     0.00236       0.94657

  24    C  3  s      Cor( 1s)     1.99989     -10.24856
  25    C  3  s      Val( 2s)     0.86965      -0.03498
  26    C  3  s      Ryd( 3s)     0.00180       0.74106
  27    C  3  px     Val( 2p)     1.12815      -0.05113
  28    C  3  px     Ryd( 3p)     0.00470       1.52911
  29    C  3  py     Val( 2p)     1.10067      -0.04782
  30    C  3  py     Ryd( 3p)     0.00470       1.43019
  31    C  3  pz     Val( 2p)     1.03654      -0.12863
  32    C  3  pz     Ryd( 3p)     0.00028       1.00454

  33    C  4  s      Cor( 1s)     1.99983     -10.25824
  34    C  4  s      Val( 2s)     0.93816      -0.07243
  35    C  4  s      Ryd( 3s)     0.00119       0.71617
  36    C  4  px     Val( 2p)     1.06229      -0.02562
  37    C  4  px     Ryd( 3p)     0.00630       0.98476
  38    C  4  py     Val( 2p)     1.22707      -0.08734
  39    C  4  py     Ryd( 3p)     0.00706       1.37019
  40    C  4  pz     Val( 2p)     0.95256      -0.12277
  41    C  4  pz     Ryd( 3p)     0.00035       0.92589

  42    C  5  s      Cor( 1s)     1.99989     -10.30072
  43    C  5  s      Val( 2s)     0.93693      -0.15022
  44    C  5  s      Ryd( 3s)     0.00051       0.71245
  45    C  5  px     Val( 2p)     1.01304      -0.12525
  46    C  5  px     Ryd( 3p)     0.00684       1.32726
  47    C  5  py     Val( 2p)     1.10145      -0.07654
  48    C  5  py     Ryd( 3p)     0.00750       1.12295
  49    C  5  pz     Val( 2p)     1.07489      -0.16507
  50    C  5  pz     Ryd( 3p)     0.00076       0.94172

  51   Br  6  s      Cor( 3s)     2.00000     -19.98787
  52   Br  6  s      Cor( 1s)     2.00000    -451.80017
  53   Br  6  s      Cor( 2s)     1.99999     -79.83940
  54   Br  6  s      Val( 4s)     1.87007      -0.77142
  55   Br  6  s      Ryd( 5s)     0.00294       0.84786
  56   Br  6  px     Cor( 3p)     2.00000      -7.18137
  57   Br  6  px     Cor( 2p)     1.99999     -55.66757
  58   Br  6  px     Val( 4p)     1.20201      -0.24702
  59   Br  6  px     Ryd( 5p)     0.00336       0.73553
  60   Br  6  py     Cor( 3p)     2.00000      -7.16962
  61   Br  6  py     Cor( 2p)     1.99999     -55.66466
  62   Br  6  py     Val( 4p)     1.88851      -0.35043
  63   Br  6  py     Ryd( 5p)     0.00157       0.75993
  64   Br  6  pz     Cor( 3p)     2.00000      -7.16820
  65   Br  6  pz     Cor( 2p)     2.00000     -55.66426
  66   Br  6  pz     Val( 4p)     1.94379      -0.35931
  67   Br  6  pz     Ryd( 5p)     0.00078       0.72779
  68   Br  6  dxy    Cor( 3d)     1.99959      -2.77542
  69   Br  6  dxy    Ryd( 4d)     0.00235       0.94894
  70   Br  6  dxz    Cor( 3d)     1.99988      -2.77429
  71   Br  6  dxz    Ryd( 4d)     0.00195       0.71046
  72   Br  6  dyz    Cor( 3d)     1.99998      -2.76509
  73   Br  6  dyz    Ryd( 4d)     0.00027       0.65245
  74   Br  6  dx2y2  Cor( 3d)     1.99952      -2.77548
  75   Br  6  dx2y2  Ryd( 4d)     0.00337       0.96770
  76   Br  6  dz2    Cor( 3d)     1.99980      -2.76786
  77   Br  6  dz2    Ryd( 4d)     0.00160       0.76260

  78    C  7  s      Cor( 1s)     1.99987     -10.26075
  79    C  7  s      Val( 2s)     0.95075      -0.09779
  80    C  7  s      Ryd( 3s)     0.00093       0.73049
  81    C  7  px     Val( 2p)     1.16282      -0.06560
  82    C  7  px     Ryd( 3p)     0.00637       1.21191
  83    C  7  py     Val( 2p)     1.12666      -0.06261
  84    C  7  py     Ryd( 3p)     0.00500       1.15369
  85    C  7  pz     Val( 2p)     0.97472      -0.13131
  86    C  7  pz     Ryd( 3p)     0.00036       0.92212

  87    C  8  s      Cor( 1s)     1.99984     -10.25503
  88    C  8  s      Val( 2s)     0.94009      -0.07968
  89    C  8  s      Ryd( 3s)     0.00082       0.73310
  90    C  8  px     Val( 2p)     1.06874      -0.02805
  91    C  8  px     Ryd( 3p)     0.00511       1.01622
  92    C  8  py     Val( 2p)     1.21178      -0.08092
  93    C  8  py     Ryd( 3p)     0.00554       1.37240
  94    C  8  pz     Val( 2p)     1.00596      -0.13066
  95    C  8  pz     Ryd( 3p)     0.00030       0.92857

  96    C  9  s      Cor( 1s)     1.99990     -10.26327
  97    C  9  s      Val( 2s)     0.85162      -0.04053
  98    C  9  s      Ryd( 3s)     0.00112       0.74034
  99    C  9  px     Val( 2p)     1.08409      -0.04623
 100    C  9  px     Ryd( 3p)     0.00474       1.56323
 101    C  9  py     Val( 2p)     1.09174      -0.03744
 102    C  9  py     Ryd( 3p)     0.00433       1.27152
 103    C  9  pz     Val( 2p)     0.95306      -0.11975
 104    C  9  pz     Ryd( 3p)     0.00109       0.99744

 105    C 10  s      Cor( 1s)     1.99975     -10.24981
 106    C 10  s      Val( 2s)     1.02162      -0.16101
 107    C 10  s      Ryd( 3s)     0.00075       1.26529
 108    C 10  px     Val( 2p)     1.05254      -0.07993
 109    C 10  px     Ryd( 3p)     0.00264       0.95748
 110    C 10  py     Val( 2p)     1.13859      -0.09772
 111    C 10  py     Ryd( 3p)     0.00201       0.98104
 112    C 10  pz     Val( 2p)     1.27438      -0.12995
 113    C 10  pz     Ryd( 3p)     0.00188       1.13064

 114    C 11  s      Cor( 1s)     1.99977     -10.25416
 115    C 11  s      Val( 2s)     0.92489      -0.12860
 116    C 11  s      Ryd( 3s)     0.00144       1.46935
 117    C 11  px     Val( 2p)     1.09143      -0.08946
 118    C 11  px     Ryd( 3p)     0.00352       1.34909
 119    C 11  py     Val( 2p)     1.06822      -0.08353
 120    C 11  py     Ryd( 3p)     0.00257       1.39613
 121    C 11  pz     Val( 2p)     1.08576      -0.10248
 122    C 11  pz     Ryd( 3p)     0.00145       1.17371

 123    C 12  s      Cor( 1s)     1.99977     -10.23667
 124    C 12  s      Val( 2s)     1.05298      -0.17921
 125    C 12  s      Ryd( 3s)     0.00087       1.21533
 126    C 12  px     Val( 2p)     1.00707      -0.08137
 127    C 12  px     Ryd( 3p)     0.00121       0.95407
 128    C 12  py     Val( 2p)     1.27239      -0.11290
 129    C 12  py     Ryd( 3p)     0.00308       1.17247
 130    C 12  pz     Val( 2p)     1.12312      -0.07755
 131    C 12  pz     Ryd( 3p)     0.00175       0.98733

 132    C 13  s      Cor( 1s)     1.99978     -10.23294
 133    C 13  s      Val( 2s)     1.06198      -0.18667
 134    C 13  s      Ryd( 3s)     0.00057       1.19329
 135    C 13  px     Val( 2p)     1.13649      -0.07734
 136    C 13  px     Ryd( 3p)     0.00166       0.97957
 137    C 13  py     Val( 2p)     1.26596      -0.10731
 138    C 13  py     Ryd( 3p)     0.00234       1.17768
 139    C 13  pz     Val( 2p)     1.02786      -0.08326
 140    C 13  pz     Ryd( 3p)     0.00081       0.94234

 141    C 14  s      Cor( 1s)     1.99977     -10.23667
 142    C 14  s      Val( 2s)     1.05298      -0.17921
 143    C 14  s      Ryd( 3s)     0.00087       1.21533
 144    C 14  px     Val( 2p)     1.00707      -0.08137
 145    C 14  px     Ryd( 3p)     0.00121       0.95407
 146    C 14  py     Val( 2p)     1.27239      -0.11290
 147    C 14  py     Ryd( 3p)     0.00308       1.17247
 148    C 14  pz     Val( 2p)     1.12313      -0.07755
 149    C 14  pz     Ryd( 3p)     0.00175       0.98733

 150    H 15  s      Val( 1s)     0.72186       0.14594
 151    H 15  s      Ryd( 2s)     0.00290       0.62563

 152    H 16  s      Val( 1s)     0.73111       0.13580
 153    H 16  s      Ryd( 2s)     0.00121       0.60795

 154    H 17  s      Val( 1s)     0.74118       0.12954
 155    H 17  s      Ryd( 2s)     0.00080       0.60963

 156    H 18  s      Val( 1s)     0.72780       0.11696
 157    H 18  s      Ryd( 2s)     0.00121       0.63470

 158    H 19  s      Val( 1s)     0.72780       0.11696
 159    H 19  s      Ryd( 2s)     0.00121       0.63470

 160    H 20  s      Val( 1s)     0.74837       0.13168
 161    H 20  s      Ryd( 2s)     0.00117       0.62821

 162    H 21  s      Val( 1s)     0.73244       0.13786
 163    H 21  s      Ryd( 2s)     0.00348       0.64657

 164    H 22  s      Val( 1s)     0.74400       0.14301
 165    H 22  s      Ryd( 2s)     0.00107       0.61009

 166    H 23  s      Val( 1s)     0.74699       0.13015
 167    H 23  s      Ryd( 2s)     0.00126       0.62058

 168    H 24  s      Val( 1s)     0.74837       0.13168
 169    H 24  s      Ryd( 2s)     0.00117       0.62821

 170    H 25  s      Val( 1s)     0.73244       0.13786
 171    H 25  s      Ryd( 2s)     0.00348       0.64657


 Summary of Natural Population Analysis:

                                     Natural Population
             Natural    ---------------------------------------------
  Atom No    Charge        Core      Valence    Rydberg      Total
 --------------------------------------------------------------------
    O  1   -0.48959      1.99989     6.47295    0.01675     8.48959
    C  2    0.56771      1.99986     3.39677    0.03566     5.43229
    C  3   -0.14638      1.99989     4.13501    0.01148     6.14638
    C  4   -0.19482      1.99983     4.18008    0.01490     6.19482
    C  5   -0.14180      1.99989     4.12631    0.01560     6.14180
   Br  6    0.07868     27.99875     6.90438    0.01819    34.92132
    C  7   -0.22748      1.99987     4.21495    0.01266     6.22748
    C  8   -0.23820      1.99984     4.22658    0.01178     6.23820
    C  9    0.00831      1.99990     3.98052    0.01127     5.99169
    C 10   -0.49415      1.99975     4.48712    0.00727     6.49415
    C 11   -0.17904      1.99977     4.17029    0.00899     6.17904
    C 12   -0.46224      1.99977     4.45556    0.00691     6.46224
    C 13   -0.49746      1.99978     4.49229    0.00538     6.49746
    C 14   -0.46224      1.99977     4.45556    0.00691     6.46224
    H 15    0.27524      0.00000     0.72186    0.00290     0.72476
    H 16    0.26768      0.00000     0.73111    0.00121     0.73232
    H 17    0.25802      0.00000     0.74118    0.00080     0.74198
    H 18    0.27100      0.00000     0.72780    0.00121     0.72900
    H 19    0.27100      0.00000     0.72780    0.00121     0.72900
    H 20    0.25046      0.00000     0.74837    0.00117     0.74954
    H 21    0.26408      0.00000     0.73244    0.00348     0.73592
    H 22    0.25493      0.00000     0.74400    0.00107     0.74507
    H 23    0.25175      0.00000     0.74699    0.00126     0.74825
    H 24    0.25046      0.00000     0.74837    0.00117     0.74954
    H 25    0.26407      0.00000     0.73244    0.00348     0.73593
 ====================================================================
 * Total *  0.00000     53.99654    71.80072    0.20274   126.00000

                                 Natural Population
 ---------------------------------------------------------
   Core                      53.99654 ( 99.9936% of   54)
   Valence                   71.80072 ( 99.7232% of   72)
   Natural Minimal Basis    125.79726 ( 99.8391% of  126)
   Natural Rydberg Basis      0.20274 (  0.1609% of  126)
 ---------------------------------------------------------

    Atom No         Natural Electron Configuration
 ----------------------------------------------------------------------------
      O  1      [core]2s( 1.69)2p( 4.78)3d( 0.01)
      C  2      [core]2s( 0.82)2p( 2.58)3p( 0.03)
      C  3      [core]2s( 0.87)2p( 3.27)3p( 0.01)
      C  4      [core]2s( 0.94)2p( 3.24)3p( 0.01)
      C  5      [core]2s( 0.94)2p( 3.19)3p( 0.02)
     Br  6      [core]4s( 1.87)4p( 5.03)4d( 0.01)5p( 0.01)
      C  7      [core]2s( 0.95)2p( 3.26)3p( 0.01)
      C  8      [core]2s( 0.94)2p( 3.29)3p( 0.01)
      C  9      [core]2s( 0.85)2p( 3.13)3p( 0.01)
      C 10      [core]2s( 1.02)2p( 3.47)3p( 0.01)
      C 11      [core]2s( 0.92)2p( 3.25)3p( 0.01)
      C 12      [core]2s( 1.05)2p( 3.40)3p( 0.01)
      C 13      [core]2s( 1.06)2p( 3.43)
      C 14      [core]2s( 1.05)2p( 3.40)3p( 0.01)
      H 15            1s( 0.72)
      H 16            1s( 0.73)
      H 17            1s( 0.74)
      H 18            1s( 0.73)
      H 19            1s( 0.73)
      H 20            1s( 0.75)
      H 21            1s( 0.73)
      H 22            1s( 0.74)
      H 23            1s( 0.75)
      H 24            1s( 0.75)
      H 25            1s( 0.73)


 Wiberg bond index matrix in the NAO basis:

     Atom    1       2       3       4       5       6       7       8       9
     ---- ------  ------  ------  ------  ------  ------  ------  ------  ------
   1.  O  0.0000  1.8242  0.0554  0.0266  0.0010  0.0005  0.0164  0.0009  0.0348
   2.  C  1.8242  0.0000  1.0131  0.0154  0.0072  0.0010  0.0051  0.0054  0.0220
   3.  C  0.0554  1.0131  0.0000  1.3589  0.0137  0.0117  0.0953  0.0135  1.3545
   4.  C  0.0266  0.0154  1.3589  0.0000  1.4305  0.0386  0.0143  0.1093  0.0161
   5.  C  0.0010  0.0072  0.0137  1.4305  0.0000  1.0343  1.3826  0.0135  0.0950
   6. Br  0.0005  0.0010  0.0117  0.0386  1.0343  0.0000  0.0352  0.0113  0.0121
   7.  C  0.0164  0.0051  0.0953  0.0143  1.3826  0.0352  0.0000  1.4437  0.0129
   8.  C  0.0009  0.0054  0.0135  0.1093  0.0135  0.0113  1.4437  0.0000  1.3935
   9.  C  0.0348  0.0220  1.3545  0.0161  0.0950  0.0121  0.0129  1.3935  0.0000
  10.  C  0.0065  0.0095  0.0099  0.0061  0.0011  0.0005  0.0068  0.0121  1.0019
  11.  C  0.0590  0.9555  0.0070  0.0043  0.0004  0.0008  0.0003  0.0038  0.0055
  12.  C  0.0154  0.0119  0.0028  0.0009  0.0002  0.0001  0.0010  0.0001  0.0038
  13.  C  0.0015  0.0039  0.0005  0.0001  0.0000  0.0000  0.0000  0.0000  0.0003
  14.  C  0.0154  0.0119  0.0028  0.0009  0.0002  0.0001  0.0010  0.0001  0.0038
  15.  H  0.0058  0.0021  0.0055  0.8914  0.0044  0.0044  0.0058  0.0001  0.0066
  16.  H  0.0001  0.0002  0.0002  0.0056  0.0039  0.0048  0.9020  0.0046  0.0057
  17.  H  0.0006  0.0003  0.0068  0.0001  0.0058  0.0009  0.0043  0.9062  0.0044
  18.  H  0.0018  0.0024  0.0083  0.0001  0.0029  0.0004  0.0000  0.0050  0.0022
  19.  H  0.0018  0.0024  0.0083  0.0001  0.0029  0.0004  0.0000  0.0050  0.0022
  20.  H  0.0007  0.0012  0.0001  0.0000  0.0000  0.0000  0.0000  0.0000  0.0000
  21.  H  0.0078  0.0023  0.0014  0.0001  0.0000  0.0000  0.0000  0.0001  0.0001
  22.  H  0.0005  0.0004  0.0003  0.0000  0.0000  0.0000  0.0000  0.0000  0.0000
  23.  H  0.0001  0.0001  0.0000  0.0000  0.0000  0.0000  0.0000  0.0000  0.0000
  24.  H  0.0007  0.0012  0.0001  0.0000  0.0000  0.0000  0.0000  0.0000  0.0000
  25.  H  0.0078  0.0023  0.0014  0.0001  0.0000  0.0000  0.0000  0.0001  0.0001

     Atom   10      11      12      13      14      15      16      17      18
     ---- ------  ------  ------  ------  ------  ------  ------  ------  ------
   1.  O  0.0065  0.0590  0.0154  0.0015  0.0154  0.0058  0.0001  0.0006  0.0018
   2.  C  0.0095  0.9555  0.0119  0.0039  0.0119  0.0021  0.0002  0.0003  0.0024
   3.  C  0.0099  0.0070  0.0028  0.0005  0.0028  0.0055  0.0002  0.0068  0.0083
   4.  C  0.0061  0.0043  0.0009  0.0001  0.0009  0.8914  0.0056  0.0001  0.0001
   5.  C  0.0011  0.0004  0.0002  0.0000  0.0002  0.0044  0.0039  0.0058  0.0029
   6. Br  0.0005  0.0008  0.0001  0.0000  0.0001  0.0044  0.0048  0.0009  0.0004
   7.  C  0.0068  0.0003  0.0010  0.0000  0.0010  0.0058  0.9020  0.0043  0.0000
   8.  C  0.0121  0.0038  0.0001  0.0000  0.0001  0.0001  0.0046  0.9062  0.0050
   9.  C  1.0019  0.0055  0.0038  0.0003  0.0038  0.0066  0.0057  0.0044  0.0022
  10.  C  0.0000  0.9873  0.0073  0.0007  0.0073  0.0002  0.0003  0.0023  0.8957
  11.  C  0.9873  0.0000  0.9657  0.0084  0.9657  0.0010  0.0002  0.0000  0.0024
  12.  C  0.0073  0.9657  0.0000  1.0027  0.0105  0.0000  0.0000  0.0000  0.0031
  13.  C  0.0007  0.0084  1.0027  0.0000  1.0027  0.0000  0.0000  0.0000  0.0000
  14.  C  0.0073  0.9657  0.0105  1.0027  0.0000  0.0000  0.0000  0.0000  0.0018
  15.  H  0.0002  0.0010  0.0000  0.0000  0.0000  0.0000  0.0003  0.0003  0.0001
  16.  H  0.0003  0.0002  0.0000  0.0000  0.0000  0.0003  0.0000  0.0022  0.0000
  17.  H  0.0023  0.0000  0.0000  0.0000  0.0000  0.0003  0.0022  0.0000  0.0001
  18.  H  0.8957  0.0024  0.0031  0.0000  0.0018  0.0001  0.0000  0.0001  0.0000
  19.  H  0.8957  0.0024  0.0018  0.0000  0.0031  0.0001  0.0000  0.0001  0.0008
  20.  H  0.0019  0.0026  0.9195  0.0028  0.0048  0.0000  0.0000  0.0000  0.0007
  21.  H  0.0042  0.0021  0.9069  0.0022  0.0004  0.0000  0.0000  0.0000  0.0001
  22.  H  0.0001  0.0053  0.0025  0.9192  0.0025  0.0000  0.0000  0.0000  0.0000
  23.  H  0.0001  0.0002  0.0022  0.9200  0.0022  0.0000  0.0000  0.0000  0.0000
  24.  H  0.0019  0.0026  0.0048  0.0028  0.9195  0.0000  0.0000  0.0000  0.0000
  25.  H  0.0042  0.0021  0.0004  0.0022  0.9069  0.0000  0.0000  0.0000  0.0002

     Atom   19      20      21      22      23      24      25
     ---- ------  ------  ------  ------  ------  ------  ------
   1.  O  0.0018  0.0007  0.0078  0.0005  0.0001  0.0007  0.0078
   2.  C  0.0024  0.0012  0.0023  0.0004  0.0001  0.0012  0.0023
   3.  C  0.0083  0.0001  0.0014  0.0003  0.0000  0.0001  0.0014
   4.  C  0.0001  0.0000  0.0001  0.0000  0.0000  0.0000  0.0001
   5.  C  0.0029  0.0000  0.0000  0.0000  0.0000  0.0000  0.0000
   6. Br  0.0004  0.0000  0.0000  0.0000  0.0000  0.0000  0.0000
   7.  C  0.0000  0.0000  0.0000  0.0000  0.0000  0.0000  0.0000
   8.  C  0.0050  0.0000  0.0001  0.0000  0.0000  0.0000  0.0001
   9.  C  0.0022  0.0000  0.0001  0.0000  0.0000  0.0000  0.0001
  10.  C  0.8957  0.0019  0.0042  0.0001  0.0001  0.0019  0.0042
  11.  C  0.0024  0.0026  0.0021  0.0053  0.0002  0.0026  0.0021
  12.  C  0.0018  0.9195  0.9069  0.0025  0.0022  0.0048  0.0004
  13.  C  0.0000  0.0028  0.0022  0.9192  0.9200  0.0028  0.0022
  14.  C  0.0031  0.0048  0.0004  0.0025  0.0022  0.9195  0.9069
  15.  H  0.0001  0.0000  0.0000  0.0000  0.0000  0.0000  0.0000
  16.  H  0.0000  0.0000  0.0000  0.0000  0.0000  0.0000  0.0000
  17.  H  0.0001  0.0000  0.0000  0.0000  0.0000  0.0000  0.0000
  18.  H  0.0008  0.0007  0.0001  0.0000  0.0000  0.0000  0.0002
  19.  H  0.0000  0.0000  0.0002  0.0000  0.0000  0.0007  0.0001
  20.  H  0.0000  0.0000  0.0008  0.0008  0.0018  0.0009  0.0001
  21.  H  0.0002  0.0008  0.0000  0.0018  0.0047  0.0001  0.0000
  22.  H  0.0000  0.0008  0.0018  0.0000  0.0006  0.0008  0.0018
  23.  H  0.0000  0.0018  0.0047  0.0006  0.0000  0.0018  0.0047
  24.  H  0.0007  0.0009  0.0001  0.0008  0.0018  0.0000  0.0008
  25.  H  0.0001  0.0001  0.0000  0.0018  0.0047  0.0008  0.0000


 Wiberg bond index, Totals by atom:

     Atom    1
     ---- ------
   1.  O  2.0856
   2.  C  3.9012
   3.  C  3.9715
   4.  C  3.9195
   5.  C  3.9998
   6. Br  1.1573
   7.  C  3.9272
   8.  C  3.9285
   9.  C  3.9778
  10.  C  3.8635
  11.  C  3.9849
  12.  C  3.8637
  13.  C  3.8700
  14.  C  3.8637
  15.  H  0.9284
  16.  H  0.9301
  17.  H  0.9346
  18.  H  0.9283
  19.  H  0.9283
  20.  H  0.9390
  21.  H  0.9354
  22.  H  0.9366
  23.  H  0.9385
  24.  H  0.9390
  25.  H  0.9354


 NBI: Natural Binding Index (NCU strength parameters)

     Atom    1       2       3       4       5       6       7       8       9
     ---- ------  ------  ------  ------  ------  ------  ------  ------  ------
   1.  O  0.0000  1.3506  0.2354  0.1632  0.0321  0.0234  0.1282  0.0293  0.1867
   2.  C  1.3506  0.0000  1.0066  0.1241  0.0847  0.0314  0.0717  0.0735  0.1485
   3.  C  0.2354  1.0066  0.0000  1.1657  0.1169  0.1084  0.3087  0.1163  1.1638
   4.  C  0.1632  0.1241  1.1657  0.0000  1.1960  0.1965  0.1198  0.3305  0.1268
   5.  C  0.0321  0.0847  0.1169  1.1960  0.0000  1.0170  1.1758  0.1161  0.3083
   6. Br  0.0234  0.0314  0.1084  0.1965  1.0170  0.0000  0.1876  0.1063  0.1102
   7.  C  0.1282  0.0717  0.3087  0.1198  1.1758  0.1876  0.0000  1.2016  0.1138
   8.  C  0.0293  0.0735  0.1163  0.3305  0.1161  0.1063  1.2016  0.0000  1.1805
   9.  C  0.1867  0.1485  1.1638  0.1268  0.3083  0.1102  0.1138  1.1805  0.0000
  10.  C  0.0809  0.0975  0.0993  0.0782  0.0330  0.0219  0.0827  0.1101  1.0010
  11.  C  0.2429  0.9775  0.0839  0.0659  0.0197  0.0283  0.0172  0.0613  0.0740
  12.  C  0.1241  0.1091  0.0533  0.0297  0.0150  0.0084  0.0323  0.0118  0.0613
  13.  C  0.0389  0.0623  0.0215  0.0097  0.0061  0.0054  0.0053  0.0057  0.0166
  14.  C  0.1241  0.1091  0.0533  0.0297  0.0150  0.0084  0.0323  0.0118  0.0613
  15.  H  0.0759  0.0460  0.0742  0.9442  0.0662  0.0663  0.0763  0.0119  0.0811
  16.  H  0.0075  0.0141  0.0151  0.0746  0.0625  0.0692  0.9497  0.0676  0.0755
  17.  H  0.0248  0.0170  0.0826  0.0110  0.0763  0.0297  0.0652  0.9520  0.0666
  18.  H  0.0426  0.0493  0.0909  0.0074  0.0538  0.0204  0.0059  0.0706  0.0474
  19.  H  0.0426  0.0493  0.0909  0.0074  0.0538  0.0204  0.0059  0.0706  0.0474
  20.  H  0.0271  0.0346  0.0087  0.0070  0.0030  0.0023  0.0044  0.0061  0.0059
  21.  H  0.0884  0.0478  0.0371  0.0077  0.0067  0.0057  0.0046  0.0116  0.0103
  22.  H  0.0215  0.0206  0.0164  0.0055  0.0032  0.0037  0.0015  0.0018  0.0057
  23.  H  0.0101  0.0108  0.0033  0.0026  0.0010  0.0012  0.0007  0.0018  0.0047
  24.  H  0.0271  0.0346  0.0087  0.0070  0.0030  0.0023  0.0044  0.0061  0.0059
  25.  H  0.0884  0.0478  0.0371  0.0077  0.0067  0.0057  0.0046  0.0116  0.0103

     Atom   10      11      12      13      14      15      16      17      18
     ---- ------  ------  ------  ------  ------  ------  ------  ------  ------
   1.  O  0.0809  0.2429  0.1241  0.0389  0.1241  0.0759  0.0075  0.0248  0.0426
   2.  C  0.0975  0.9775  0.1091  0.0623  0.1091  0.0460  0.0141  0.0170  0.0493
   3.  C  0.0993  0.0839  0.0533  0.0215  0.0533  0.0742  0.0151  0.0826  0.0909
   4.  C  0.0782  0.0659  0.0297  0.0097  0.0297  0.9442  0.0746  0.0110  0.0074
   5.  C  0.0330  0.0197  0.0150  0.0061  0.0150  0.0662  0.0625  0.0763  0.0538
   6. Br  0.0219  0.0283  0.0084  0.0054  0.0084  0.0663  0.0692  0.0297  0.0204
   7.  C  0.0827  0.0172  0.0323  0.0053  0.0323  0.0763  0.9497  0.0652  0.0059
   8.  C  0.1101  0.0613  0.0118  0.0057  0.0118  0.0119  0.0676  0.9520  0.0706
   9.  C  1.0010  0.0740  0.0613  0.0166  0.0613  0.0811  0.0755  0.0666  0.0474
  10.  C  0.0000  0.9936  0.0852  0.0259  0.0852  0.0146  0.0166  0.0481  0.9464
  11.  C  0.9936  0.0000  0.9827  0.0915  0.9827  0.0321  0.0129  0.0069  0.0495
  12.  C  0.0852  0.9827  0.0000  1.0013  0.1025  0.0054  0.0041  0.0040  0.0561
  13.  C  0.0259  0.0915  1.0013  0.0000  1.0013  0.0040  0.0021  0.0018  0.0061
  14.  C  0.0852  0.9827  0.1025  1.0013  0.0000  0.0054  0.0041  0.0040  0.0427
  15.  H  0.0146  0.0321  0.0054  0.0040  0.0054  0.0000  0.0184  0.0177  0.0106
  16.  H  0.0166  0.0129  0.0041  0.0021  0.0041  0.0184  0.0000  0.0473  0.0008
  17.  H  0.0481  0.0069  0.0040  0.0018  0.0040  0.0177  0.0473  0.0000  0.0104
  18.  H  0.9464  0.0495  0.0561  0.0061  0.0427  0.0106  0.0008  0.0104  0.0000
  19.  H  0.9464  0.0495  0.0427  0.0061  0.0561  0.0106  0.0008  0.0104  0.0280
  20.  H  0.0439  0.0514  0.9589  0.0529  0.0693  0.0022  0.0017  0.0010  0.0272
  21.  H  0.0646  0.0458  0.9523  0.0473  0.0197  0.0063  0.0022  0.0016  0.0076
  22.  H  0.0098  0.0729  0.0500  0.9587  0.0500  0.0029  0.0009  0.0009  0.0015
  23.  H  0.0085  0.0145  0.0466  0.9592  0.0466  0.0003  0.0004  0.0005  0.0009
  24.  H  0.0439  0.0514  0.0693  0.0529  0.9589  0.0022  0.0017  0.0010  0.0028
  25.  H  0.0646  0.0458  0.0197  0.0473  0.9523  0.0063  0.0022  0.0016  0.0155

     Atom   19      20      21      22      23      24      25
     ---- ------  ------  ------  ------  ------  ------  ------
   1.  O  0.0426  0.0271  0.0884  0.0215  0.0101  0.0271  0.0884
   2.  C  0.0493  0.0346  0.0478  0.0206  0.0108  0.0346  0.0478
   3.  C  0.0909  0.0087  0.0371  0.0164  0.0033  0.0087  0.0371
   4.  C  0.0074  0.0070  0.0077  0.0055  0.0026  0.0070  0.0077
   5.  C  0.0538  0.0030  0.0067  0.0032  0.0010  0.0030  0.0067
   6. Br  0.0204  0.0023  0.0057  0.0037  0.0012  0.0023  0.0057
   7.  C  0.0059  0.0044  0.0046  0.0015  0.0007  0.0044  0.0046
   8.  C  0.0706  0.0061  0.0116  0.0018  0.0018  0.0061  0.0116
   9.  C  0.0474  0.0059  0.0103  0.0057  0.0047  0.0059  0.0103
  10.  C  0.9464  0.0439  0.0646  0.0098  0.0085  0.0439  0.0646
  11.  C  0.0495  0.0514  0.0458  0.0729  0.0145  0.0514  0.0458
  12.  C  0.0427  0.9589  0.9523  0.0500  0.0466  0.0693  0.0197
  13.  C  0.0061  0.0529  0.0473  0.9587  0.9592  0.0529  0.0473
  14.  C  0.0561  0.0693  0.0197  0.0500  0.0466  0.9589  0.9523
  15.  H  0.0106  0.0022  0.0063  0.0029  0.0003  0.0022  0.0063
  16.  H  0.0008  0.0017  0.0022  0.0009  0.0004  0.0017  0.0022
  17.  H  0.0104  0.0010  0.0016  0.0009  0.0005  0.0010  0.0016
  18.  H  0.0280  0.0272  0.0076  0.0015  0.0009  0.0028  0.0155
  19.  H  0.0000  0.0028  0.0155  0.0015  0.0009  0.0272  0.0076
  20.  H  0.0028  0.0000  0.0278  0.0281  0.0428  0.0304  0.0089
  21.  H  0.0155  0.0278  0.0000  0.0424  0.0683  0.0089  0.0062
  22.  H  0.0015  0.0281  0.0424  0.0000  0.0243  0.0281  0.0424
  23.  H  0.0009  0.0428  0.0683  0.0243  0.0000  0.0428  0.0683
  24.  H  0.0272  0.0304  0.0089  0.0281  0.0428  0.0000  0.0278
  25.  H  0.0076  0.0089  0.0062  0.0424  0.0683  0.0278  0.0000


 NATURAL BOND ORBITAL ANALYSIS:

                            Occupancies       Lewis Structure    Low   High
         Max    Occ     -------------------  -----------------   occ   occ
  Cycle  Ctr   Thresh    Lewis   non-Lewis     CR  BD  nC  LP    (L)   (NL)
 ============================================================================
    1     2     1.90   121.46664   4.53336     27  28   0   8     4      6
    2     2     1.86   122.35704   3.64296     27  28   0   8     3      4
    3     2     1.68   122.96417   3.03583     27  29   0   7     2      4
    4     2     1.67   123.62920   2.37080     27  30   0   6     1      4
    5     2     1.65   123.62920   2.37080     27  30   0   6     1      4
    6     2     1.62   124.21675   1.78325     27  31   0   5     0      4
 ----------------------------------------------------------------------------

 Structure accepted: No low occupancy Lewis orbitals

 -------------------------------------------------------
   Core                     53.99654 ( 99.994% of  54)
   Valence Lewis            70.22021 ( 97.528% of  72)
  ==================      =============================
   Total Lewis             124.21675 ( 98.585% of 126)
  -----------------------------------------------------
   Valence non-Lewis         1.64334 (  1.304% of 126)
   Rydberg non-Lewis         0.13991 (  0.111% of 126)
  ==================      =============================
   Total non-Lewis           1.78325 (  1.415% of 126)
 -------------------------------------------------------


     (Occupancy)   Bond orbital / Coefficients / Hybrids
 ------------------ Lewis ------------------------------------------------------
   1. (1.99989) CR ( 1) O  1            s(100.00%)
                                         1.0000  0.0000  0.0000  0.0000  0.0000
                                         0.0000  0.0000  0.0000  0.0000  0.0000
                                         0.0000  0.0000  0.0000  0.0000
   2. (1.99986) CR ( 1) C  2            s(100.00%)
                                         1.0000  0.0000  0.0000  0.0000  0.0000
                                         0.0000  0.0000  0.0000  0.0000
   3. (1.99989) CR ( 1) C  3            s(100.00%)
                                         1.0000  0.0000  0.0000  0.0000  0.0000
                                         0.0000  0.0000  0.0000  0.0000
   4. (1.99983) CR ( 1) C  4            s(100.00%)
                                         1.0000  0.0000  0.0000  0.0000  0.0000
                                         0.0000  0.0000  0.0000  0.0000
   5. (1.99989) CR ( 1) C  5            s(100.00%)
                                         1.0000  0.0000  0.0000  0.0000  0.0000
                                         0.0000  0.0000  0.0000  0.0000
   6. (2.00000) CR ( 1)Br  6            s(100.00%)
                                         1.0000  0.0000  0.0000  0.0000  0.0000
                                         0.0000  0.0000  0.0000  0.0000  0.0000
                                         0.0000  0.0000  0.0000  0.0000  0.0000
                                         0.0000  0.0000  0.0000  0.0000  0.0000
                                         0.0000  0.0000  0.0000  0.0000  0.0000
                                         0.0000  0.0000
   7. (2.00000) CR ( 2)Br  6            s(100.00%)
                                         0.0000  1.0000  0.0000  0.0000  0.0000
                                         0.0000  0.0000  0.0000  0.0000  0.0000
                                         0.0000  0.0000  0.0000  0.0000  0.0000
                                         0.0000  0.0000  0.0000  0.0000  0.0000
                                         0.0000  0.0000  0.0000  0.0000  0.0000
                                         0.0000  0.0000
   8. (1.99999) CR ( 3)Br  6            s(100.00%)
                                         0.0000  0.0000  1.0000  0.0000  0.0000
                                         0.0000  0.0000  0.0000  0.0000  0.0000
                                         0.0000  0.0000  0.0000  0.0000  0.0000
                                         0.0000  0.0000  0.0000  0.0000  0.0000
                                         0.0000  0.0000  0.0000  0.0000  0.0000
                                         0.0000  0.0000
   9. (2.00000) CR ( 4)Br  6            s(  0.00%)p 1.00(100.00%)
                                         0.0000  0.0000  0.0000  0.0000  0.0000
                                         1.0000  0.0000  0.0000  0.0000  0.0000
                                         0.0000  0.0000  0.0000  0.0000  0.0000
                                         0.0000  0.0000  0.0000  0.0000  0.0000
                                         0.0000  0.0000  0.0000  0.0000  0.0000
                                         0.0000  0.0000
  10. (1.99999) CR ( 5)Br  6            s(  0.00%)p 1.00(100.00%)
                                         0.0000  0.0000  0.0000  0.0000  0.0000
                                         0.0000  1.0000  0.0000  0.0000  0.0000
                                         0.0000  0.0000  0.0000  0.0000  0.0000
                                         0.0000  0.0000  0.0000  0.0000  0.0000
                                         0.0000  0.0000  0.0000  0.0000  0.0000
                                         0.0000  0.0000
  11. (2.00000) CR ( 6)Br  6            s(  0.00%)p 1.00(100.00%)
                                         0.0000  0.0000  0.0000  0.0000  0.0000
                                         0.0000  0.0000  0.0000  0.0000  1.0000
                                         0.0000  0.0000  0.0000  0.0000  0.0000
                                         0.0000  0.0000  0.0000  0.0000  0.0000
                                         0.0000  0.0000  0.0000  0.0000  0.0000
                                         0.0000  0.0000
  12. (1.99999) CR ( 7)Br  6            s(  0.00%)p 1.00(100.00%)
                                         0.0000  0.0000  0.0000  0.0000  0.0000
                                         0.0000  0.0000  0.0000  0.0000  0.0000
                                         1.0000  0.0000  0.0000  0.0000  0.0000
                                         0.0000  0.0000  0.0000  0.0000  0.0000
                                         0.0000  0.0000  0.0000  0.0000  0.0000
                                         0.0000  0.0000
  13. (2.00000) CR ( 8)Br  6            s(  0.00%)p 1.00(100.00%)
                                         0.0000  0.0000  0.0000  0.0000  0.0000
                                         0.0000  0.0000  0.0000  0.0000  0.0000
                                         0.0000  0.0000  0.0000  1.0000  0.0000
                                         0.0000  0.0000  0.0000  0.0000  0.0000
                                         0.0000  0.0000  0.0000  0.0000  0.0000
                                         0.0000  0.0000
  14. (2.00000) CR ( 9)Br  6            s(  0.00%)p 1.00(100.00%)
                                         0.0000  0.0000  0.0000  0.0000  0.0000
                                         0.0000  0.0000  0.0000  0.0000  0.0000
                                         0.0000  0.0000  0.0000  0.0000  1.0000
                                         0.0000  0.0000  0.0000  0.0000  0.0000
                                         0.0000  0.0000  0.0000  0.0000  0.0000
                                         0.0000  0.0000
  15. (1.99959) CR (10)Br  6            s(  0.00%)p 0.00(  0.00%)d 1.00(100.00%)
                                         0.0000  0.0000  0.0000  0.0000  0.0000
                                         0.0000  0.0000  0.0000  0.0000  0.0000
                                         0.0000  0.0000  0.0000  0.0000  0.0000
                                         0.0000  0.0000  1.0000  0.0000  0.0000
                                         0.0000  0.0000  0.0000  0.0000  0.0000
                                         0.0000  0.0000
  16. (1.99988) CR (11)Br  6            s(  0.00%)p 0.00(  0.00%)d 1.00(100.00%)
                                         0.0000  0.0000  0.0000  0.0000  0.0000
                                         0.0000  0.0000  0.0000  0.0000  0.0000
                                         0.0000  0.0000  0.0000  0.0000  0.0000
                                         0.0000  0.0000  0.0000  0.0000  1.0000
                                         0.0000  0.0000  0.0000  0.0000  0.0000
[...]
                                                     79(g),76(g)
   50. BD ( 1) C  9- C 10       1.97632    -0.63383  68(v),79(g),69(g),133(v)
                                                     76(v),67(v),108(v),82(g)
                                                     66(v),146(v),83(g),84(g)
                                                     85(v),86(v),109(v)
   51. BD ( 1) C 10- C 11       1.97830    -0.61679  64(v),79(v),149(v),157(v)
                                                     81(g),85(g),86(g),105(v)
                                                     138(v),83(g),84(g),69(v)
                                                     67(g),89(v),94(v)
   52. BD ( 1) C 10- H 18       1.97682    -0.56576  70(v),85(v),86(v),139(v)
                                                     69(v),81(g),82(g)
   53. BD ( 1) C 10- H 19       1.97682    -0.56576  70(v),86(v),85(v),139(v)
                                                     69(v),81(g),82(g)
   54. BD ( 1) C 11- C 12       1.96297    -0.58209  65(v),93(v),91(v),104(v)
                                                     67(g),82(g),106(v),86(g)
                                                     141(v),143(v),83(v)
   55. BD ( 1) C 11- C 14       1.96297    -0.58209  65(v),88(v),91(v),104(v)
                                                     67(g),82(g),106(v),85(g)
                                                     141(v),143(v),84(v)
   56. BD ( 1) C 12- C 13       1.98980    -0.58195  93(v),67(v)
   57. BD ( 1) C 12- H 20       1.99245    -0.56488  145(v),82(v)
   58. BD ( 1) C 12- H 21       1.98808    -0.55517  82(v),92(v),67(v),153(v)
   59. BD ( 1) C 13- C 14       1.98980    -0.58195  88(v),67(v)
   60. BD ( 1) C 13- H 22       1.99431    -0.55993
   61. BD ( 1) C 13- H 23       1.99024    -0.55753  89(v),94(v),149(v),157(v)
   62. BD ( 1) C 14- H 24       1.99245    -0.56488  145(v),82(v)
   63. BD ( 1) C 14- H 25       1.98808    -0.55517  82(v),92(v),67(v),153(v)
 ------ non-Lewis ----------------------------------
   64. BD*( 1) O  1- C  2       0.00852     0.68009
   65. BD*( 2) O  1- C  2       0.12581     0.08394
   66. BD*( 1) C  2- C  3       0.06939     0.53814
   67. BD*( 1) C  2- C 11       0.07563     0.47157
   68. BD*( 1) C  3- C  4       0.02336     0.68183
   69. BD*( 1) C  3- C  9       0.02614     0.67227
   70. BD*( 2) C  3- C  9       0.36551     0.06921
   71. BD*( 1) C  4- C  5       0.02083     0.65463
   72. BD*( 2) C  4- C  5       0.34545     0.04989
   73. BD*( 1) C  4- H 15       0.01405     0.57327
   74. BD*( 1) C  5-Br  6       0.02514     0.17706
   75. BD*( 1) C  5- C  7       0.02223     0.63600
   76. BD*( 1) C  7- C  8       0.01528     0.66071
   77. BD*( 2) C  7- C  8       0.30978     0.06097
   78. BD*( 1) C  7- H 16       0.01061     0.56739
   79. BD*( 1) C  8- C  9       0.02175     0.67531
   80. BD*( 1) C  8- H 17       0.01183     0.56277
   81. BD*( 1) C  9- C 10       0.02250     0.48577
   82. BD*( 1) C 10- C 11       0.01876     0.45332
   83. BD*( 1) C 10- H 18       0.01128     0.52175
   84. BD*( 1) C 10- H 19       0.01128     0.52174
   85. BD*( 1) C 11- C 12       0.01259     0.41246
   86. BD*( 1) C 11- C 14       0.01259     0.41246
   87. BD*( 1) C 12- C 13       0.00275     0.41230
   88. BD*( 1) C 12- H 20       0.00969     0.54947
   89. BD*( 1) C 12- H 21       0.01066     0.54678
   90. BD*( 1) C 13- C 14       0.00275     0.41230
   91. BD*( 1) C 13- H 22       0.00927     0.55960
   92. BD*( 1) C 13- H 23       0.00757     0.54427
   93. BD*( 1) C 14- H 24       0.00969     0.54947
   94. BD*( 1) C 14- H 25       0.01066     0.54678
   95. RY ( 1) O  1             0.00176     1.77266
   96. RY ( 2) O  1             0.00056     2.08627
   97. RY ( 3) O  1             0.00015     1.68214
   98. RY ( 4) O  1             0.00005     2.46775
   99. RY ( 5) O  1             0.00003     2.18942
  100. RY ( 6) O  1             0.00001     1.94980
  101. RY ( 7) O  1             0.00001     1.96366
  102. RY ( 8) O  1             0.00000     1.89379
  103. RY ( 9) O  1             0.00000     1.87340
  104. RY ( 1) C  2             0.01726     1.01659
  105. RY ( 2) C  2             0.00630     1.20908
  106. RY ( 3) C  2             0.00167     0.95088
  107. RY ( 4) C  2             0.00126     0.93853
  108. RY ( 1) C  3             0.00468     1.39714
  109. RY ( 2) C  3             0.00408     1.48398
  110. RY ( 3) C  3             0.00108     0.81711
  111. RY ( 4) C  3             0.00028     1.00421
  112. RY ( 1) C  4             0.00602     1.37777
  113. RY ( 2) C  4             0.00438     0.96410
  114. RY ( 3) C  4             0.00056     0.71679
  115. RY ( 4) C  4             0.00032     0.92641
  116. RY ( 1) C  5             0.00643     1.08612
  117. RY ( 2) C  5             0.00504     1.36141
  118. RY ( 3) C  5             0.00078     0.94146
  119. RY ( 4) C  5             0.00034     0.70989
  120. RY ( 1)Br  6             0.00201     0.67875
  121. RY ( 2)Br  6             0.00095     0.74366
  122. RY ( 3)Br  6             0.00060     1.12397
  123. RY ( 4)Br  6             0.00025     0.81365
  124. RY ( 5)Br  6             0.00011     0.93503
  125. RY ( 6)Br  6             0.00004     0.64811
  126. RY ( 7)Br  6             0.00003     0.67180
  127. RY ( 8)Br  6             0.00002     0.76418
  128. RY ( 9)Br  6             0.00001     0.71640
  129. RY ( 1) C  7             0.00540     1.34290
  130. RY ( 2) C  7             0.00334     1.02021
  131. RY ( 3) C  7             0.00046     0.72234
  132. RY ( 4) C  7             0.00027     0.92351
  133. RY ( 1) C  8             0.00469     1.39456
  134. RY ( 2) C  8             0.00345     0.98492
  135. RY ( 3) C  8             0.00038     0.73044
  136. RY ( 4) C  8             0.00018     0.93002
  137. RY ( 1) C  9             0.00410     1.53810
  138. RY ( 2) C  9             0.00351     1.26222
  139. RY ( 3) C  9             0.00109     0.99735
  140. RY ( 4) C  9             0.00072     0.77494
  141. RY ( 1) C 10             0.00211     0.96770
  142. RY ( 2) C 10             0.00184     0.98170
  143. RY ( 3) C 10             0.00146     1.13226
  144. RY ( 4) C 10             0.00054     1.24673
  145. RY ( 1) C 11             0.00348     1.42483
  146. RY ( 2) C 11             0.00145     1.25515
  147. RY ( 3) C 11             0.00108     1.17151
  148. RY ( 4) C 11             0.00102     1.53801
  149. RY ( 1) C 12             0.00294     1.21482
  150. RY ( 2) C 12             0.00102     1.00356
  151. RY ( 3) C 12             0.00068     1.14791
  152. RY ( 4) C 12             0.00021     0.96120
  153. RY ( 1) C 13             0.00210     1.19927
  154. RY ( 2) C 13             0.00094     1.02358
  155. RY ( 3) C 13             0.00039     1.13313
  156. RY ( 4) C 13             0.00010     0.93684
  157. RY ( 1) C 14             0.00294     1.21482
  158. RY ( 2) C 14             0.00102     1.00356
  159. RY ( 3) C 14             0.00068     1.14790
  160. RY ( 4) C 14             0.00021     0.96120
  161. RY ( 1) H 15             0.00292     0.62284
  162. RY ( 1) H 16             0.00122     0.60659
  163. RY ( 1) H 17             0.00081     0.60845
  164. RY ( 1) H 18             0.00121     0.63380
  165. RY ( 1) H 19             0.00121     0.63380
  166. RY ( 1) H 20             0.00117     0.62720
  167. RY ( 1) H 21             0.00350     0.64423
  168. RY ( 1) H 22             0.00107     0.60917
  169. RY ( 1) H 23             0.00126     0.61989
  170. RY ( 1) H 24             0.00117     0.62721
  171. RY ( 1) H 25             0.00350     0.64423
          -------------------------------
                 Total Lewis  124.21675  ( 98.5847%)
           Valence non-Lewis    1.64334  (  1.3042%)
           Rydberg non-Lewis    0.13991  (  0.1110%)
          -------------------------------
               Total unit  1  126.00000  (100.0000%)
              Charge unit  1    0.00000

 $CHOOSE
   LONE 1 2 6 3 END
   BOND D 1 2 S 2 3 S 2 11 S 3 4 D 3 9 D 4 5 S 4 15 S 5 6 S 5 7 D 7 8 S 7 16
        S 8 9 S 8 17 S 9 10 S 10 11 S 10 18 S 10 19 S 11 12 S 11 14 S 12 13
        S 12 20 S 12 21 S 13 14 S 13 22 S 13 23 S 14 24 S 14 25 END
 $END


 Checkpoint NBOs sorted by occupancy:

  Sort    Occ       Energy   Orig   Label
 -----------------------------------------------------------
    1.  2.00000   -19.98787    6.   CR ( 1)Br  6
    2.  2.00000  -451.80017    7.   CR ( 2)Br  6
    3.  2.00000    -7.18137    9.   CR ( 4)Br  6
    4.  2.00000    -7.16962   11.   CR ( 6)Br  6
    5.  2.00000    -7.16820   13.   CR ( 8)Br  6
    6.  2.00000   -55.66426   14.   CR ( 9)Br  6
    7.  1.99999   -79.83940    8.   CR ( 3)Br  6
    8.  1.99999   -55.66466   12.   CR ( 7)Br  6
    9.  1.99999   -55.66757   10.   CR ( 5)Br  6
   10.  1.99998    -2.76509   17.   CR (12)Br  6
   11.  1.99990   -10.26327   22.   CR ( 1) C  9
   12.  1.99989   -10.24856    3.   CR ( 1) C  3
   13.  1.99989   -10.30072    5.   CR ( 1) C  5
   14.  1.99989   -19.14003    1.   CR ( 1) O  1
   15.  1.99988    -2.77429   16.   CR (11)Br  6
   16.  1.99987   -10.26075   20.   CR ( 1) C  7
   17.  1.99986   -10.31837    2.   CR ( 1) C  2
   18.  1.99984   -10.25503   21.   CR ( 1) C  8
   19.  1.99983   -10.25824    4.   CR ( 1) C  4
   20.  1.99980    -2.76786   19.   CR (14)Br  6
   21.  1.99978   -10.23294   26.   CR ( 1) C 13
   22.  1.99977   -10.23667   25.   CR ( 1) C 12
   23.  1.99977   -10.23667   27.   CR ( 1) C 14
   24.  1.99977   -10.25416   24.   CR ( 1) C 11
   25.  1.99975   -10.24981   23.   CR ( 1) C 10
   26.  1.99959    -2.77542   15.   CR (10)Br  6
   27.  1.99952    -2.77548   18.   CR (13)Br  6
   28.  1.99731    -0.76075   30.   LP ( 1)Br  6
   29.  1.99720    -1.00965   33.   BD ( 1) O  1- C  2
   30.  1.99431    -0.55993   60.   BD ( 1) C 13- H 22
   31.  1.99245    -0.56488   57.   BD ( 1) C 12- H 20
   32.  1.99245    -0.56488   62.   BD ( 1) C 14- H 24
   33.  1.99024    -0.55753   61.   BD ( 1) C 13- H 23
   34.  1.98980    -0.58195   56.   BD ( 1) C 12- C 13
   35.  1.98980    -0.58195   59.   BD ( 1) C 13- C 14
   36.  1.98808    -0.55517   58.   BD ( 1) C 12- H 21
   37.  1.98808    -0.55517   63.   BD ( 1) C 14- H 25
   38.  1.98769    -0.63603   43.   BD ( 1) C  5-Br  6
   39.  1.98321    -0.58715   49.   BD ( 1) C  8- H 17
   40.  1.98252    -0.58861   47.   BD ( 1) C  7- H 16
   41.  1.98139    -0.36433   31.   LP ( 2)Br  6
   42.  1.98095    -0.72813   44.   BD ( 1) C  5- C  7
   43.  1.98071    -0.58251   42.   BD ( 1) C  4- H 15
   44.  1.98045    -0.63820   28.   LP ( 1) O  1
   45.  1.98025    -0.72957   40.   BD ( 1) C  4- C  5
   46.  1.98003    -0.64424   36.   BD ( 1) C  2- C 11
   47.  1.97830    -0.61679   51.   BD ( 1) C 10- C 11
   48.  1.97691    -0.67152   35.   BD ( 1) C  2- C  3
   49.  1.97682    -0.56576   52.   BD ( 1) C 10- H 18
   50.  1.97682    -0.56576   53.   BD ( 1) C 10- H 19
   51.  1.97670    -0.45419   34.   BD ( 2) O  1- C  2
   52.  1.97649    -0.70855   48.   BD ( 1) C  8- C  9
   53.  1.97632    -0.63383   50.   BD ( 1) C  9- C 10
   54.  1.97417    -0.70653   45.   BD ( 1) C  7- C  8
   55.  1.96794    -0.70397   37.   BD ( 1) C  3- C  4
   56.  1.96633    -0.69599   38.   BD ( 1) C  3- C  9
   57.  1.96297    -0.58209   55.   BD ( 1) C 11- C 14
   58.  1.96297    -0.58209   54.   BD ( 1) C 11- C 12
   59.  1.94472    -0.35964   32.   LP ( 3)Br  6
   60.  1.86861    -0.32605   29.   LP ( 2) O  1
   61.  1.68202    -0.33799   41.   BD ( 2) C  4- C  5
   62.  1.67111    -0.32579   46.   BD ( 2) C  7- C  8
   63.  1.62409    -0.31719   39.   BD ( 2) C  3- C  9
   64.  0.36551     0.06921   70.   BD*( 2) C  3- C  9
   65.  0.34545     0.04989   72.   BD*( 2) C  4- C  5
   66.  0.30978     0.06097   77.   BD*( 2) C  7- C  8
   67.  0.12581     0.08394   65.   BD*( 2) O  1- C  2
   68.  0.07563     0.47157   67.   BD*( 1) C  2- C 11
   69.  0.06939     0.53814   66.   BD*( 1) C  2- C  3
   70.  0.02614     0.67227   69.   BD*( 1) C  3- C  9
   71.  0.02514     0.17706   74.   BD*( 1) C  5-Br  6
   72.  0.02336     0.68183   68.   BD*( 1) C  3- C  4
   73.  0.02250     0.48577   81.   BD*( 1) C  9- C 10
   74.  0.02223     0.63600   75.   BD*( 1) C  5- C  7
   75.  0.02175     0.67531   79.   BD*( 1) C  8- C  9
   76.  0.02083     0.65463   71.   BD*( 1) C  4- C  5
   77.  0.01876     0.45332   82.   BD*( 1) C 10- C 11
   78.  0.01726     1.01659  104.   RY ( 1) C  2
   79.  0.01528     0.66071   76.   BD*( 1) C  7- C  8
   80.  0.01405     0.57327   73.   BD*( 1) C  4- H 15
   81.  0.01259     0.41246   85.   BD*( 1) C 11- C 12
   82.  0.01259     0.41246   86.   BD*( 1) C 11- C 14
   83.  0.01183     0.56277   80.   BD*( 1) C  8- H 17
   84.  0.01128     0.52175   83.   BD*( 1) C 10- H 18
   85.  0.01128     0.52174   84.   BD*( 1) C 10- H 19
   86.  0.01066     0.54678   89.   BD*( 1) C 12- H 21
   87.  0.01066     0.54678   94.   BD*( 1) C 14- H 25
   88.  0.01061     0.56739   78.   BD*( 1) C  7- H 16
   89.  0.00969     0.54947   88.   BD*( 1) C 12- H 20
   90.  0.00969     0.54947   93.   BD*( 1) C 14- H 24
   91.  0.00927     0.55960   91.   BD*( 1) C 13- H 22
   92.  0.00852     0.68009   64.   BD*( 1) O  1- C  2
   93.  0.00757     0.54427   92.   BD*( 1) C 13- H 23
   94.  0.00643     1.08612  116.   RY ( 1) C  5
   95.  0.00630     1.20908  105.   RY ( 2) C  2
   96.  0.00602     1.37777  112.   RY ( 1) C  4
   97.  0.00540     1.34290  129.   RY ( 1) C  7
   98.  0.00504     1.36141  117.   RY ( 2) C  5
   99.  0.00469     1.39456  133.   RY ( 1) C  8
  100.  0.00468     1.39714  108.   RY ( 1) C  3
  101.  0.00438     0.96410  113.   RY ( 2) C  4
  102.  0.00410     1.53810  137.   RY ( 1) C  9
  103.  0.00408     1.48398  109.   RY ( 2) C  3
  104.  0.00351     1.26222  138.   RY ( 2) C  9
  105.  0.00350     0.64423  167.   RY ( 1) H 21
  106.  0.00350     0.64423  171.   RY ( 1) H 25
  107.  0.00348     1.42483  145.   RY ( 1) C 11
  108.  0.00345     0.98492  134.   RY ( 2) C  8
  109.  0.00334     1.02021  130.   RY ( 2) C  7
  110.  0.00294     1.21482  149.   RY ( 1) C 12
  111.  0.00294     1.21482  157.   RY ( 1) C 14
  112.  0.00292     0.62284  161.   RY ( 1) H 15
  113.  0.00275     0.41230   87.   BD*( 1) C 12- C 13
  114.  0.00275     0.41230   90.   BD*( 1) C 13- C 14
  115.  0.00211     0.96770  141.   RY ( 1) C 10
  116.  0.00210     1.19927  153.   RY ( 1) C 13
  117.  0.00201     0.67875  120.   RY ( 1)Br  6
  118.  0.00184     0.98170  142.   RY ( 2) C 10
  119.  0.00176     1.77266   95.   RY ( 1) O  1
  120.  0.00167     0.95088  106.   RY ( 3) C  2
  121.  0.00146     1.13226  143.   RY ( 3) C 10
  122.  0.00145     1.25515  146.   RY ( 2) C 11
  123.  0.00126     0.93853  107.   RY ( 4) C  2
  124.  0.00126     0.61989  169.   RY ( 1) H 23
  125.  0.00122     0.60659  162.   RY ( 1) H 16
  126.  0.00121     0.63380  164.   RY ( 1) H 18
  127.  0.00121     0.63380  165.   RY ( 1) H 19
  128.  0.00117     0.62720  166.   RY ( 1) H 20
  129.  0.00117     0.62721  170.   RY ( 1) H 24
  130.  0.00109     0.99735  139.   RY ( 3) C  9
  131.  0.00108     1.17151  147.   RY ( 3) C 11
  132.  0.00108     0.81711  110.   RY ( 3) C  3
  133.  0.00107     0.60917  168.   RY ( 1) H 22
  134.  0.00102     1.00356  150.   RY ( 2) C 12
  135.  0.00102     1.00356  158.   RY ( 2) C 14
  136.  0.00102     1.53801  148.   RY ( 4) C 11
  137.  0.00095     0.74366  121.   RY ( 2)Br  6
  138.  0.00094     1.02358  154.   RY ( 2) C 13
  139.  0.00081     0.60845  163.   RY ( 1) H 17
  140.  0.00078     0.94146  118.   RY ( 3) C  5
  141.  0.00072     0.77494  140.   RY ( 4) C  9
  142.  0.00068     1.14791  151.   RY ( 3) C 12
  143.  0.00068     1.14790  159.   RY ( 3) C 14
  144.  0.00060     1.12397  122.   RY ( 3)Br  6
  145.  0.00056     0.71679  114.   RY ( 3) C  4
  146.  0.00056     2.08627   96.   RY ( 2) O  1
  147.  0.00054     1.24673  144.   RY ( 4) C 10
  148.  0.00046     0.72234  131.   RY ( 3) C  7
  149.  0.00039     1.13313  155.   RY ( 3) C 13
  150.  0.00038     0.73044  135.   RY ( 3) C  8
  151.  0.00034     0.70989  119.   RY ( 4) C  5
  152.  0.00032     0.92641  115.   RY ( 4) C  4
  153.  0.00028     1.00421  111.   RY ( 4) C  3
  154.  0.00027     0.92351  132.   RY ( 4) C  7
  155.  0.00025     0.81365  123.   RY ( 4)Br  6
  156.  0.00021     0.96120  152.   RY ( 4) C 12
  157.  0.00021     0.96120  160.   RY ( 4) C 14
  158.  0.00018     0.93002  136.   RY ( 4) C  8
  159.  0.00015     1.68214   97.   RY ( 3) O  1
  160.  0.00011     0.93503  124.   RY ( 5)Br  6
  161.  0.00010     0.93684  156.   RY ( 4) C 13
  162.  0.00005     2.46775   98.   RY ( 4) O  1
  163.  0.00004     0.64811  125.   RY ( 6)Br  6
  164.  0.00003     2.18942   99.   RY ( 5) O  1
  165.  0.00003     0.67180  126.   RY ( 7)Br  6
  166.  0.00002     0.76418  127.   RY ( 8)Br  6
  167.  0.00001     1.94980  100.   RY ( 6) O  1
  168.  0.00001     1.96366  101.   RY ( 7) O  1
  169.  0.00001     0.71640  128.   RY ( 9)Br  6
  170.  0.00000     1.89379  102.   RY ( 8) O  1
  171.  0.00000     1.87340  103.   RY ( 9) O  1

 NBO analysis completed in 0.50 CPU seconds (0 wall seconds)
 Maximum scratch memory used by NBO was 715453 words (5.46 MB)
 Maximum scratch memory used by G16NBO was 53477 words (0.41 MB)

 Opening RunExU unformatted file "/home/rpaton/opt/midi/Gau-802001.EUF"
 Read unf file /home/rpaton/opt/midi/Gau-802001.EUF:
 Label Gaussian matrix elements                                         IVers= 2 NLab= 2 Version=ES64L-G16RevC.01
 Title arbr39_wb97xd_popncreated by GaussianPrep                       
 NAtoms=    25 NBasis=   171 NBsUse=   171 ICharg=     0 Multip=     1 NE=   126 Len12L=8 Len4L=8 IOpCl= 0 ICGU=111
 GAUSSIAN SCALARS                    NI= 1 NR= 1 NTot=       1 LenBuf=    2 NRI=1 N=    1000
 ALPHA ORBITAL ENERGIES              NI= 0 NR= 1 NTot=     171 LenBuf= 2048 NRI=1 N=     171
 ALPHA MO COEFFICIENTS               NI= 0 NR= 1 NTot=   29241 LenBuf= 2048 NRI=1 N=     171     171
 Store file  10524 Len=   29241.
 NPA CHARGES                         NI= 0 NR= 1 NTot=      25 LenBuf= 2048 NRI=1 N=      25
 Recovered energy= -3097.84042994     dipole=      0.489702418578      1.245913720287     -0.000003564919
 Unable to Open any file for archive entry.
 1\1\GINC-DYNAMO\SP\RwB97XD\MIDIx\C12H11Br1O1\RPATON\25-Sep-2024\0\\# p
 op=(nbo6read,savenbos,hirshfeld) wb97xd/midix\\arbr39_wb97xd_popncreat
 ed by GaussianPrep\\0,1\O,0,1.738242,-2.179249,-0.000018\C,0,1.616738,
 -0.967983,-0.000049\C,0,0.356671,-0.188322,-0.000024\C,0,-0.936935,-0.
 686511,-0.000014\C,0,-1.980704,0.225925,-0.000001\Br,0,-3.77499,-0.390
 785,0.000009\C,0,-1.728578,1.59961,0.000003\C,0,-0.421663,2.079362,-0.
 000005\C,0,0.629352,1.172106,-0.000017\C,0,2.124675,1.440875,-0.000018
 \C,0,2.769285,0.036889,-0.000011\C,0,3.862498,-0.23845,1.092524\C,0,4.
 973126,-0.080051,0.000047\C,0,3.862555,-0.238437,-1.092489\H,0,-1.1064
 11,-1.759875,-0.00002\H,0,-2.564021,2.293433,0.000013\H,0,-0.23869,3.1
 51454,0.000001\H,0,2.417287,2.022329,0.885343\H,0,2.417288,2.022321,-0
 .885385\H,0,3.885215,0.451364,1.941875\H,0,3.787422,-1.27299,1.447274\
 H,0,5.771158,-0.827908,0.000064\H,0,5.41455,0.92283,0.000065\H,0,3.885
 317,0.451387,-1.941831\H,0,3.787496,-1.272972,-1.447255\\Version=ES64L
 -G16RevC.01\State=1-A\HF=-3097.8404299\RMSD=3.602e-09\Dipole=0.4897024
 ,1.2459137,-0.0000036\Quadrupole=1.5410948,0.2900307,-1.8311255,2.7923
 387,-0.0000097,0.0000332\PG=C01 [X(C12H11Br1O1)]\\@
 The archive entry for this job was punched.


 IT IS BETTER TO THINK YOU ARE HALF DRY THAN TO KNOW YOU
 ARE ALL WET.  -- SNOOPY
 Job cpu time:       0 days  0 hours  4 minutes 43.3 seconds.
 Elapsed time:       0 days  0 hours  0 minutes 12.1 seconds.
 File lengths (MBytes):  RWF=     20 Int=      0 D2E=      0 Chk=      3 Scr=      1
 Normal termination of Gaussian 16 at Wed Sep 25 23:37:00 2024.
