 Entering Gaussian System, Link 0=/usr/local/Gaussian/G16C/g16/g16
 Input=arbr34_wb97xd_red.com
 Output=arbr34_wb97xd_red.log
 Initial command:
 /usr/local/Gaussian/G16C/g16/l1.exe "/home/rpaton/arbr500/midi/fukui/Gau-2433377.inp" -scrdir="/home/rpaton/arbr500/midi/fukui/"
 Entering Link 1 = /usr/local/Gaussian/G16C/g16/l1.exe PID=   2433378.
  
 Copyright (c) 1988-2019, Gaussian, Inc.  All Rights Reserved.
  
 This is part of the Gaussian(R) 16 program.  It is based on
 the Gaussian(R) 09 system (copyright 2009, Gaussian, Inc.),
 the Gaussian(R) 03 system (copyright 2003, Gaussian, Inc.),
 the Gaussian(R) 98 system (copyright 1998, Gaussian, Inc.),
 the Gaussian(R) 94 system (copyright 1995, Gaussian, Inc.),
 the Gaussian 92(TM) system (copyright 1992, Gaussian, Inc.),
 the Gaussian 90(TM) system (copyright 1990, Gaussian, Inc.),
 the Gaussian 88(TM) system (copyright 1988, Gaussian, Inc.),
 the Gaussian 86(TM) system (copyright 1986, Carnegie Mellon
 University), and the Gaussian 82(TM) system (copyright 1983,
 Carnegie Mellon University). Gaussian is a federally registered
 trademark of Gaussian, Inc.
  
 This software contains proprietary and confidential information,
 including trade secrets, belonging to Gaussian, Inc.
  
 This software is provided under written license and may be
 used, copied, transmitted, or stored only in accord with that
 written license.
  
 The following legend is applicable only to US Government
 contracts under FAR:
  
                    RESTRICTED RIGHTS LEGEND
  
 Use, reproduction and disclosure by the US Government is
 subject to restrictions as set forth in subparagraphs (a)
 and (c) of the Commercial Computer Software - Restricted
 Rights clause in FAR 52.227-19.
  
 Gaussian, Inc.
 340 Quinnipiac St., Bldg. 40, Wallingford CT 06492
  
  
 ---------------------------------------------------------------
 Warning -- This program may not be used in any manner that
 competes with the business of Gaussian, Inc. or will provide
 assistance to any competitor of Gaussian, Inc.  The licensee
 of this program is prohibited from giving any competitor of
 Gaussian, Inc. access to this program.  By using this program,
 the user acknowledges that Gaussian, Inc. is engaged in the
 business of creating and licensing software in the field of
 computational chemistry and represents and warrants to the
 licensee that it is not a competitor of Gaussian, Inc. and that
 it will not use this program in any manner prohibited above.
 ---------------------------------------------------------------
  

 Cite this work as:
 Gaussian 16, Revision C.01,
 M. J. Frisch, G. W. Trucks, H. B. Schlegel, G. E. Scuseria, 
 M. A. Robb, J. R. Cheeseman, G. Scalmani, V. Barone, 
 G. A. Petersson, H. Nakatsuji, X. Li, M. Caricato, A. V. Marenich, 
 J. Bloino, B. G. Janesko, R. Gomperts, B. Mennucci, H. P. Hratchian, 
 J. V. Ortiz, A. F. Izmaylov, J. L. Sonnenberg, D. Williams-Young, 
 F. Ding, F. Lipparini, F. Egidi, J. Goings, B. Peng, A. Petrone, 
 T. Henderson, D. Ranasinghe, V. G. Zakrzewski, J. Gao, N. Rega, 
 G. Zheng, W. Liang, M. Hada, M. Ehara, K. Toyota, R. Fukuda, 
 J. Hasegawa, M. Ishida, T. Nakajima, Y. Honda, O. Kitao, H. Nakai, 
 T. Vreven, K. Throssell, J. A. Montgomery, Jr., J. E. Peralta, 
 F. Ogliaro, M. J. Bearpark, J. J. Heyd, E. N. Brothers, K. N. Kudin, 
 V. N. Staroverov, T. A. Keith, R. Kobayashi, J. Normand, 
 K. Raghavachari, A. P. Rendell, J. C. Burant, S. S. Iyengar, 
 J. Tomasi, M. Cossi, J. M. Millam, M. Klene, C. Adamo, R. Cammi, 
 J. W. Ochterski, R. L. Martin, K. Morokuma, O. Farkas, 
 J. B. Foresman, and D. J. Fox, Gaussian, Inc., Wallingford CT, 2019.
 
 ******************************************
 Gaussian 16:  ES64L-G16RevC.01  3-Jul-2019
                30-Sep-2024 
 ******************************************
 %chk=arbr34_wb97xd_red.chk
 %mem=48GB
 %nprocshared=24
 Will use up to   24 processors via shared memory.
 -----------------------------------
 # pop=(nbo6,hirshfeld) wb97xd/midix
 -----------------------------------
 1/38=1,172=1/1;
 2/12=2,17=6,18=5,40=1/2;
 3/5=20,11=2,25=1,30=1,74=-58/1,2,3;
 4//1;
 5/5=2,38=5/2;
 6/7=2,8=2,9=2,10=2,28=1,40=1,79=1,113=1,114=1,124=3103,126=1/1,12;
 99/5=1,9=1/99;
 ----------------------------------------
 arbr34_wb97xd_redcreated by GaussianPrep
 ----------------------------------------
 Symbolic Z-matrix:
 Charge = -1 Multiplicity = 2
 Br                    3.83154  -0.11031  0. 
 C                     1.94964   0.14419   0.00001 
 C                     1.43583   1.43759  0. 
 C                     0.05808   1.63711   0. 
 C                    -0.7857    0.53513   0. 
 C                    -0.25499  -0.76286   0. 
 C                     1.1125   -0.96912   0. 
 C                    -1.3752   -1.78627  0. 
 C                    -2.61468  -0.9096    0. 
 C                    -3.94872  -1.27683   0. 
 C                    -4.924    -0.27896  0. 
 C                    -4.56115   1.06739   0. 
 C                    -3.21884   1.43846  0. 
 C                    -2.24921   0.44467  0. 
 H                     2.11353   2.28553  0. 
 H                    -0.34327   2.64765   0. 
 H                     1.53421  -1.97061   0. 
 H                    -1.3334   -2.43507  -0.88701 
 H                    -1.3334   -2.43507   0.887 
 H                    -4.23715  -2.326    0. 
 H                    -5.97575  -0.55338  0. 
 H                    -5.33261   1.83313   0. 
 H                    -2.93756   2.48915  0. 
 
                          Input orientation:                          
 ---------------------------------------------------------------------
 Center     Atomic      Atomic             Coordinates (Angstroms)
 Number     Number       Type             X           Y           Z
 ---------------------------------------------------------------------
      1         35           0        3.831541   -0.110310   -0.000001
      2          6           0        1.949640    0.144188    0.000005
      3          6           0        1.435826    1.437592   -0.000001
      4          6           0        0.058084    1.637113    0.000003
      5          6           0       -0.785697    0.535134    0.000001
      6          6           0       -0.254988   -0.762855    0.000002
      7          6           0        1.112498   -0.969119    0.000004
      8          6           0       -1.375197   -1.786266   -0.000003
      9          6           0       -2.614683   -0.909601    0.000002
     10          6           0       -3.948719   -1.276830    0.000001
     11          6           0       -4.923995   -0.278960   -0.000002
     12          6           0       -4.561147    1.067392    0.000002
     13          6           0       -3.218836    1.438459   -0.000004
     14          6           0       -2.249210    0.444674   -0.000002
     15          1           0        2.113525    2.285526   -0.000003
     16          1           0       -0.343268    2.647645    0.000001
     17          1           0        1.534208   -1.970614    0.000002
     18          1           0       -1.333401   -2.435065   -0.887005
     19          1           0       -1.333403   -2.435068    0.886996
     20          1           0       -4.237146   -2.326001   -0.000001
     21          1           0       -5.975748   -0.553380   -0.000003
     22          1           0       -5.332606    1.833126    0.000002
     23          1           0       -2.937557    2.489153   -0.000002
 ---------------------------------------------------------------------
                    Distance matrix (angstroms):
                    1          2          3          4          5
     1  Br   0.000000
     2  C    1.899031   0.000000
     3  C    2.852271   1.391725   0.000000
     4  C    4.158421   2.409732   1.392114   0.000000
     5  C    4.662133   2.763134   2.397831   1.387921   0.000000
     6  C    4.138301   2.383928   2.775035   2.420302   1.402294
     7  C    2.851447   1.392932   2.428333   2.811447   2.421966
     8  C    5.469822   3.844632   4.277278   3.711309   2.395080
     9  C    6.495588   4.684391   4.681446   3.691807   2.330761
    10  C    7.867224   6.067119   6.030042   4.954345   3.645260
    11  C    8.757160   6.886647   6.587403   5.337832   4.217613
    12  C    8.474916   6.575915   6.008389   4.654232   3.812784
    13  C    7.218483   5.328065   4.654662   3.282936   2.595412
    14  C    6.106025   4.209588   3.816461   2.597213   1.466306
    15  H    2.948154   2.147600   1.085481   2.155290   3.386644
    16  H    5.003533   3.394808   2.151605   1.087317   2.158343
    17  H    2.956090   2.155220   3.409626   3.898030   3.414781
    18  H    5.733052   4.268219   4.842816   4.393819   3.147831
    19  H    5.733054   4.268218   4.842818   4.393820   3.147831
    20  H    8.367377   6.661693   6.807881   5.844251   4.483146
    21  H    9.817292   7.956028   7.674334   6.419142   5.302970
    22  H    9.367952   7.475535   6.779979   5.394252   4.728548
    23  H    7.251062   5.420660   4.498028   3.114456   2.906663
                    6          7          8          9         10
     6  C    0.000000
     7  C    1.382954   0.000000
     8  C    1.517313   2.618464   0.000000
     9  C    2.364254   3.727656   1.518179   0.000000
    10  C    3.729319   5.070562   2.623460   1.383658   0.000000
    11  C    4.694015   6.075818   3.855637   2.393873   1.395316
    12  C    4.678975   6.028070   4.277107   2.774387   2.422900
    13  C    3.691907   4.955490   3.714547   2.424538   2.811676
    14  C    2.331319   3.646902   2.396037   1.402723   2.419071
    15  H    3.860373   3.405109   5.361965   5.706557   7.031442
    16  H    3.411642   3.898748   4.552411   4.220584   5.329238
    17  H    2.158681   1.086661   2.915240   4.282411   5.526647
    18  H    2.178541   2.986336   1.099754   2.180712   2.994691
    19  H    2.178539   2.986334   1.099754   2.180708   2.994687
    20  H    4.277968   5.519042   2.912399   2.153735   1.088095
    21  H    5.724594   7.100427   4.762885   3.379889   2.152261
    22  H    5.702747   7.027940   5.362936   3.861302   3.403964
    23  H    4.215653   5.325654   4.551942   3.414056   3.899369
                   11         12         13         14         15
    11  C    0.000000
    12  C    1.394390   0.000000
    13  C    2.420144   1.392656   0.000000
    14  C    2.770942   2.394333   1.388446   0.000000
    15  H    7.490212   6.784917   5.399222   4.735208   0.000000
    16  H    5.435814   4.504187   3.119459   2.913022   2.483337
    17  H    6.676083   6.810494   5.849206   4.488638   4.295385
    18  H    4.281113   4.844825   4.398389   3.149346   5.912026
    19  H    4.281112   4.844824   4.398390   3.149346   5.912029
    20  H    2.159199   3.408826   3.899758   3.410063   7.848389
    21  H    1.086964   2.151278   3.401174   3.857875   8.572965
    22  H    2.151249   1.086967   2.150299   3.381587   7.459861
    23  H    3.407108   2.158112   1.087693   2.157247   5.055185
                   16         17         18         19         20
    16  H    0.000000
    17  H    4.985302   0.000000
    18  H    5.253673   3.037380   0.000000
    19  H    5.253675   3.037379   1.774001   0.000000
    20  H    6.316600   5.782286   3.038158   3.038154   0.000000
    21  H    6.478533   7.642512   5.087130   5.087129   2.482926
    22  H    5.055387   7.849941   5.915900   5.915899   4.300973
    23  H    2.599126   6.315553   5.254333   5.254334   4.987448
                   21         22         23
    21  H    0.000000
    22  H    2.471648   0.000000
    23  H    4.299722   2.483270   0.000000
 Stoichiometry    C13H9Br(1-,2)
 Framework group  C1[X(C13H9Br)]
 Deg. of freedom    63
 Full point group                 C1      NOp   1
 Largest Abelian subgroup         C1      NOp   1
 Largest concise Abelian subgroup C1      NOp   1
                         Standard orientation:                         
 ---------------------------------------------------------------------
 Center     Atomic      Atomic             Coordinates (Angstroms)
 Number     Number       Type             X           Y           Z
 ---------------------------------------------------------------------
      1         35           0       -3.831541   -0.110310    0.000001
      2          6           0       -1.949640    0.144188   -0.000005
      3          6           0       -1.435826    1.437592    0.000001
      4          6           0       -0.058084    1.637113   -0.000003
      5          6           0        0.785697    0.535134   -0.000001
      6          6           0        0.254988   -0.762855   -0.000002
      7          6           0       -1.112498   -0.969119   -0.000004
      8          6           0        1.375197   -1.786266    0.000003
      9          6           0        2.614683   -0.909601   -0.000002
     10          6           0        3.948719   -1.276830   -0.000001
     11          6           0        4.923995   -0.278960    0.000002
     12          6           0        4.561147    1.067392   -0.000002
     13          6           0        3.218836    1.438459    0.000004
     14          6           0        2.249210    0.444674    0.000002
     15          1           0       -2.113525    2.285526    0.000003
     16          1           0        0.343268    2.647645   -0.000001
     17          1           0       -1.534208   -1.970614   -0.000002
     18          1           0        1.333401   -2.435065    0.887005
     19          1           0        1.333403   -2.435068   -0.886996
     20          1           0        4.237146   -2.326001    0.000001
     21          1           0        5.975748   -0.553380    0.000003
     22          1           0        5.332606    1.833126   -0.000002
     23          1           0        2.937557    2.489153    0.000002
 ---------------------------------------------------------------------
 Rotational constants (GHZ):           2.1542214           0.2139549           0.1948630
 Standard basis: MIDIx (5D, 7F)
 There are   164 symmetry adapted cartesian basis functions of A   symmetry.
 There are   162 symmetry adapted basis functions of A   symmetry.
   162 basis functions,   285 primitive gaussians,   164 cartesian basis functions
    62 alpha electrons       61 beta electrons
       nuclear repulsion energy      1039.9692813284 Hartrees.
 NAtoms=   23 NActive=   23 NUniq=   23 SFac= 1.00D+00 NAtFMM=   60 NAOKFM=F Big=F
 Integral buffers will be    131072 words long.
 Raffenetti 2 integral format.
 Two-electron integral symmetry is turned on.
 Nuclear repulsion after empirical dispersion term =     1039.9546596922 Hartrees.
 One-electron integrals computed using PRISM.
 NBasis=   162 RedAO= T EigKep=  1.02D-03  NBF=   162
 NBsUse=   162 1.00D-06 EigRej= -1.00D+00 NBFU=   162
 ExpMin= 1.47D-01 ExpMax= 6.10D+03 ExpMxC= 6.10D+03 IAcc=3 IRadAn=         5 AccDes= 0.00D+00
 Harris functional with IExCor= 4639 and IRadAn=       5 diagonalized for initial guess.
 HarFok:  IExCor= 4639 AccDes= 0.00D+00 IRadAn=         5 IDoV= 1 UseB2=F ITyADJ=14
 ICtDFT=  3500011 ScaDFX=  1.000000  1.000000  1.000000  1.000000
 FoFCou: FMM=F IPFlag=           0 FMFlag=      100000 FMFlg1=           0
         NFxFlg=           0 DoJE=T BraDBF=F KetDBF=T FulRan=T
         wScrn=  0.000000 ICntrl=       500 IOpCl=  0 I1Cent=   200000004 NGrid=           0
         NMat0=    1 NMatS0=      1 NMatT0=    0 NMatD0=    1 NMtDS0=    0 NMtDT0=    0
 Petite list used in FoFCou.
 Initial guess <Sx>= 0.0000 <Sy>= 0.0000 <Sz>= 0.5000 <S**2>= 0.7500 S= 0.5000
 Requested convergence on RMS density matrix=1.00D-08 within 128 cycles.
 Requested convergence on MAX density matrix=1.00D-06.
 Requested convergence on             energy=1.00D-06.
 No special actions if energy rises.
 Integral accuracy reduced to 1.0D-05 until final iterations.
 Initial convergence to 1.0D-05 achieved.  Increase integral accuracy.
 SCF Done:  E(UwB97XD) =  -3059.73502413     A.U. after   30 cycles
            NFock= 30  Conv=0.24D-08     -V/T= 2.0023
 <Sx>= 0.0000 <Sy>= 0.0000 <Sz>= 0.5000 <S**2>= 0.7737 S= 0.5118
 <L.S>= 0.000000000000E+00
 Annihilation of the first spin contaminant:
 S**2 before annihilation     0.7737,   after     0.7504

 **********************************************************************

            Population analysis using the SCF Density.

 **********************************************************************

 Orbital symmetries:
 Alpha Orbitals:
       Occupied  (A) (A) (A) (A) (A) (A) (A) (A) (A) (A) (A) (A)
                 (A) (A) (A) (A) (A) (A) (A) (A) (A) (A) (A) (A)
                 (A) (A) (A) (A) (A) (A) (A) (A) (A) (A) (A) (A)
                 (A) (A) (A) (A) (A) (A) (A) (A) (A) (A) (A) (A)
                 (A) (A) (A) (A) (A) (A) (A) (A) (A) (A) (A) (A)
                 (A) (A)
       Virtual   (A) (A) (A) (A) (A) (A) (A) (A) (A) (A) (A) (A)
                 (A) (A) (A) (A) (A) (A) (A) (A) (A) (A) (A) (A)
                 (A) (A) (A) (A) (A) (A) (A) (A) (A) (A) (A) (A)
                 (A) (A) (A) (A) (A) (A) (A) (A) (A) (A) (A) (A)
                 (A) (A) (A) (A) (A) (A) (A) (A) (A) (A) (A) (A)
                 (A) (A) (A) (A) (A) (A) (A) (A) (A) (A) (A) (A)
                 (A) (A) (A) (A) (A) (A) (A) (A) (A) (A) (A) (A)
                 (A) (A) (A) (A) (A) (A) (A) (A) (A) (A) (A) (A)
                 (A) (A) (A) (A)
 Beta  Orbitals:
       Occupied  (A) (A) (A) (A) (A) (A) (A) (A) (A) (A) (A) (A)
                 (A) (A) (A) (A) (A) (A) (A) (A) (A) (A) (A) (A)
                 (A) (A) (A) (A) (A) (A) (A) (A) (A) (A) (A) (A)
                 (A) (A) (A) (A) (A) (A) (A) (A) (A) (A) (A) (A)
                 (A) (A) (A) (A) (A) (A) (A) (A) (A) (A) (A) (A)
                 (A)
       Virtual   (A) (A) (A) (A) (A) (A) (A) (A) (A) (A) (A) (A)
                 (A) (A) (A) (A) (A) (A) (A) (A) (A) (A) (A) (A)
                 (A) (A) (A) (A) (A) (A) (A) (A) (A) (A) (A) (A)
                 (A) (A) (A) (A) (A) (A) (A) (A) (A) (A) (A) (A)
                 (A) (A) (A) (A) (A) (A) (A) (A) (A) (A) (A) (A)
                 (A) (A) (A) (A) (A) (A) (A) (A) (A) (A) (A) (A)
                 (A) (A) (A) (A) (A) (A) (A) (A) (A) (A) (A) (A)
                 (A) (A) (A) (A) (A) (A) (A) (A) (A) (A) (A) (A)
                 (A) (A) (A) (A) (A)
 The electronic state is 2-A.
 Alpha  occ. eigenvalues -- -480.00382 -62.43776 -56.02638 -56.02273 -56.02249
 Alpha  occ. eigenvalues --  -10.11083 -10.09901 -10.08569 -10.08133 -10.08111
 Alpha  occ. eigenvalues --  -10.08020 -10.07881 -10.07804 -10.06819 -10.06697
 Alpha  occ. eigenvalues --  -10.06646 -10.06524 -10.06153  -8.74602  -6.52964
 Alpha  occ. eigenvalues --   -6.51733  -6.51700  -2.63299  -2.62869  -2.62815
 Alpha  occ. eigenvalues --   -2.61804  -2.61800  -0.84223  -0.80945  -0.76922
 Alpha  occ. eigenvalues --   -0.73501  -0.70544  -0.69414  -0.64875  -0.64067
 Alpha  occ. eigenvalues --   -0.57450  -0.52894  -0.52395  -0.51483  -0.46028
 Alpha  occ. eigenvalues --   -0.42197  -0.41747  -0.39074  -0.38569  -0.37587
 Alpha  occ. eigenvalues --   -0.36615  -0.35085  -0.34232  -0.33504  -0.31653
 Alpha  occ. eigenvalues --   -0.30032  -0.28308  -0.28158  -0.25986  -0.25504
 Alpha  occ. eigenvalues --   -0.25103  -0.22427  -0.20049  -0.18130  -0.17434
 Alpha  occ. eigenvalues --   -0.13639   0.02891
 Alpha virt. eigenvalues --    0.21645   0.23775   0.23779   0.24676   0.30998
 Alpha virt. eigenvalues --    0.32825   0.34069   0.34755   0.36318   0.36831
 Alpha virt. eigenvalues --    0.38115   0.39500   0.42528   0.42709   0.44437
 Alpha virt. eigenvalues --    0.46910   0.48569   0.51966   0.53095   0.53866
 Alpha virt. eigenvalues --    0.55666   0.56181   0.61609   0.62229   0.63990
 Alpha virt. eigenvalues --    0.65363   0.69717   0.70168   0.71976   0.73165
 Alpha virt. eigenvalues --    0.74766   0.75728   0.76689   0.77971   0.78346
 Alpha virt. eigenvalues --    0.79219   0.79667   0.80348   0.80964   0.82457
 Alpha virt. eigenvalues --    0.84474   0.85505   0.86661   0.89044   0.91223
 Alpha virt. eigenvalues --    0.93280   0.93895   0.94937   0.96124   1.00957
 Alpha virt. eigenvalues --    1.01676   1.02341   1.06228   1.07929   1.09247
 Alpha virt. eigenvalues --    1.09250   1.10656   1.10891   1.11351   1.11938
 Alpha virt. eigenvalues --    1.12470   1.13416   1.14015   1.14715   1.15482
 Alpha virt. eigenvalues --    1.16331   1.16424   1.17401   1.17935   1.19562
 Alpha virt. eigenvalues --    1.20449   1.21401   1.21802   1.21895   1.25216
 Alpha virt. eigenvalues --    1.25411   1.27779   1.29378   1.30433   1.31202
 Alpha virt. eigenvalues --    1.34315   1.35992   1.38785   1.39777   1.42530
 Alpha virt. eigenvalues --    1.43466   1.52361   1.57889   1.60836   1.71433
 Alpha virt. eigenvalues --    1.74436   1.75354   1.78570   1.82888   1.84377
 Alpha virt. eigenvalues --    1.96692   1.99373   2.00654   2.13903   2.19295
  Beta  occ. eigenvalues -- -480.00382 -62.43774 -56.02643 -56.02272 -56.02239
  Beta  occ. eigenvalues --  -10.10706 -10.09914 -10.08674 -10.08219 -10.08073
  Beta  occ. eigenvalues --  -10.08000 -10.07834 -10.07777 -10.06612 -10.06556
  Beta  occ. eigenvalues --  -10.06481 -10.06230 -10.05969  -8.74601  -6.52975
  Beta  occ. eigenvalues --   -6.51732  -6.51685  -2.63304  -2.62874  -2.62807
  Beta  occ. eigenvalues --   -2.61798  -2.61793  -0.83821  -0.80542  -0.76578
  Beta  occ. eigenvalues --   -0.73245  -0.70093  -0.69130  -0.64408  -0.63942
  Beta  occ. eigenvalues --   -0.56892  -0.52690  -0.52017  -0.51060  -0.45919
  Beta  occ. eigenvalues --   -0.41909  -0.41510  -0.38752  -0.38293  -0.37391
  Beta  occ. eigenvalues --   -0.36459  -0.34881  -0.34111  -0.33334  -0.30613
  Beta  occ. eigenvalues --   -0.29154  -0.28142  -0.27970  -0.25832  -0.25307
  Beta  occ. eigenvalues --   -0.24181  -0.22404  -0.18532  -0.17175  -0.16287
  Beta  occ. eigenvalues --   -0.11434
  Beta virt. eigenvalues --    0.20852   0.21895   0.24108   0.24278   0.28431
  Beta virt. eigenvalues --    0.31077   0.32864   0.34203   0.36096   0.36357
  Beta virt. eigenvalues --    0.36904   0.38163   0.39690   0.42834   0.43382
  Beta virt. eigenvalues --    0.45979   0.47120   0.48741   0.52444   0.53344
  Beta virt. eigenvalues --    0.54088   0.56048   0.56410   0.61853   0.62619
  Beta virt. eigenvalues --    0.64245   0.65601   0.69887   0.70332   0.72114
  Beta virt. eigenvalues --    0.73348   0.74917   0.75871   0.76854   0.78050
  Beta virt. eigenvalues --    0.78774   0.79327   0.79786   0.80486   0.81056
  Beta virt. eigenvalues --    0.82621   0.84620   0.85809   0.86881   0.89181
  Beta virt. eigenvalues --    0.91438   0.93454   0.94019   0.95289   0.96310
  Beta virt. eigenvalues --    1.01442   1.02254   1.02692   1.06421   1.08609
  Beta virt. eigenvalues --    1.09324   1.09468   1.10766   1.10768   1.11542
  Beta virt. eigenvalues --    1.12646   1.12993   1.13559   1.14781   1.14813
  Beta virt. eigenvalues --    1.15660   1.16453   1.16985   1.17501   1.18162
  Beta virt. eigenvalues --    1.19691   1.20990   1.21516   1.22081   1.22601
  Beta virt. eigenvalues --    1.25590   1.25732   1.27928   1.29585   1.31217
  Beta virt. eigenvalues --    1.31272   1.34588   1.36130   1.38921   1.39950
  Beta virt. eigenvalues --    1.42696   1.43601   1.52556   1.58051   1.61044
  Beta virt. eigenvalues --    1.71655   1.74546   1.75490   1.78782   1.82982
  Beta virt. eigenvalues --    1.84589   1.96825   1.99620   2.00863   2.14038
  Beta virt. eigenvalues --    2.19743
          Condensed to atoms (all electrons):
               1          2          3          4          5          6
     1  Br  35.097401   0.184152  -0.038124   0.001875   0.000408   0.002349
     2  C    0.184152   5.200668   0.464762  -0.047400  -0.036843  -0.030041
     3  C   -0.038124   0.464762   4.943875   0.534684  -0.036180  -0.040074
     4  C    0.001875  -0.047400   0.534684   4.941036   0.405000  -0.007444
     5  C    0.000408  -0.036843  -0.036180   0.405000   5.048825   0.426117
     6  C    0.002349  -0.030041  -0.040074  -0.007444   0.426117   5.078746
     7  C   -0.038266   0.434583  -0.030957  -0.021530  -0.032421   0.527616
     8  C   -0.000033   0.000217   0.000907   0.000422  -0.053889   0.330223
     9  C    0.000001  -0.000114  -0.000114   0.001253  -0.053307  -0.081081
    10  C   -0.000000  -0.000000   0.000000   0.000021   0.001094   0.001430
    11  C    0.000000   0.000000   0.000000  -0.000003   0.001155  -0.000101
    12  C   -0.000000   0.000000  -0.000001   0.000124   0.000530  -0.000131
    13  C   -0.000000  -0.000004   0.000127  -0.000900  -0.003430   0.001271
    14  C    0.000001   0.001163   0.000487  -0.000838   0.436068  -0.049744
    15  H   -0.000110  -0.028586   0.397065  -0.022003   0.003491   0.000193
    16  H   -0.000072   0.003248  -0.027831   0.400224  -0.023070   0.003464
    17  H   -0.000226  -0.025656   0.002715   0.000106   0.002979  -0.019378
    18  H   -0.000000   0.000087  -0.000009  -0.000058   0.001675  -0.029219
    19  H   -0.000000   0.000087  -0.000009  -0.000058   0.001675  -0.029219
    20  H   -0.000000  -0.000000  -0.000000   0.000000  -0.000151   0.000116
    21  H   -0.000000   0.000000   0.000000  -0.000000   0.000001   0.000002
    22  H   -0.000000  -0.000000   0.000000  -0.000000  -0.000040   0.000001
    23  H   -0.000000  -0.000001  -0.000032   0.001446  -0.007730   0.000122
               7          8          9         10         11         12
     1  Br  -0.038266  -0.000033   0.000001  -0.000000   0.000000  -0.000000
     2  C    0.434583   0.000217  -0.000114  -0.000000   0.000000   0.000000
     3  C   -0.030957   0.000907  -0.000114   0.000000   0.000000  -0.000001
     4  C   -0.021530   0.000422   0.001253   0.000021  -0.000003   0.000124
     5  C   -0.032421  -0.053889  -0.053307   0.001094   0.001155   0.000530
     6  C    0.527616   0.330223  -0.081081   0.001430  -0.000101  -0.000131
     7  C    4.913247   0.005657   0.001562   0.000008  -0.000000   0.000001
     8  C    0.005657   5.004201   0.330490   0.006540   0.000027   0.000935
     9  C    0.001562   0.330490   5.091163   0.528175  -0.044663  -0.040931
    10  C    0.000008   0.006540   0.528175   4.897163   0.476565  -0.040942
    11  C   -0.000000   0.000027  -0.044663   0.476565   5.050256   0.500757
    12  C    0.000001   0.000935  -0.040931  -0.040942   0.500757   4.936958
    13  C    0.000021   0.000234  -0.007543  -0.024109  -0.060101   0.536773
    14  C    0.001020  -0.055146   0.437373  -0.033271  -0.029521  -0.040513
    15  H    0.002879   0.000006   0.000001  -0.000000  -0.000000   0.000000
    16  H   -0.000022  -0.000117   0.000129   0.000002  -0.000000  -0.000032
    17  H    0.392908  -0.006088   0.000119   0.000001  -0.000000  -0.000000
    18  H   -0.004255   0.384645  -0.029357  -0.004079   0.000085  -0.000006
    19  H   -0.004255   0.384646  -0.029358  -0.004079   0.000085  -0.000006
    20  H    0.000001  -0.006116  -0.027362   0.398405  -0.026638   0.003172
    21  H   -0.000000  -0.000047   0.004244  -0.031526   0.406224  -0.030216
    22  H   -0.000000   0.000006   0.000198   0.003368  -0.029631   0.401866
    23  H    0.000001  -0.000115   0.003381   0.000025   0.003060  -0.027480
              13         14         15         16         17         18
     1  Br  -0.000000   0.000001  -0.000110  -0.000072  -0.000226  -0.000000
     2  C   -0.000004   0.001163  -0.028586   0.003248  -0.025656   0.000087
     3  C    0.000127   0.000487   0.397065  -0.027831   0.002715  -0.000009
     4  C   -0.000900  -0.000838  -0.022003   0.400224   0.000106  -0.000058
     5  C   -0.003430   0.436068   0.003491  -0.023070   0.002979   0.001675
     6  C    0.001271  -0.049744   0.000193   0.003464  -0.019378  -0.029219
     7  C    0.000021   0.001020   0.002879  -0.000022   0.392908  -0.004255
     8  C    0.000234  -0.055146   0.000006  -0.000117  -0.006088   0.384645
     9  C   -0.007543   0.437373   0.000001   0.000129   0.000119  -0.029357
    10  C   -0.024109  -0.033271  -0.000000   0.000002   0.000001  -0.004079
    11  C   -0.060101  -0.029521  -0.000000  -0.000000  -0.000000   0.000085
    12  C    0.536773  -0.040513   0.000000  -0.000032  -0.000000  -0.000006
    13  C    4.940031   0.426793  -0.000000   0.001432  -0.000000  -0.000053
    14  C    0.426793   4.997404  -0.000034  -0.007634  -0.000141   0.001606
    15  H   -0.000000  -0.000034   0.504278  -0.004952  -0.000087  -0.000000
    16  H    0.001432  -0.007634  -0.004952   0.515574   0.000009   0.000004
    17  H   -0.000000  -0.000141  -0.000087   0.000009   0.506414   0.001020
    18  H   -0.000053   0.001606  -0.000000   0.000004   0.001020   0.529908
    19  H   -0.000053   0.001606  -0.000000   0.000004   0.001020  -0.029543
    20  H    0.000095   0.003320   0.000000   0.000000   0.000000   0.001073
    21  H    0.003524   0.000148  -0.000000  -0.000000  -0.000000   0.000000
    22  H   -0.029696   0.004008   0.000000   0.000002   0.000000  -0.000000
    23  H    0.399596  -0.023301   0.000001   0.002699   0.000000   0.000004
              19         20         21         22         23
     1  Br  -0.000000  -0.000000  -0.000000  -0.000000  -0.000000
     2  C    0.000087  -0.000000   0.000000  -0.000000  -0.000001
     3  C   -0.000009  -0.000000   0.000000   0.000000  -0.000032
     4  C   -0.000058   0.000000  -0.000000  -0.000000   0.001446
     5  C    0.001675  -0.000151   0.000001  -0.000040  -0.007730
     6  C   -0.029219   0.000116   0.000002   0.000001   0.000122
     7  C   -0.004255   0.000001  -0.000000  -0.000000   0.000001
     8  C    0.384646  -0.006116  -0.000047   0.000006  -0.000115
     9  C   -0.029358  -0.027362   0.004244   0.000198   0.003381
    10  C   -0.004079   0.398405  -0.031526   0.003368   0.000025
    11  C    0.000085  -0.026638   0.406224  -0.029631   0.003060
    12  C   -0.000006   0.003172  -0.030216   0.401866  -0.027480
    13  C   -0.000053   0.000095   0.003524  -0.029696   0.399596
    14  C    0.001606   0.003320   0.000148   0.004008  -0.023301
    15  H   -0.000000   0.000000  -0.000000   0.000000   0.000001
    16  H    0.000004   0.000000  -0.000000   0.000002   0.002699
    17  H    0.001020   0.000000  -0.000000   0.000000   0.000000
    18  H   -0.029543   0.001073   0.000000  -0.000000   0.000004
    19  H    0.529908   0.001073   0.000000  -0.000000   0.000004
    20  H    0.001073   0.530286  -0.004933  -0.000097   0.000010
    21  H    0.000000  -0.004933   0.539286  -0.004951  -0.000096
    22  H   -0.000000  -0.000097  -0.004951   0.530051  -0.004743
    23  H    0.000004   0.000010  -0.000096  -0.004743   0.519090
          Atomic-Atomic Spin Densities.
               1          2          3          4          5          6
     1  Br   0.012900  -0.017667   0.000192   0.000173  -0.000051   0.000125
     2  C   -0.017667   0.454247  -0.030081  -0.018565   0.009287  -0.014654
     3  C    0.000192  -0.030081  -0.106971   0.030408  -0.006485   0.004014
     4  C    0.000173  -0.018565   0.030408   0.259307  -0.087939   0.004885
     5  C   -0.000051   0.009287  -0.006485  -0.087939   0.239471  -0.059369
     6  C    0.000125  -0.014654   0.004014   0.004885  -0.059369   0.073038
     7  C    0.001287  -0.076411  -0.000437   0.005929  -0.010040   0.045710
     8  C   -0.000000   0.000201  -0.000036   0.000109   0.002063  -0.002322
     9  C    0.000000  -0.000039   0.000012   0.000492  -0.015034   0.006256
    10  C    0.000000  -0.000000   0.000000   0.000007  -0.000671   0.000257
    11  C   -0.000000   0.000000  -0.000000  -0.000004   0.000219  -0.000033
    12  C    0.000000  -0.000000   0.000000   0.000005  -0.000180   0.000012
    13  C    0.000000  -0.000004   0.000009   0.001816  -0.011941   0.000405
    14  C   -0.000000   0.000202  -0.000193  -0.011256   0.090468  -0.012711
    15  H    0.000089  -0.000401   0.001544  -0.000494   0.000053  -0.000007
    16  H   -0.000000   0.000061  -0.000898   0.001065  -0.001205   0.000034
    17  H    0.000152  -0.000581   0.000016  -0.000008   0.000026  -0.000701
    18  H   -0.000000   0.000037  -0.000002  -0.000020   0.000609  -0.002090
    19  H   -0.000000   0.000037  -0.000002  -0.000020   0.000609  -0.002090
    20  H    0.000000   0.000000  -0.000000   0.000000  -0.000002  -0.000000
    21  H   -0.000000   0.000000   0.000000  -0.000000  -0.000000  -0.000000
    22  H    0.000000   0.000000   0.000000   0.000000  -0.000001   0.000000
    23  H   -0.000000   0.000000  -0.000001   0.000061   0.000099   0.000008
               7          8          9         10         11         12
     1  Br   0.001287  -0.000000   0.000000   0.000000  -0.000000   0.000000
     2  C   -0.076411   0.000201  -0.000039  -0.000000   0.000000  -0.000000
     3  C   -0.000437  -0.000036   0.000012   0.000000  -0.000000   0.000000
     4  C    0.005929   0.000109   0.000492   0.000007  -0.000004   0.000005
     5  C   -0.010040   0.002063  -0.015034  -0.000671   0.000219  -0.000180
     6  C    0.045710  -0.002322   0.006256   0.000257  -0.000033   0.000012
     7  C    0.042227  -0.002118   0.000341   0.000005  -0.000000   0.000000
     8  C   -0.002118  -0.015866  -0.003960  -0.001891   0.000184  -0.000038
     9  C    0.000341  -0.003960   0.113821   0.036851  -0.012526   0.002831
    10  C    0.000005  -0.001891   0.036851  -0.013040  -0.052552  -0.000807
    11  C   -0.000000   0.000184  -0.012526  -0.052552   0.357445  -0.016011
    12  C    0.000000  -0.000038   0.002831  -0.000807  -0.016011  -0.112818
    13  C    0.000008   0.000119   0.005803   0.004316  -0.015220   0.018754
    14  C   -0.000698   0.002095  -0.052641  -0.006134   0.006882  -0.003634
    15  H    0.000048  -0.000000   0.000000   0.000000   0.000000   0.000000
    16  H   -0.000021  -0.000000   0.000007  -0.000000   0.000000  -0.000000
    17  H    0.001278   0.000088  -0.000002  -0.000000   0.000000  -0.000000
    18  H   -0.000499   0.003074  -0.002495  -0.000369   0.000031  -0.000001
    19  H   -0.000499   0.003074  -0.002495  -0.000369   0.000031  -0.000001
    20  H    0.000000   0.000073  -0.000503   0.001107  -0.000419   0.000009
    21  H   -0.000000   0.000000   0.000009  -0.000722   0.000221  -0.000833
    22  H    0.000000  -0.000000  -0.000003   0.000035  -0.000414   0.001338
    23  H   -0.000000  -0.000001   0.000029  -0.000017   0.000044  -0.000761
              13         14         15         16         17         18
     1  Br   0.000000  -0.000000   0.000089  -0.000000   0.000152  -0.000000
     2  C   -0.000004   0.000202  -0.000401   0.000061  -0.000581   0.000037
     3  C    0.000009  -0.000193   0.001544  -0.000898   0.000016  -0.000002
     4  C    0.001816  -0.011256  -0.000494   0.001065  -0.000008  -0.000020
     5  C   -0.011941   0.090468   0.000053  -0.001205   0.000026   0.000609
     6  C    0.000405  -0.012711  -0.000007   0.000034  -0.000701  -0.002090
     7  C    0.000008  -0.000698   0.000048  -0.000021   0.001278  -0.000499
     8  C    0.000119   0.002095  -0.000000  -0.000000   0.000088   0.003074
     9  C    0.005803  -0.052641   0.000000   0.000007  -0.000002  -0.002495
    10  C    0.004316  -0.006134   0.000000  -0.000000  -0.000000  -0.000369
    11  C   -0.015220   0.006882   0.000000   0.000000   0.000000   0.000031
    12  C    0.018754  -0.003634   0.000000  -0.000000  -0.000000  -0.000001
    13  C    0.259796  -0.070676   0.000000   0.000048   0.000000  -0.000020
    14  C   -0.070676   0.123473  -0.000001   0.000195  -0.000001   0.000497
    15  H    0.000000  -0.000001   0.002831   0.000106   0.000000   0.000000
    16  H    0.000048   0.000195   0.000106  -0.010443  -0.000000  -0.000000
    17  H    0.000000  -0.000001   0.000000  -0.000000  -0.002256  -0.000005
    18  H   -0.000020   0.000497   0.000000  -0.000000  -0.000005   0.008906
    19  H   -0.000020   0.000497   0.000000  -0.000000  -0.000005  -0.001681
    20  H   -0.000003   0.000020  -0.000000  -0.000000  -0.000000  -0.000004
    21  H    0.000029  -0.000027   0.000000   0.000000   0.000000   0.000000
    22  H   -0.000425   0.000045  -0.000000  -0.000000  -0.000000   0.000000
    23  H    0.000797  -0.001026  -0.000000  -0.000036  -0.000000  -0.000000
              19         20         21         22         23
     1  Br  -0.000000   0.000000  -0.000000   0.000000  -0.000000
     2  C    0.000037   0.000000   0.000000   0.000000   0.000000
     3  C   -0.000002  -0.000000   0.000000   0.000000  -0.000001
     4  C   -0.000020   0.000000  -0.000000   0.000000   0.000061
     5  C    0.000609  -0.000002  -0.000000  -0.000001   0.000099
     6  C   -0.002090  -0.000000  -0.000000   0.000000   0.000008
     7  C   -0.000499   0.000000  -0.000000   0.000000  -0.000000
     8  C    0.003074   0.000073   0.000000  -0.000000  -0.000001
     9  C   -0.002495  -0.000503   0.000009  -0.000003   0.000029
    10  C   -0.000369   0.001107  -0.000722   0.000035  -0.000017
    11  C    0.000031  -0.000419   0.000221  -0.000414   0.000044
    12  C   -0.000001   0.000009  -0.000833   0.001338  -0.000761
    13  C   -0.000020  -0.000003   0.000029  -0.000425   0.000797
    14  C    0.000497   0.000020  -0.000027   0.000045  -0.001026
    15  H    0.000000  -0.000000   0.000000  -0.000000  -0.000000
    16  H   -0.000000  -0.000000   0.000000  -0.000000  -0.000036
    17  H   -0.000005  -0.000000   0.000000  -0.000000  -0.000000
    18  H   -0.001681  -0.000004   0.000000   0.000000  -0.000000
    19  H    0.008906  -0.000004   0.000000   0.000000  -0.000000
    20  H   -0.000004  -0.000106   0.000117   0.000000  -0.000000
    21  H    0.000000   0.000117  -0.013970   0.000113   0.000001
    22  H    0.000000   0.000000   0.000113   0.003361   0.000086
    23  H   -0.000000  -0.000000   0.000001   0.000086  -0.010340
 Mulliken charges and spin densities:
               1          2
     1  Br  -0.209355  -0.002801
     2  C   -0.120324   0.305668
     3  C   -0.171291  -0.108913
     4  C   -0.185957   0.185951
     5  C   -0.081956   0.149987
     6  C   -0.085218   0.040766
     7  C   -0.147801   0.006111
     8  C   -0.327603  -0.015153
     9  C   -0.084259   0.076754
    10  C   -0.174793  -0.033995
    11  C   -0.247554   0.267877
    12  C   -0.200856  -0.112137
    13  C   -0.184008   0.193592
    14  C   -0.070855   0.065375
    15  H    0.147859   0.003768
    16  H    0.136940  -0.011089
    17  H    0.144284  -0.001999
    18  H    0.176472   0.005967
    19  H    0.176472   0.005967
    20  H    0.127746   0.000285
    21  H    0.118340  -0.015061
    22  H    0.129658   0.004134
    23  H    0.134057  -0.011056
 Sum of Mulliken charges =  -1.00000   1.00000
 Mulliken charges and spin densities with hydrogens summed into heavy atoms:
               1          2
     1  Br  -0.209355  -0.002801
     2  C   -0.120324   0.305668
     3  C   -0.023432  -0.105145
     4  C   -0.049017   0.174862
     5  C   -0.081956   0.149987
     6  C   -0.085218   0.040766
     7  C   -0.003517   0.004113
     8  C    0.025341  -0.003219
     9  C   -0.084259   0.076754
    10  C   -0.047047  -0.033710
    11  C   -0.129214   0.252816
    12  C   -0.071198  -0.108003
    13  C   -0.049951   0.182536
    14  C   -0.070855   0.065375
 Electronic spatial extent (au):  <R**2>=           4931.6775
 Charge=             -1.0000 electrons
 Dipole moment (field-independent basis, Debye):
    X=             -3.2700    Y=             -0.9586    Z=              0.0000  Tot=              3.4077
 Quadrupole moment (field-independent basis, Debye-Ang):
   XX=           -143.6489   YY=            -94.8675   ZZ=           -102.5768
   XY=             -0.9274   XZ=             -0.0000   YZ=             -0.0000
 Traceless Quadrupole moment (field-independent basis, Debye-Ang):
   XX=            -29.9511   YY=             18.8302   ZZ=             11.1209
   XY=             -0.9274   XZ=             -0.0000   YZ=             -0.0000
 Octapole moment (field-independent basis, Debye-Ang**2):
  XXX=           -222.9141  YYY=             -4.6186  ZZZ=              0.0001  XYY=            -47.8722
  XXY=             -1.3583  XXZ=              0.0001  XZZ=            -57.5346  YZZ=             -5.1826
  YYZ=              0.0001  XYZ=             -0.0001
 Hexadecapole moment (field-independent basis, Debye-Ang**3):
 XXXX=          -5838.4490 YYYY=           -764.9456 ZZZZ=           -115.5574 XXXY=             21.6019
 XXXZ=             -0.0005 YYYX=             12.1932 YYYZ=             -0.0000 ZZZX=             -0.0003
 ZZZY=             -0.0000 XXYY=           -989.2915 XXZZ=           -955.7427 YYZZ=           -159.8604
 XXYZ=             -0.0002 YYXZ=             -0.0001 ZZXY=              1.8834
 N-N= 1.039954659692D+03 E-N=-9.375629204657D+03  KE= 3.052628614128D+03
 There are a total of      525418 grid points.
 ElSum from          density=      123.0000188985
 ElSum from atomic densities=      122.0001586644
 Hirshfeld populations at iteration   1 (CA, CB, DipXYZ):
               1          2          3          4          5
     1  Br  17.596625  17.568972   0.088597   0.010886  -0.000000
     2  C    3.125496   2.940596  -0.048765  -0.012883   0.000002
     3  C    3.034441   3.047381  -0.011860   0.025623   0.000000
     4  C    3.111352   2.987588   0.030447   0.013450   0.000000
     5  C    3.096059   2.972164  -0.003667   0.014334   0.000000
     6  C    3.040895   2.990509   0.051012  -0.040842   0.000000
     7  C    3.069302   3.028420  -0.009855  -0.022720   0.000000
     8  C    3.028057   3.022055  -0.000235   0.014018   0.000000
     9  C    3.047406   2.987671  -0.055746  -0.032685  -0.000000
    10  C    3.052453   3.036710   0.020234  -0.033012   0.000000
    11  C    3.140578   2.984360   0.006016  -0.008829  -0.000000
    12  C    3.029821   3.049223   0.027985   0.023511  -0.000000
    13  C    3.109820   2.989834  -0.027585   0.017076  -0.000000
    14  C    3.070338   2.985714   0.005733   0.012501  -0.000000
    15  H    0.489846   0.490842  -0.077631   0.124675   0.000000
    16  H    0.495957   0.487771   0.051494   0.135118   0.000000
    17  H    0.492454   0.489897  -0.043587  -0.139080   0.000000
    18  H    0.491765   0.486170  -0.005674  -0.084960   0.109825
    19  H    0.491766   0.486170  -0.005674  -0.084960  -0.109825
    20  H    0.493294   0.492458   0.040470  -0.136235   0.000000
    21  H    0.503516   0.493237   0.137590  -0.036851   0.000000
    22  H    0.492112   0.493456   0.101259   0.100900   0.000000
    23  H    0.496656   0.488810  -0.034767   0.139026  -0.000000
       Tot  62.000010  61.000009   0.235791  -0.001938   0.000004

 Dip from Atomic Chgs             -1.522434  -0.375220   0.000002
         Total Dipole             -1.286642  -0.377157   0.000005

 Hirshfeld charges, spin densities, dipoles, and CM5 charges using IRadAn=      5:
              Q-H        S-H        Dx         Dy         Dz        Q-CM5   
     1  Br  -0.165597   0.027653   0.088597   0.010886  -0.000000  -0.150802
     2  C   -0.066093   0.184900  -0.048765  -0.012883   0.000002  -0.087214
     3  C   -0.081822  -0.012941  -0.011860   0.025623   0.000000  -0.135090
     4  C   -0.098941   0.123764   0.030447   0.013450   0.000000  -0.150906
     5  C   -0.068223   0.123895  -0.003667   0.014334   0.000000  -0.073092
     6  C   -0.031404   0.050386   0.051012  -0.040842   0.000000  -0.041565
     7  C   -0.097721   0.040882  -0.009855  -0.022720   0.000000  -0.148302
     8  C   -0.050112   0.006001  -0.000235   0.014018   0.000000  -0.144464
     9  C   -0.035077   0.059735  -0.055746  -0.032685  -0.000000  -0.045354
    10  C   -0.089163   0.015743   0.020234  -0.033012   0.000000  -0.141678
    11  C   -0.124938   0.156219   0.006016  -0.008829  -0.000000  -0.180117
    12  C   -0.079044  -0.019402   0.027985   0.023511  -0.000000  -0.134213
    13  C   -0.099655   0.119986  -0.027585   0.017076  -0.000000  -0.151718
    14  C   -0.056052   0.084624   0.005733   0.012501  -0.000000  -0.060957
    15  H    0.019313  -0.000996  -0.077631   0.124675   0.000000   0.075920
    16  H    0.016272   0.008186   0.051494   0.135118   0.000000   0.072470
    17  H    0.017649   0.002556  -0.043587  -0.139080   0.000000   0.074528
    18  H    0.022065   0.005595  -0.005674  -0.084960   0.109825   0.076678
    19  H    0.022064   0.005595  -0.005674  -0.084960  -0.109825   0.076678
    20  H    0.014248   0.000836   0.040470  -0.136235   0.000000   0.069989
    21  H    0.003246   0.010279   0.137590  -0.036851   0.000000   0.058673
    22  H    0.014432  -0.001344   0.101259   0.100900   0.000000   0.069875
    23  H    0.014534   0.007846  -0.034767   0.139026  -0.000000   0.070641
       Tot  -1.000019   1.000000   0.235791  -0.001938   0.000004  -1.000019
 Hirshfeld charges and spin densities with hydrogens summed into heavy atoms:
              Q-H        S-H       Q-CM5   
     1  Br  -0.165597   0.027653  -0.150802
     2  C   -0.066093   0.184900  -0.087214
     3  C   -0.062509  -0.013937  -0.059170
     4  C   -0.082668   0.131950  -0.078436
     5  C   -0.068223   0.123895  -0.073092
     6  C   -0.031404   0.050386  -0.041565
     7  C   -0.080072   0.043438  -0.073774
     8  C   -0.005983   0.017192   0.008892
     9  C   -0.035077   0.059735  -0.045354
    10  C   -0.074915   0.016579  -0.071689
    11  C   -0.121692   0.166498  -0.121444
    12  C   -0.064611  -0.020746  -0.064338
    13  C   -0.085121   0.127833  -0.081077
    14  C   -0.056052   0.084624  -0.060957
 
 EQQ= 0.815952481802E-01 EQD=-0.399181895546E-01 EDD= 0.343788730186E-02
 EQQ+QD+DD= 0.451149459274E-01
 
                          Isotropic Fermi Contact Couplings
        Atom                 a.u.       MegaHertz       Gauss      10(-4) cm-1
     1  Br(79)            -0.00120      -1.35346      -0.48295      -0.45147
     2  C(13)              0.03402      38.24541      13.64691      12.75729
     3  C(13)             -0.01536     -17.27169      -6.16297      -5.76122
     4  C(13)              0.01529      17.19206       6.13455       5.73465
     5  C(13)              0.00953      10.71845       3.82461       3.57529
     6  C(13)              0.00194       2.18579       0.77995       0.72910
     7  C(13)             -0.00370      -4.16368      -1.48571      -1.38885
     8  C(13)             -0.00438      -4.92143      -1.75609      -1.64161
     9  C(13)              0.00634       7.12235       2.54143       2.37576
    10  C(13)             -0.00687      -7.72171      -2.75530      -2.57568
    11  C(13)              0.02517      28.29230      10.09540       9.43730
    12  C(13)             -0.01493     -16.78007      -5.98755      -5.59723
    13  C(13)              0.01680      18.88296       6.73791       6.29868
    14  C(13)              0.00067       0.74790       0.26687       0.24947
    15  H(1)               0.00077       3.45606       1.23321       1.15282
    16  H(1)              -0.00231     -10.32432      -3.68398      -3.44382
    17  H(1)              -0.00043      -1.91929      -0.68485      -0.64020
    18  H(1)               0.00344      15.39028       5.49164       5.13365
    19  H(1)               0.00344      15.39001       5.49154       5.13355
    20  H(1)               0.00004       0.18740       0.06687       0.06251
    21  H(1)              -0.00302     -13.51853      -4.82375      -4.50930
    22  H(1)               0.00083       3.71488       1.32556       1.23915
    23  H(1)              -0.00230     -10.27552      -3.66656      -3.42754
 --------------------------------------------------------
       Center         ----  Spin Dipole Couplings  ----
                      3XX-RR        3YY-RR        3ZZ-RR
 --------------------------------------------------------
     1   Atom       -0.210021     -0.018916      0.228936
     2   Atom       -0.145650     -0.160974      0.306624
     3   Atom        0.034431      0.032236     -0.066668
     4   Atom       -0.087107     -0.085528      0.172634
     5   Atom       -0.077612     -0.089062      0.166674
     6   Atom       -0.025172     -0.029210      0.054382
     7   Atom       -0.013788     -0.015668      0.029456
     8   Atom       -0.000126      0.002144     -0.002018
     9   Atom       -0.038650     -0.041085      0.079735
    10   Atom        0.006109      0.000924     -0.007033
    11   Atom       -0.113962     -0.124877      0.238839
    12   Atom        0.036168      0.035060     -0.071228
    13   Atom       -0.086851     -0.086380      0.173231
    14   Atom       -0.040361     -0.053036      0.093397
    15   Atom        0.002423      0.001167     -0.003590
    16   Atom       -0.008823      0.012276     -0.003453
    17   Atom       -0.001652      0.004845     -0.003193
    18   Atom        0.000131      0.002487     -0.002618
    19   Atom        0.000131      0.002487     -0.002618
    20   Atom        0.000380      0.002424     -0.002804
    21   Atom        0.017775     -0.016143     -0.001632
    22   Atom        0.002037      0.001043     -0.003079
    23   Atom       -0.009876      0.013112     -0.003236
 --------------------------------------------------------
                        XY            XZ            YZ
 --------------------------------------------------------
     1   Atom       -0.026898     -0.000005     -0.000001
     2   Atom        0.000911      0.000002     -0.000001
     3   Atom        0.005546      0.000000      0.000000
     4   Atom       -0.000998      0.000000      0.000000
     5   Atom       -0.001782     -0.000001     -0.000000
     6   Atom        0.002969     -0.000000     -0.000000
     7   Atom       -0.002714      0.000000     -0.000000
     8   Atom       -0.000227     -0.000000      0.000000
     9   Atom       -0.002836      0.000000     -0.000000
    10   Atom        0.001743     -0.000000      0.000000
    11   Atom       -0.002574     -0.000001      0.000001
    12   Atom       -0.005346     -0.000000     -0.000000
    13   Atom        0.000680      0.000001     -0.000000
    14   Atom        0.001259     -0.000000      0.000000
    15   Atom        0.002180     -0.000000      0.000000
    16   Atom        0.007955      0.000000      0.000000
    17   Atom        0.003110      0.000000     -0.000000
    18   Atom       -0.000032     -0.000062     -0.001764
    19   Atom       -0.000032      0.000062      0.001764
    20   Atom       -0.001101      0.000000      0.000000
    21   Atom       -0.009437     -0.000000      0.000000
    22   Atom       -0.003040     -0.000000     -0.000000
    23   Atom       -0.004789      0.000000     -0.000000
 --------------------------------------------------------


 ---------------------------------------------------------------------------------
              Anisotropic Spin Dipole Couplings in Principal Axis System
 ---------------------------------------------------------------------------------

       Atom             a.u.   MegaHertz   Gauss  10(-4) cm-1        Axes

              Baa    -0.2137   -28.670   -10.230    -9.563  0.9906  0.1368  0.0000
     1 Br(79) Bbb    -0.0152    -2.039    -0.728    -0.680 -0.1368  0.9906  0.0000
              Bcc     0.2289    30.709    10.958    10.243 -0.0000 -0.0000  1.0000
 
              Baa    -0.1610   -21.608    -7.710    -7.208 -0.0591  0.9983  0.0000
     2 C(13)  Bbb    -0.1456   -19.538    -6.972    -6.517  0.9983  0.0591 -0.0000
              Bcc     0.3066    41.146    14.682    13.725  0.0000 -0.0000  1.0000
 
              Baa    -0.0667    -8.946    -3.192    -2.984 -0.0000 -0.0000  1.0000
     3 C(13)  Bbb     0.0277     3.714     1.325     1.239 -0.6348  0.7727  0.0000
              Bcc     0.0390     5.232     1.867     1.745  0.7727  0.6348  0.0000
 
              Baa    -0.0876   -11.754    -4.194    -3.921  0.9001  0.4358 -0.0000
     4 C(13)  Bbb    -0.0850   -11.412    -4.072    -3.807 -0.4358  0.9001 -0.0000
              Bcc     0.1726    23.166     8.266     7.727  0.0000  0.0000  1.0000
 
              Baa    -0.0893   -11.988    -4.277    -3.999  0.1503  0.9886  0.0000
     5 C(13)  Bbb    -0.0773   -10.378    -3.703    -3.462  0.9886 -0.1503  0.0000
              Bcc     0.1667    22.366     7.981     7.461 -0.0000 -0.0000  1.0000
 
              Baa    -0.0308    -4.131    -1.474    -1.378 -0.4678  0.8838 -0.0000
     6 C(13)  Bbb    -0.0236    -3.167    -1.130    -1.056  0.8838  0.4678  0.0000
              Bcc     0.0544     7.298     2.604     2.434 -0.0000 -0.0000  1.0000
 
              Baa    -0.0176    -2.362    -0.843    -0.788  0.5799  0.8147  0.0000
     7 C(13)  Bbb    -0.0119    -1.591    -0.568    -0.531  0.8147 -0.5799 -0.0000
              Bcc     0.0295     3.953     1.410     1.318  0.0000 -0.0000  1.0000
 
              Baa    -0.0020    -0.271    -0.097    -0.090  0.0000 -0.0000  1.0000
     8 C(13)  Bbb    -0.0001    -0.020    -0.007    -0.007  0.9951  0.0987 -0.0000
              Bcc     0.0022     0.291     0.104     0.097 -0.0987  0.9951  0.0000
 
              Baa    -0.0430    -5.764    -2.057    -1.923  0.5503  0.8350 -0.0000
     9 C(13)  Bbb    -0.0368    -4.936    -1.761    -1.646  0.8350 -0.5503 -0.0000
              Bcc     0.0797    10.700     3.818     3.569  0.0000 -0.0000  1.0000
 
              Baa    -0.0070    -0.944    -0.337    -0.315  0.0000 -0.0000  1.0000
    10 C(13)  Bbb     0.0004     0.053     0.019     0.018 -0.2917  0.9565  0.0000
              Bcc     0.0066     0.891     0.318     0.297  0.9565  0.2917  0.0000
 
              Baa    -0.1255   -16.835    -6.007    -5.615  0.2186  0.9758 -0.0000
    11 C(13)  Bbb    -0.1134   -15.215    -5.429    -5.075  0.9758 -0.2186  0.0000
              Bcc     0.2388    32.050    11.436    10.691 -0.0000  0.0000  1.0000
 
              Baa    -0.0712    -9.558    -3.411    -3.188  0.0000  0.0000  1.0000
    12 C(13)  Bbb     0.0302     4.058     1.448     1.354  0.6697  0.7427 -0.0000
              Bcc     0.0410     5.500     1.963     1.835  0.7427 -0.6697  0.0000
 
              Baa    -0.0873   -11.720    -4.182    -3.909  0.8146 -0.5800 -0.0000
    13 C(13)  Bbb    -0.0859   -11.526    -4.113    -3.845  0.5800  0.8146 -0.0000
              Bcc     0.1732    23.246     8.295     7.754  0.0000 -0.0000  1.0000
 
              Baa    -0.0532    -7.134    -2.545    -2.379 -0.0979  0.9952 -0.0000
    14 C(13)  Bbb    -0.0402    -5.399    -1.927    -1.801  0.9952  0.0979  0.0000
              Bcc     0.0934    12.533     4.472     4.181 -0.0000  0.0000  1.0000
 
              Baa    -0.0036    -1.916    -0.684    -0.639  0.0000 -0.0000  1.0000
    15 H(1)   Bbb    -0.0005    -0.253    -0.090    -0.084 -0.6013  0.7990  0.0000
              Bcc     0.0041     2.168     0.774     0.723  0.7990  0.6013  0.0000
 
              Baa    -0.0115    -6.128    -2.187    -2.044  0.9483 -0.3175 -0.0000
    16 H(1)   Bbb    -0.0035    -1.842    -0.657    -0.615  0.0000 -0.0000  1.0000
              Bcc     0.0149     7.971     2.844     2.659  0.3175  0.9483  0.0000
 
              Baa    -0.0032    -1.704    -0.608    -0.568 -0.0001  0.0000  1.0000
    17 H(1)   Bbb    -0.0029    -1.548    -0.552    -0.516  0.9280 -0.3726  0.0001
              Bcc     0.0061     3.251     1.160     1.085  0.3726  0.9280 -0.0000
 
              Baa    -0.0032    -1.691    -0.603    -0.564  0.0209  0.2977  0.9544
    18 H(1)   Bbb     0.0001     0.071     0.025     0.024  0.9998 -0.0022 -0.0212
              Bcc     0.0030     1.621     0.578     0.541 -0.0042  0.9547 -0.2977
 
              Baa    -0.0032    -1.691    -0.603    -0.564 -0.0209 -0.2977  0.9544
    19 H(1)   Bbb     0.0001     0.071     0.025     0.024  0.9998 -0.0022  0.0212
              Bcc     0.0030     1.621     0.578     0.541 -0.0042  0.9547  0.2977
 
              Baa    -0.0028    -1.496    -0.534    -0.499 -0.0000 -0.0000  1.0000
    20 H(1)   Bbb    -0.0001    -0.053    -0.019    -0.018  0.9166  0.3997  0.0000
              Bcc     0.0029     1.549     0.553     0.517 -0.3997  0.9166  0.0000
 
              Baa    -0.0186    -9.920    -3.540    -3.309  0.2512  0.9679 -0.0000
    21 H(1)   Bbb    -0.0016    -0.871    -0.311    -0.290  0.0000  0.0000  1.0000
              Bcc     0.0202    10.791     3.850     3.599  0.9679 -0.2512 -0.0000
 
              Baa    -0.0031    -1.643    -0.586    -0.548  0.0000  0.0000  1.0000
    22 H(1)   Bbb    -0.0015    -0.822    -0.293    -0.274  0.6475  0.7620 -0.0000
              Bcc     0.0046     2.465     0.880     0.822  0.7620 -0.6475 -0.0000
 
              Baa    -0.0108    -5.780    -2.063    -1.928  0.9806  0.1961 -0.0000
    23 H(1)   Bbb    -0.0032    -1.727    -0.616    -0.576  0.0000  0.0000  1.0000
              Bcc     0.0141     7.507     2.679     2.504 -0.1961  0.9806 -0.0000
 

 ---------------------------------------------------------------------------------

 Running external command "gaunbo6 R"
         input file       "/home/rpaton/arbr500/midi/fukui/Gau-2433378.EIn"
         output file      "/home/rpaton/arbr500/midi/fukui/Gau-2433378.EOu"
         message file     "/home/rpaton/arbr500/midi/fukui/Gau-2433378.EMs"
         fchk file        "/home/rpaton/arbr500/midi/fukui/Gau-2433378.EFC"
         mat. el file     "/home/rpaton/arbr500/midi/fukui/Gau-2433378.EUF"

 Writing WrtUnf unformatted file "/home/rpaton/arbr500/midi/fukui/Gau-2433378.EUF"
 Gaussian matrix elements                                         Version   2 NLab=11 Len12L=8 Len4L=8
 Write SHELL TO ATOM MAP                   from file      0 offset           0 length                  94 to matrix element file.
 Write SHELL TYPES                         from file      0 offset           0 length                  94 to matrix element file.
 Write NUMBER OF PRIMITIVES PER SHELL      from file      0 offset           0 length                  94 to matrix element file.
 Write PRIMITIVE EXPONENTS                 from file      0 offset           0 length                 169 to matrix element file.
 Write CONTRACTION COEFFICIENTS            from file      0 offset           0 length                 169 to matrix element file.
 Write P(S=P) CONTRACTION COEFFICIENTS     from file      0 offset           0 length                 169 to matrix element file.
 Write COORDINATES OF EACH SHELL           from file      0 offset           0 length                 282 to matrix element file.
 Write BONDS PER ATOM                      from file      0 offset           0 length                  23 to matrix element file.
 Write BONDED ATOMS                        from file      0 offset           0 length                  50 to matrix element file.
 Write BOND TYPES                          from file      0 offset           0 length                  50 to matrix element file.
 Write ONIOM CHARGE/MULT                   from file      0 offset           0 length                  32 to matrix element file.
 Write ONIOM ATOM LAYERS                   from file      0 offset           0 length                  23 to matrix element file.
 Write ONIOM ATOM MODIFIERS                from file      0 offset           0 length                  23 to matrix element file.
 Write ONIOM ATOM TYPES                    from file      0 offset           0 length                  23 to matrix element file.
 Write ONIOM LINK ATOMS                    from file      0 offset           0 length                  23 to matrix element file.
 Write ONIOM LINK CHARGES                  from file      0 offset           0 length                  23 to matrix element file.
 Write ONIOM LINK DISTANCES                from file      0 offset           0 length                  92 to matrix element file.
 Write SYMINF INTS                         from file      0 offset           0 length                  26 to matrix element file.
 Write ROTTR TO SO                         from file      0 offset           0 length                  12 to matrix element file.
 Write GAUSSIAN SCALARS                    from file    501 offset           0 to matrix element file.
 Write OPTIMIZATION FLAGS                  from file      0 offset           0 length                  23 to matrix element file.
 Write INTEGER ISO                         from file      0 offset           0 length                  23 to matrix element file.
 Write INTEGER SPIN                        from file      0 offset           0 length                  23 to matrix element file.
 Write REAL ZEFFECTIVE                     from file      0 offset           0 length                  23 to matrix element file.
 Write REAL QUADRUPOLEMOMENT               from file      0 offset           0 length                  23 to matrix element file.
 Write REAL GFACTOR                        from file      0 offset           0 length                  23 to matrix element file.
 Write REAL ZNUCLEAR                       from file      0 offset           0 length                  23 to matrix element file.
 Write MULLIKEN CHARGES                    from file      0 offset           0 length                  23 to matrix element file.
 Write TYPE 6 CHARGES                      from file      0 offset           0 length                  23 to matrix element file.
 Write TYPE 7 CHARGES                      from file      0 offset           0 length                  23 to matrix element file.
 Write NUCLEAR GRADIENT                    from file  10584 offset           0 length                  69 to matrix element file.
 Array NUCLEAR FORCE CONSTANTS              on  file  10585 does not exist.
 Write ELECTRIC DIPOLE MOMENT              from file      0 offset           0 length                   3 to matrix element file.
 Write NON-ADIABATIC COUPLING              from file  10810 offset           0 length                  69 to matrix element file.
 Write FINITE EM FIELD                     from file  10521 offset           0 length                  35 to matrix element file.
 Write OVERLAP                             from file  10514 offset           0 length               13203 to matrix element file.
 Write CORE HAMILTONIAN ALPHA              from file  10515 offset           0 length               13203 to matrix element file.
 Write CORE HAMILTONIAN BETA               from file  10515 offset       13203 length               13203 to matrix element file.
 Write KINETIC ENERGY                      from file  10516 offset           0 length               13203 to matrix element file.
 Write ORTHOGONAL BASIS                    from file  10685 offset           0 length               26244 to matrix element file.
 Write DIPOLE INTEGRALS                    from file  10518 offset           0 length               39609 to matrix element file.
 Array DIP VEL INTEGRALS                    on  file  10572 does not exist.
 Array R X DEL INTEGRALS                    on  file  10572 does not exist.
 Write ALPHA ORBITAL ENERGIES              from file      0 offset           0 length                 162 to matrix element file.
 Write BETA ORBITAL ENERGIES               from file      0 offset           0 length                 162 to matrix element file.
 Write ALPHA MO COEFFICIENTS               from file  10524 offset           0 length               26244 to matrix element file.
 Write BETA MO COEFFICIENTS                from file  10526 offset           0 length               26244 to matrix element file.
 Write ALPHA DENSITY MATRIX                from file      0 offset           0 length               13203 to matrix element file.
 Write BETA DENSITY MATRIX                 from file      0 offset           0 length               13203 to matrix element file.
 Write ALPHA FOCK MATRIX                   from file  10536 offset           0 length               13203 to matrix element file.
 Write BETA FOCK MATRIX                    from file  10538 offset           0 length               13203 to matrix element file.
 Write ENERGY-WEIGHTED DENSITY             from file  10571 offset           0 length               13203 to matrix element file.
 Write ALPHA SCF DENSITY MATRIX            from file      0 offset           0 length               13203 to matrix element file.
 Write BETA SCF DENSITY MATRIX             from file      0 offset           0 length               13203 to matrix element file.
 No 2e integrals to process.
 Perform NBO analysis...

 *********************************** NBO 7.0 ***********************************
             N A T U R A L   A T O M I C   O R B I T A L   A N D
          N A T U R A L   B O N D   O R B I T A L   A N A L Y S I S
 **************************** Robert Paton (I101709) ***************************
  (c) Copyright 1996-2019 Board of Regents of the University of Wisconsin System
      on behalf of the Theoretical Chemistry Institute.  All rights reserved.

          Cite this program [NBO 7.0.5 (4-Jun-2019)] as:

          NBO 7.0.  E. D. Glendening, J. K. Badenhoop, A. E. Reed,
          J. E. Carpenter, J. A. Bohmann, C. M. Morales, P. Karafiloglou,
          C. R. Landis, and F. Weinhold, Theoretical Chemistry Institute,
          University of Wisconsin, Madison, WI (2018)

 Filename set to /home/rpaton/arbr500/midi/fukui/Gau-2433378

 Job title:  arbr34_wb97xd_redcreated by GaussianPrep


 NATURAL POPULATIONS:  Natural atomic orbital occupancies

  NAO Atom No lang   Type(AO)    Occupancy     Spin
 -----------------------------------------------------
   1   Br  1  s      Cor( 3s)     2.00000     0.00000
   2   Br  1  s      Cor( 1s)     2.00000     0.00000
   3   Br  1  s      Cor( 2s)     1.99999     0.00000
   4   Br  1  s      Val( 4s)     1.86260     0.00034
   5   Br  1  s      Ryd( 5s)     0.00266     0.00009
   6   Br  1  px     Cor( 3p)     2.00000     0.00000
   7   Br  1  px     Cor( 2p)     1.99999     0.00000
   8   Br  1  px     Val( 4p)     1.21407    -0.01247
   9   Br  1  px     Ryd( 5p)     0.00309     0.00005
  10   Br  1  py     Cor( 3p)     2.00000     0.00000
  11   Br  1  py     Cor( 2p)     1.99999     0.00000
  12   Br  1  py     Val( 4p)     1.97003    -0.00016
  13   Br  1  py     Ryd( 5p)     0.00125     0.00001
  14   Br  1  pz     Cor( 3p)     2.00000     0.00000
  15   Br  1  pz     Cor( 2p)     2.00000     0.00000
  16   Br  1  pz     Val( 4p)     1.96918     0.01314
  17   Br  1  pz     Ryd( 5p)     0.00090     0.00029
  18   Br  1  dxy    Cor( 3d)     1.99968     0.00000
  19   Br  1  dxy    Ryd( 4d)     0.00082    -0.00002
  20   Br  1  dxz    Cor( 3d)     1.99988     0.00001
  21   Br  1  dxz    Ryd( 4d)     0.00391     0.00145
  22   Br  1  dyz    Cor( 3d)     1.99999     0.00000
  23   Br  1  dyz    Ryd( 4d)     0.00016     0.00005
  24   Br  1  dx2y2  Cor( 3d)     1.99944     0.00000
  25   Br  1  dx2y2  Ryd( 4d)     0.00439    -0.00005
  26   Br  1  dz2    Cor( 3d)     1.99980     0.00000
  27   Br  1  dz2    Ryd( 4d)     0.00153     0.00000

  28    C  2  s      Cor( 1s)     1.99989     0.00000
  29    C  2  s      Val( 2s)     0.91097     0.01143
  30    C  2  s      Ryd( 3s)     0.00052    -0.00001
  31    C  2  px     Val( 2p)     0.93673     0.00877
  32    C  2  px     Ryd( 3p)     0.00580    -0.00002
  33    C  2  py     Val( 2p)     1.11051     0.00554
  34    C  2  py     Ryd( 3p)     0.00654     0.00000
  35    C  2  pz     Val( 2p)     1.25258     0.23322
  36    C  2  pz     Ryd( 3p)     0.00129     0.00072

  37    C  3  s      Cor( 1s)     1.99986     0.00000
  38    C  3  s      Val( 2s)     0.93739    -0.00481
  39    C  3  s      Ryd( 3s)     0.00079     0.00002
  40    C  3  px     Val( 2p)     1.13300    -0.00495
  41    C  3  px     Ryd( 3p)     0.00583     0.00006
  42    C  3  py     Val( 2p)     1.14993    -0.00524
  43    C  3  py     Ryd( 3p)     0.00481     0.00003
  44    C  3  pz     Val( 2p)     1.03068    -0.05273
  45    C  3  pz     Ryd( 3p)     0.00076     0.00023

  46    C  4  s      Cor( 1s)     1.99983     0.00000
  47    C  4  s      Val( 2s)     0.91943     0.00545
  48    C  4  s      Ryd( 3s)     0.00063    -0.00001
  49    C  4  px     Val( 2p)     1.07892     0.00287
  50    C  4  px     Ryd( 3p)     0.00486     0.00001
  51    C  4  py     Val( 2p)     1.17751     0.00250
  52    C  4  py     Ryd( 3p)     0.00481    -0.00001
  53    C  4  pz     Val( 2p)     1.10751     0.14853
  54    C  4  pz     Ryd( 3p)     0.00168     0.00134

  55    C  5  s      Cor( 1s)     1.99987     0.00000
  56    C  5  s      Val( 2s)     0.82522     0.00332
  57    C  5  s      Ryd( 3s)     0.00090     0.00004
  58    C  5  px     Val( 2p)     1.08011    -0.00008
  59    C  5  px     Ryd( 3p)     0.00477     0.00004
  60    C  5  py     Val( 2p)     1.09858     0.00058
  61    C  5  py     Ryd( 3p)     0.00564     0.00000
  62    C  5  pz     Val( 2p)     1.10040     0.13565
  63    C  5  pz     Ryd( 3p)     0.00102     0.00082

  64    C  6  s      Cor( 1s)     1.99991     0.00000
  65    C  6  s      Val( 2s)     0.83965     0.00091
  66    C  6  s      Ryd( 3s)     0.00097    -0.00002
  67    C  6  px     Val( 2p)     1.08754     0.00025
  68    C  6  px     Ryd( 3p)     0.00465     0.00001
  69    C  6  py     Val( 2p)     1.06321    -0.00053
  70    C  6  py     Ryd( 3p)     0.00414    -0.00001
  71    C  6  pz     Val( 2p)     1.02389     0.04437
  72    C  6  pz     Ryd( 3p)     0.00123     0.00021

  73    C  7  s      Cor( 1s)     1.99984     0.00000
  74    C  7  s      Val( 2s)     0.92164    -0.00092
  75    C  7  s      Ryd( 3s)     0.00101     0.00002
  76    C  7  px     Val( 2p)     1.09812    -0.00281
  77    C  7  px     Ryd( 3p)     0.00614     0.00006
  78    C  7  py     Val( 2p)     1.18149    -0.00198
  79    C  7  py     Ryd( 3p)     0.00504     0.00001
  80    C  7  pz     Val( 2p)     1.07659     0.02781
  81    C  7  pz     Ryd( 3p)     0.00137     0.00097

  82    C  8  s      Cor( 1s)     1.99975     0.00000
  83    C  8  s      Val( 2s)     1.02216    -0.00118
  84    C  8  s      Ryd( 3s)     0.00044     0.00000
  85    C  8  px     Val( 2p)     1.05740    -0.00260
  86    C  8  px     Ryd( 3p)     0.00214     0.00001
  87    C  8  py     Val( 2p)     1.17232    -0.00194
  88    C  8  py     Ryd( 3p)     0.00214     0.00000
  89    C  8  pz     Val( 2p)     1.24815    -0.00126
  90    C  8  pz     Ryd( 3p)     0.00044     0.00007

  91    C  9  s      Cor( 1s)     1.99991     0.00000
  92    C  9  s      Val( 2s)     0.84090     0.00231
  93    C  9  s      Ryd( 3s)     0.00100    -0.00001
  94    C  9  px     Val( 2p)     1.08635     0.00146
  95    C  9  px     Ryd( 3p)     0.00464     0.00002
  96    C  9  py     Val( 2p)     1.06643     0.00078
  97    C  9  py     Ryd( 3p)     0.00406    -0.00003
  98    C  9  pz     Val( 2p)     1.03238     0.06416
  99    C  9  pz     Ryd( 3p)     0.00126     0.00023

 100    C 10  s      Cor( 1s)     1.99984     0.00000
 101    C 10  s      Val( 2s)     0.92727    -0.00203
 102    C 10  s      Ryd( 3s)     0.00079     0.00001
 103    C 10  px     Val( 2p)     1.09006    -0.00360
 104    C 10  px     Ryd( 3p)     0.00504     0.00003
 105    C 10  py     Val( 2p)     1.18418    -0.00188
 106    C 10  py     Ryd( 3p)     0.00476     0.00002
 107    C 10  pz     Val( 2p)     1.05796    -0.00451
 108    C 10  pz     Ryd( 3p)     0.00078     0.00032

 109    C 11  s      Cor( 1s)     1.99987     0.00000
 110    C 11  s      Val( 2s)     0.93002     0.00872
 111    C 11  s      Ryd( 3s)     0.00058     0.00000
 112    C 11  px     Val( 2p)     1.17619     0.00533
 113    C 11  px     Ryd( 3p)     0.00443     0.00000
 114    C 11  py     Val( 2p)     1.08146     0.00520
 115    C 11  py     Ryd( 3p)     0.00495    -0.00002
 116    C 11  pz     Val( 2p)     1.15653     0.20201
 117    C 11  pz     Ryd( 3p)     0.00173     0.00126

 118    C 12  s      Cor( 1s)     1.99987     0.00000
 119    C 12  s      Val( 2s)     0.94161    -0.00476
 120    C 12  s      Ryd( 3s)     0.00052     0.00001
 121    C 12  px     Val( 2p)     1.13788    -0.00439
 122    C 12  px     Ryd( 3p)     0.00464     0.00003
 123    C 12  py     Val( 2p)     1.13738    -0.00497
 124    C 12  py     Ryd( 3p)     0.00469     0.00002
 125    C 12  pz     Val( 2p)     1.02752    -0.05851
 126    C 12  pz     Ryd( 3p)     0.00050    -0.00004

 127    C 13  s      Cor( 1s)     1.99983     0.00000
 128    C 13  s      Val( 2s)     0.92158     0.00591
 129    C 13  s      Ryd( 3s)     0.00069    -0.00001
 130    C 13  px     Val( 2p)     1.07770     0.00330
 131    C 13  px     Ryd( 3p)     0.00497     0.00000
 132    C 13  py     Val( 2p)     1.18352     0.00335
 133    C 13  py     Ryd( 3p)     0.00465    -0.00001
 134    C 13  pz     Val( 2p)     1.10456     0.14953
 135    C 13  pz     Ryd( 3p)     0.00162     0.00124

 136    C 14  s      Cor( 1s)     1.99987     0.00000
 137    C 14  s      Val( 2s)     0.82924     0.00047
 138    C 14  s      Ryd( 3s)     0.00089     0.00003
 139    C 14  px     Val( 2p)     1.08718    -0.00281
 140    C 14  px     Ryd( 3p)     0.00488     0.00003
 141    C 14  py     Val( 2p)     1.09641    -0.00098
 142    C 14  py     Ryd( 3p)     0.00561     0.00001
 143    C 14  pz     Val( 2p)     1.06481     0.07892
 144    C 14  pz     Ryd( 3p)     0.00082     0.00065

 145    H 15  s      Val( 1s)     0.76686     0.00199
 146    H 15  s      Ryd( 2s)     0.00128     0.00000

 147    H 16  s      Val( 1s)     0.77592    -0.00556
 148    H 16  s      Ryd( 2s)     0.00088    -0.00001

 149    H 17  s      Val( 1s)     0.76709    -0.00090
 150    H 17  s      Ryd( 2s)     0.00129     0.00000

 151    H 18  s      Val( 1s)     0.74556     0.00542
 152    H 18  s      Ryd( 2s)     0.00117     0.00002

 153    H 19  s      Val( 1s)     0.74556     0.00542
 154    H 19  s      Ryd( 2s)     0.00117     0.00002

 155    H 20  s      Val( 1s)     0.78160     0.00021
 156    H 20  s      Ryd( 2s)     0.00091     0.00000

 157    H 21  s      Val( 1s)     0.78637    -0.00747
 158    H 21  s      Ryd( 2s)     0.00085    -0.00001

 159    H 22  s      Val( 1s)     0.78200     0.00215
 160    H 22  s      Ryd( 2s)     0.00088     0.00000

 161    H 23  s      Val( 1s)     0.77870    -0.00560
 162    H 23  s      Ryd( 2s)     0.00088    -0.00001


 Summary of Natural Population Analysis:

                                     Natural Population                 Natural
             Natural    ---------------------------------------------    Spin
  Atom No    Charge        Core      Valence    Rydberg      Total      Density
 -------------------------------------------------------------------------------
   Br  1   -0.03336     27.99877     7.01589    0.01870    35.03336     0.00273
    C  2   -0.22484      1.99989     4.21080    0.01415     6.22484     0.25965
    C  3   -0.26304      1.99986     4.25099    0.01219     6.26304    -0.06739
    C  4   -0.29517      1.99983     4.28337    0.01197     6.29517     0.16069
    C  5   -0.11650      1.99987     4.10431    0.01232     6.11650     0.14036
    C  6   -0.02518      1.99991     4.01428    0.01099     6.02518     0.04519
    C  7   -0.29124      1.99984     4.27784    0.01356     6.29124     0.02317
    C  8   -0.50493      1.99975     4.50004    0.00515     6.50493    -0.00690
    C  9   -0.03692      1.99991     4.02606    0.01095     6.03692     0.06892
    C 10   -0.27067      1.99984     4.25946    0.01137     6.27067    -0.01163
    C 11   -0.35575      1.99987     4.34419    0.01169     6.35575     0.22249
    C 12   -0.25462      1.99987     4.24439    0.01036     6.25462    -0.07260
    C 13   -0.29911      1.99983     4.28736    0.01192     6.29911     0.16330
    C 14   -0.08971      1.99987     4.07763    0.01221     6.08971     0.07633
    H 15    0.23186      0.00000     0.76686    0.00128     0.76814     0.00199
    H 16    0.22320      0.00000     0.77592    0.00088     0.77680    -0.00557
    H 17    0.23162      0.00000     0.76709    0.00129     0.76838    -0.00090
    H 18    0.25328      0.00000     0.74556    0.00117     0.74672     0.00544
    H 19    0.25328      0.00000     0.74556    0.00117     0.74672     0.00544
    H 20    0.21749      0.00000     0.78160    0.00091     0.78251     0.00021
    H 21    0.21278      0.00000     0.78637    0.00085     0.78722    -0.00748
    H 22    0.21712      0.00000     0.78200    0.00088     0.78288     0.00215
    H 23    0.22042      0.00000     0.77870    0.00088     0.77958    -0.00560
 ===============================================================================
 * Total * -1.00000     53.99690    68.82627    0.17683   123.00000     1.00000

                                 Natural Population
 ---------------------------------------------------------
   Core                      53.99690 ( 99.9943% of   54)
   Valence                   68.82627 ( 99.7482% of   69)
   Natural Minimal Basis    122.82317 ( 99.8562% of  123)
   Natural Rydberg Basis      0.17683 (  0.1438% of  123)
 ---------------------------------------------------------

    Atom No         Natural Electron Configuration
 ----------------------------------------------------------------------------
     Br  1      [core]4s( 1.86)4p( 5.15)4d( 0.01)5p( 0.01)
      C  2      [core]2s( 0.91)2p( 3.30)3p( 0.01)
      C  3      [core]2s( 0.94)2p( 3.31)3p( 0.01)
      C  4      [core]2s( 0.92)2p( 3.36)3p( 0.01)
      C  5      [core]2s( 0.83)2p( 3.28)3p( 0.01)
      C  6      [core]2s( 0.84)2p( 3.17)3p( 0.01)
      C  7      [core]2s( 0.92)2p( 3.36)3p( 0.01)
      C  8      [core]2s( 1.02)2p( 3.48)
      C  9      [core]2s( 0.84)2p( 3.19)3p( 0.01)
      C 10      [core]2s( 0.93)2p( 3.33)3p( 0.01)
      C 11      [core]2s( 0.93)2p( 3.41)3p( 0.01)
      C 12      [core]2s( 0.94)2p( 3.30)3p( 0.01)
      C 13      [core]2s( 0.92)2p( 3.37)3p( 0.01)
      C 14      [core]2s( 0.83)2p( 3.25)3p( 0.01)
      H 15            1s( 0.77)
      H 16            1s( 0.78)
      H 17            1s( 0.77)
      H 18            1s( 0.75)
      H 19            1s( 0.75)
      H 20            1s( 0.78)
      H 21            1s( 0.79)
      H 22            1s( 0.78)
      H 23            1s( 0.78)


 ***************************************************
 *******         Alpha spin orbitals         *******
 ***************************************************


 NATURAL POPULATIONS:  Natural atomic orbital occupancies

  NAO Atom No lang   Type(AO)    Occupancy      Energy
 -------------------------------------------------------
   1   Br  1  s      Cor( 3s)     1.00000     -21.82999
   2   Br  1  s      Cor( 1s)     1.00000    -449.81039
   3   Br  1  s      Cor( 2s)     1.00000     -79.54634
   4   Br  1  s      Val( 4s)     0.93147      -0.62741
   5   Br  1  s      Ryd( 5s)     0.00137       0.98222
   6   Br  1  px     Cor( 3p)     1.00000      -6.94577
   7   Br  1  px     Cor( 2p)     0.99999     -55.60943
   8   Br  1  px     Val( 4p)     0.60080      -0.10465
   9   Br  1  px     Ryd( 5p)     0.00157       0.86641
  10   Br  1  py     Cor( 3p)     1.00000      -6.93364
  11   Br  1  py     Cor( 2p)     1.00000     -55.60644
  12   Br  1  py     Val( 4p)     0.98494      -0.22342
  13   Br  1  py     Ryd( 5p)     0.00063       0.89753
  14   Br  1  pz     Cor( 3p)     1.00000      -6.93308
  15   Br  1  pz     Cor( 2p)     1.00000     -55.60628
  16   Br  1  pz     Val( 4p)     0.99116      -0.22433
  17   Br  1  pz     Ryd( 5p)     0.00060       0.86193
  18   Br  1  dxy    Cor( 3d)     0.99984      -2.62809
  19   Br  1  dxy    Ryd( 4d)     0.00040       1.06660
  20   Br  1  dxz    Cor( 3d)     0.99995      -2.62772
  21   Br  1  dxz    Ryd( 4d)     0.00268       0.85923
  22   Br  1  dyz    Cor( 3d)     1.00000      -2.61817
  23   Br  1  dyz    Ryd( 4d)     0.00011       0.78562
  24   Br  1  dx2y2  Cor( 3d)     0.99972      -2.62832
  25   Br  1  dx2y2  Ryd( 4d)     0.00217       1.14144
  26   Br  1  dz2    Cor( 3d)     0.99990      -2.62127
  27   Br  1  dz2    Ryd( 4d)     0.00076       0.90348

  28    C  2  s      Cor( 1s)     0.99995     -10.10912
[...]
   56. BD ( 1) C 11- H 21      88. BD*( 1) C 12- C 13      1.23    1.26   0.050
   56. BD ( 1) C 11- H 21     134. RY ( 1) C 10            0.64    1.98   0.045
   56. BD ( 1) C 11- H 21     142. RY ( 1) C 12            0.69    1.97   0.046
   57. BD ( 1) C 12- C 13      72. BD*( 1) C  5- C 14      1.58    1.29   0.057
   57. BD ( 1) C 12- C 13      85. BD*( 1) C 11- C 12      1.54    1.36   0.058
   57. BD ( 1) C 12- C 13      87. BD*( 1) C 11- H 21      0.96    1.24   0.043
   57. BD ( 1) C 12- C 13      89. BD*( 1) C 12- H 22      0.68    1.23   0.037
   57. BD ( 1) C 12- C 13      90. BD*( 1) C 13- C 14      1.77    1.39   0.063
   57. BD ( 1) C 12- C 13      92. BD*( 1) C 13- H 23      0.80    1.24   0.040
   57. BD ( 1) C 12- C 13     138. RY ( 1) C 11            0.43    2.08   0.038
   57. BD ( 1) C 12- C 13     139. RY ( 2) C 11            0.77    1.69   0.046
   57. BD ( 1) C 12- C 13     150. RY ( 1) C 14            1.22    2.15   0.064
   57. BD ( 1) C 12- C 13     151. RY ( 2) C 14            0.34    2.21   0.035
   58. BD ( 1) C 12- H 22      83. BD*( 1) C 10- C 11      1.29    1.27   0.051
   58. BD ( 1) C 12- H 22      85. BD*( 1) C 11- C 12      0.40    1.27   0.028
   58. BD ( 1) C 12- H 22      88. BD*( 1) C 12- C 13      0.40    1.27   0.029
   58. BD ( 1) C 12- H 22      90. BD*( 1) C 13- C 14      1.19    1.30   0.050
   58. BD ( 1) C 12- H 22     138. RY ( 1) C 11            0.70    1.99   0.047
   58. BD ( 1) C 12- H 22     146. RY ( 1) C 13            0.66    1.99   0.046
   59. BD ( 1) C 13- C 14      72. BD*( 1) C  5- C 14      2.20    1.29   0.067
   59. BD ( 1) C 13- C 14      77. BD*( 1) C  8- C  9      0.72    1.17   0.037
   59. BD ( 1) C 13- C 14      82. BD*( 1) C  9- C 14      2.26    1.35   0.070
   59. BD ( 1) C 13- C 14      88. BD*( 1) C 12- C 13      1.67    1.36   0.060
   59. BD ( 1) C 13- C 14      89. BD*( 1) C 12- H 22      0.95    1.22   0.043
   59. BD ( 1) C 13- C 14      92. BD*( 1) C 13- H 23      0.92    1.23   0.042
   59. BD ( 1) C 13- C 14     114. RY ( 1) C  5            0.74    2.15   0.050
   59. BD ( 1) C 13- C 14     115. RY ( 2) C  5            0.30    2.21   0.033
   59. BD ( 1) C 13- C 14     130. RY ( 1) C  9            0.53    2.24   0.044
   59. BD ( 1) C 13- C 14     131. RY ( 2) C  9            0.35    1.97   0.033
   59. BD ( 1) C 13- C 14     142. RY ( 1) C 12            0.56    2.07   0.043
   59. BD ( 1) C 13- C 14     143. RY ( 2) C 12            0.66    1.68   0.042
   60. BD ( 2) C 13- C 14      69. BD*( 2) C  4- C  5      8.73    0.39   0.074
   60. BD ( 2) C 13- C 14      81. BD*( 2) C  9- C 10     19.96    0.37   0.108
   60. BD ( 2) C 13- C 14      86. BD*( 2) C 11- C 12     17.23    0.36   0.099
   60. BD ( 2) C 13- C 14     132. RY ( 3) C  9            0.28    1.29   0.024
   60. BD ( 2) C 13- C 14     145. RY ( 4) C 12            0.42    1.21   0.029
   61. BD ( 1) C 13- H 23      82. BD*( 1) C  9- C 14      1.51    1.25   0.055
   61. BD ( 1) C 13- H 23      85. BD*( 1) C 11- C 12      1.21    1.25   0.049
   61. BD ( 1) C 13- H 23      88. BD*( 1) C 12- C 13      0.46    1.25   0.030
   61. BD ( 1) C 13- H 23      90. BD*( 1) C 13- C 14      0.64    1.28   0.036
   61. BD ( 1) C 13- H 23     142. RY ( 1) C 12            0.66    1.97   0.045
   61. BD ( 1) C 13- H 23     151. RY ( 2) C 14            0.94    2.10   0.056


 NATURAL BOND ORBITALS (Summary):

                                                     Principal Delocalizations
           NBO                 Occupancy    Energy   (geminal,vicinal,remote)
 ===============================================================================
 Molecular unit  1  (C13H9Br)
 ------ Lewis --------------------------------------
    1. CR ( 1)Br  1             1.00000   -21.82997
    2. CR ( 2)Br  1             1.00000  -449.81039
    3. CR ( 3)Br  1             1.00000   -79.54633
    4. CR ( 4)Br  1             1.00000    -6.94587
    5. CR ( 5)Br  1             0.99999   -55.60949
    6. CR ( 6)Br  1             1.00000    -6.93364
    7. CR ( 7)Br  1             1.00000   -55.60644
    8. CR ( 8)Br  1             1.00000    -6.93293
    9. CR ( 9)Br  1             1.00000   -55.60618
   10. CR (10)Br  1             0.99984    -2.62814
   11. CR (11)Br  1             0.99994    -2.62764
   12. CR (12)Br  1             1.00000    -2.61810
   13. CR (13)Br  1             0.99972    -2.62836  95(g)
   14. CR (14)Br  1             0.99990    -2.62120
   15. CR ( 1) C  2             0.99995   -10.10531
   16. CR ( 1) C  3             0.99993   -10.08375
   17. CR ( 1) C  4             0.99991   -10.06282
   18. CR ( 1) C  5             0.99994   -10.05644
   19. CR ( 1) C  6             0.99995   -10.07796
   20. CR ( 1) C  7             0.99992   -10.07682
   21. CR ( 1) C  8             0.99987   -10.09542
   22. CR ( 1) C  9             0.99995   -10.07508
   23. CR ( 1) C 10             0.99992   -10.07513
   24. CR ( 1) C 11             0.99993   -10.05944
   25. CR ( 1) C 12             0.99993   -10.07925
   26. CR ( 1) C 13             0.99992   -10.06160
   27. CR ( 1) C 14             0.99994   -10.06222
   28. LP ( 1)Br  1             0.99881    -0.61327  103(v)
   29. LP ( 2)Br  1             0.99238    -0.22555  63(v),65(v),102(v)
   30. LP ( 3)Br  1             0.97828    -0.22030  64(v)
   31. BD ( 1)Br  1- C  2       0.99462    -0.47819  106(v),122(v),73(v),66(v)
   32. BD ( 1) C  2- C  3       0.98944    -0.54458  65(g),66(g),67(g),76(v)
                                                     70(v),110(v),122(v),111(v)
                                                     123(v)
   33. BD ( 2) C  2- C  3       0.84968    -0.15797  69(v),74(v),93(v),113(v)
                                                     125(v)
   34. BD ( 1) C  2- C  7       0.98863    -0.54050  63(g),73(g),75(v),119(v)
                                                     76(g),67(v),106(v),107(v)
                                                     118(v)
   35. BD ( 1) C  3- C  4       0.98568    -0.51821  62(v),68(g),63(g),72(v)
                                                     114(v),70(g),67(g),102(v)
                                                     103(v),115(v)
   36. BD ( 1) C  3- H 15       0.99175    -0.42664  65(v),68(v),103(v),110(v)
                                                     66(g),62(v),63(g)
   37. BD ( 1) C  4- C  5       0.98639    -0.51078  71(g),72(g),66(g),107(v)
                                                     70(g),67(v),75(v),150(v)
                                                     118(v),119(v),151(v)
   38. BD ( 2) C  4- C  5       0.79853    -0.11778  74(v),64(v),91(v),109(v)
                                                     120(v)
   39. BD ( 1) C  4- H 16       0.99134    -0.40931  71(v),63(v),115(v),68(g)
                                                     106(v),66(g)
   40. BD ( 1) C  5- C  6       0.98198    -0.49382  68(g),73(g),72(g),90(v)
                                                     76(v),70(v),123(v),150(v)
                                                     75(g),111(v),77(v),127(v)
   41. BD ( 1) C  5- C 14       0.98297    -0.45261  68(g),90(g),71(g),82(g)
                                                     80(v),73(v),146(v),110(v)
                                                     118(v),130(v),88(v),66(v)
                                                     77(v),75(v)
   42. BD ( 1) C  6- C  7       0.98448    -0.52571  71(g),62(v),65(g),75(g)
                                                     76(g),102(v),72(v),115(v)
                                                     114(v),126(v),103(v)
   43. BD ( 2) C  6- C  7       0.84161    -0.14716  64(v),69(v),78(v),79(v)
                                                     117(v),104(v)
   44. BD ( 1) C  6- C  8       0.98833    -0.46360  80(v),73(g),68(v),71(g)
                                                     122(v),115(v),77(g),65(v)
                                                     78(g),79(g),131(v),72(v)
                                                     82(v)
   45. BD ( 1) C  7- H 17       0.99121    -0.42153  71(v),63(v),118(v),103(v)
                                                     73(g),65(g),62(v)
   46. BD ( 1) C  8- C  9       0.98876    -0.46264  73(v),80(g),90(v),134(v)
                                                     82(g),151(v),75(g),83(v)
                                                     78(g),79(g),119(v),72(v)
                                                     71(v)
   47. BD ( 1) C  8- H 18       0.98524    -0.41528  81(v),74(v),132(v),120(v)
                                                     77(g),75(g),82(v),71(v)
   48. BD ( 1) C  8- H 19       0.98524    -0.41528  81(v),74(v),132(v),120(v)
                                                     77(g),75(g),82(v),71(v)
   49. BD ( 1) C  9- C 10       0.98783    -0.52523  82(g),83(g),77(g),84(g)
                                                     87(v),139(v),151(v),72(v)
                                                     138(v),126(v),150(v)
   50. BD ( 2) C  9- C 10       0.84134    -0.14643  86(v),91(v),78(v),79(v)
                                                     141(v),153(v)
   51. BD ( 1) C  9- C 14       0.98200    -0.49479  80(g),90(g),72(g),68(v)
                                                     84(v),92(v),114(v),77(g)
                                                     147(v),135(v),75(v),127(v)
                                                     134(v),146(v)
   52. BD ( 1) C 10- C 11       0.98856    -0.51680  80(g),77(v),85(g),131(v)
                                                     89(v),143(v),87(g),84(g)
                                                     142(v),130(v)
   53. BD ( 1) C 10- H 20       0.99249    -0.42275  82(v),85(v),130(v),138(v)
                                                     80(g),83(g)
   54. BD ( 1) C 11- C 12       0.98939    -0.51983  83(g),88(g),92(v),84(v)
                                                     87(g),135(v),89(g),147(v)
                                                     146(v),134(v)
   55. BD ( 2) C 11- C 12       0.84255    -0.14479  91(v),81(v),149(v),137(v)
   56. BD ( 1) C 11- H 21       0.99278    -0.41319  88(v),80(v),142(v),134(v)
                                                     85(g),83(g)
   57. BD ( 1) C 12- C 13       0.98916    -0.51746  90(g),72(v),85(g),150(v)
                                                     87(v),92(g),139(v),89(g)
                                                     138(v),151(v)
   58. BD ( 1) C 12- H 22       0.99293    -0.42574  83(v),90(v),138(v),146(v)
                                                     88(g),85(g)
   59. BD ( 1) C 13- C 14       0.98644    -0.51215  82(g),72(g),88(g),89(v)
                                                     92(g),114(v),77(v),143(v)
                                                     142(v),130(v),131(v),115(v)
   60. BD ( 2) C 13- C 14       0.80390    -0.12148  81(v),86(v),69(v),145(v)
                                                     132(v)
   61. BD ( 1) C 13- H 23       0.99204    -0.40946  82(v),85(v),151(v),142(v)
                                                     90(g),88(g)
 ------ non-Lewis ----------------------------------
   62. BD*( 1)Br  1- C  2       0.01350     0.33970
   63. BD*( 1) C  2- C  3       0.01104     0.82506
   64. BD*( 2) C  2- C  3       0.20180     0.22054
   65. BD*( 1) C  2- C  7       0.01090     0.82665
   66. BD*( 1) C  3- C  4       0.00780     0.84443
   67. BD*( 1) C  3- H 15       0.00571     0.71452
   68. BD*( 1) C  4- C  5       0.01135     0.87310
   69. BD*( 2) C  4- C  5       0.16340     0.26908
   70. BD*( 1) C  4- H 16       0.00621     0.72240
   71. BD*( 1) C  5- C  6       0.01270     0.83789
   72. BD*( 1) C  5- C 14       0.01488     0.77459
   73. BD*( 1) C  6- C  7       0.01110     0.86570
   74. BD*( 2) C  6- C  7       0.17260     0.24615
   75. BD*( 1) C  6- C  8       0.00936     0.65497
   76. BD*( 1) C  7- H 17       0.00660     0.71171
   77. BD*( 1) C  8- C  9       0.00960     0.65538
   78. BD*( 1) C  8- H 18       0.00606     0.66145
   79. BD*( 1) C  8- H 19       0.00606     0.66145
   80. BD*( 1) C  9- C 10       0.01083     0.86517
   81. BD*( 2) C  9- C 10       0.17413     0.24634
   82. BD*( 1) C  9- C 14       0.01281     0.83600
   83. BD*( 1) C 10- C 11       0.00788     0.84115
   84. BD*( 1) C 10- H 20       0.00631     0.70867
   85. BD*( 1) C 11- C 12       0.00795     0.84046
   86. BD*( 2) C 11- C 12       0.17800     0.23775
   87. BD*( 1) C 11- H 21       0.00553     0.71779
   88. BD*( 1) C 12- C 13       0.00760     0.84469
   89. BD*( 1) C 12- H 22       0.00543     0.71234
   90. BD*( 1) C 13- C 14       0.01138     0.87033
   91. BD*( 2) C 13- C 14       0.16664     0.26483
   92. BD*( 1) C 13- H 23       0.00637     0.72190
   93. RY ( 1)Br  1             0.00129     0.82876
   94. RY ( 2)Br  1             0.00052     0.88788
   95. RY ( 3)Br  1             0.00029     1.25072
   96. RY ( 4)Br  1             0.00017     0.97599
   97. RY ( 5)Br  1             0.00005     1.07112
   98. RY ( 6)Br  1             0.00003     0.78537
   99. RY ( 7)Br  1             0.00002     0.81356
  100. RY ( 8)Br  1             0.00001     0.89627
  101. RY ( 9)Br  1             0.00000     0.84502
  102. RY ( 1) C  2             0.00266     1.26383
  103. RY ( 2) C  2             0.00236     1.53577
  104. RY ( 3) C  2             0.00029     1.12590
  105. RY ( 4) C  2             0.00020     0.87679
  106. RY ( 1) C  3             0.00243     1.49792
  107. RY ( 2) C  3             0.00171     1.19008
  108. RY ( 3) C  3             0.00021     0.88131
  109. RY ( 4) C  3             0.00015     1.09088
  110. RY ( 1) C  4             0.00207     1.56396
  111. RY ( 2) C  4             0.00163     1.18421
  112. RY ( 3) C  4             0.00016     0.89822
  113. RY ( 4) C  4             0.00010     1.11245
  114. RY ( 1) C  5             0.00252     1.63415
  115. RY ( 2) C  5             0.00222     1.69660
  116. RY ( 3) C  5             0.00033     0.93589
  117. RY ( 4) C  5             0.00010     1.19050
  118. RY ( 1) C  6             0.00205     1.71121
  119. RY ( 2) C  6             0.00177     1.47256
  120. RY ( 3) C  6             0.00051     1.17056
  121. RY ( 4) C  6             0.00033     0.93790
  122. RY ( 1) C  7             0.00256     1.47502
  123. RY ( 2) C  7             0.00181     1.20182
  124. RY ( 3) C  7             0.00028     0.88128
  125. RY ( 4) C  7             0.00013     1.10045
  126. RY ( 1) C  8             0.00104     1.11194
  127. RY ( 2) C  8             0.00083     1.09785
  128. RY ( 3) C  8             0.00018     1.35349
  129. RY ( 4) C  8             0.00006     1.25210
  130. RY ( 1) C  9             0.00201     1.72631
  131. RY ( 2) C  9             0.00173     1.45999
  132. RY ( 3) C  9             0.00051     1.17225
  133. RY ( 4) C  9             0.00034     0.93690
  134. RY ( 1) C 10             0.00213     1.56303
  135. RY ( 2) C 10             0.00169     1.15060
  136. RY ( 3) C 10             0.00022     0.89176
  137. RY ( 4) C 10             0.00011     1.10001
  138. RY ( 1) C 11             0.00204     1.56687
  139. RY ( 2) C 11             0.00149     1.17504
  140. RY ( 3) C 11             0.00014     0.89798
  141. RY ( 4) C 11             0.00013     1.10875
  142. RY ( 1) C 12             0.00205     1.55724
  143. RY ( 2) C 12             0.00155     1.16787
  144. RY ( 3) C 12             0.00014     0.89371
  145. RY ( 4) C 12             0.00009     1.09295
  146. RY ( 1) C 13             0.00203     1.56871
  147. RY ( 2) C 13             0.00163     1.17762
  148. RY ( 3) C 13             0.00019     0.89623
  149. RY ( 4) C 13             0.00011     1.11234
  150. RY ( 1) C 14             0.00251     1.62955
  151. RY ( 2) C 14             0.00228     1.69374
  152. RY ( 3) C 14             0.00033     0.93444
  153. RY ( 4) C 14             0.00008     1.18549
  154. RY ( 1) H 15             0.00064     0.75558
  155. RY ( 1) H 16             0.00044     0.79770
  156. RY ( 1) H 17             0.00065     0.76655
  157. RY ( 1) H 18             0.00057     0.75128
  158. RY ( 1) H 19             0.00057     0.75128
  159. RY ( 1) H 20             0.00046     0.76035
  160. RY ( 1) H 21             0.00043     0.76229
  161. RY ( 1) H 22             0.00044     0.75110
  162. RY ( 1) H 23             0.00044     0.79795
          -------------------------------
                 Total Lewis   59.65522  ( 97.7954%)
           Valence non-Lewis    1.28153  (  2.1009%)
           Rydberg non-Lewis    0.06326  (  0.1037%)
          -------------------------------
               Total unit  1   61.00000  (100.0000%)
              Charge unit  1    0.00000

 $CHOOSE
  ALPHA
   LONE 1 3 2 1 11 1 END
   BOND S 1 2 S 2 3 S 2 7 D 3 4 S 3 15 S 4 5 S 4 16 S 5 6 D 5 14 D 6 7 S 6 8
        S 7 17 S 8 9 S 8 18 S 8 19 D 9 10 S 9 14 S 10 11 S 10 20 S 11 12
        S 11 21 D 12 13 S 12 22 S 13 14 S 13 23 END
  END
  BETA
   LONE 1 3 END
   BOND S 1 2 D 2 3 S 2 7 S 3 4 S 3 15 D 4 5 S 4 16 S 5 6 S 5 14 D 6 7 S 6 8
        S 7 17 S 8 9 S 8 18 S 8 19 D 9 10 S 9 14 S 10 11 S 10 20 D 11 12
        S 11 21 S 12 13 S 12 22 D 13 14 S 13 23 END
  END
 $END

 NBO analysis completed in 1.30 CPU seconds (1 wall second)
 Maximum scratch memory used by NBO was 824217 words (6.29 MB)
 Maximum scratch memory used by G16NBO was 61777 words (0.47 MB)

 Opening RunExU unformatted file "/home/rpaton/arbr500/midi/fukui/Gau-2433378.EUF"
 Read unf file /home/rpaton/arbr500/midi/fukui/Gau-2433378.EUF:
 Label Gaussian matrix elements                                         IVers= 2 NLab= 2 Version=ES64L-G16RevC.01
 Title arbr34_wb97xd_redcreated by GaussianPrep                        
 NAtoms=    23 NBasis=   162 NBsUse=   162 ICharg=    -1 Multip=     2 NE=   123 Len12L=8 Len4L=8 IOpCl= 1 ICGU=112
 GAUSSIAN SCALARS                    NI= 1 NR= 1 NTot=       1 LenBuf=    2 NRI=1 N=    1000
 NPA CHARGES                         NI= 0 NR= 1 NTot=      23 LenBuf= 2048 NRI=1 N=      23
 Recovered energy= -3059.73502413     dipole=     -1.286532337193     -0.377151147209      0.000005223562
 Unable to Open any file for archive entry.
 1\1\GINC-DYNAMO\SP\UwB97XD\MIDIx\C13H9Br1(1-,2)\RPATON\30-Sep-2024\0\\
 # pop=(nbo6,hirshfeld) wb97xd/midix\\arbr34_wb97xd_redcreated by Gauss
 ianPrep\\-1,2\Br,0,3.831541,-0.11031,-0.000001\C,0,1.94964,0.144188,0.
 000005\C,0,1.435826,1.437592,-0.000001\C,0,0.058084,1.637113,0.000003\
 C,0,-0.785697,0.535134,0.000001\C,0,-0.254988,-0.762855,0.000002\C,0,1
 .112498,-0.969119,0.000004\C,0,-1.375197,-1.786266,-0.000003\C,0,-2.61
 4683,-0.909601,0.000002\C,0,-3.948719,-1.27683,0.000001\C,0,-4.923995,
 -0.27896,-0.000002\C,0,-4.561147,1.067392,0.000002\C,0,-3.218836,1.438
 459,-0.000004\C,0,-2.24921,0.444674,-0.000002\H,0,2.113525,2.285526,-0
 .000003\H,0,-0.343268,2.647645,0.000001\H,0,1.534208,-1.970614,0.00000
 2\H,0,-1.333401,-2.435065,-0.887005\H,0,-1.333403,-2.435068,0.886996\H
 ,0,-4.237146,-2.326001,-0.000001\H,0,-5.975748,-0.55338,-0.000003\H,0,
 -5.332606,1.833126,0.000002\H,0,-2.937557,2.489153,-0.000002\\Version=
 ES64L-G16RevC.01\State=2-A\HF=-3059.7350241\S2=0.773691\S2-1=0.\S2A=0.
 750378\RMSD=2.364e-09\Dipole=1.2865323,-0.3771511,-0.0000052\Quadrupol
 e=-22.2679318,13.9997835,8.2681483,0.6895246,-0.0000198,0.0000101\PG=C
 01 [X(C13H9Br1)]\\@
 The archive entry for this job was punched.


 WE THE UNWILLING
 LED BY THE UNQUALIFIED
 HAVE BEEN DOING THE UNBELIEVABLE SO LONG WITH SO LITTLE
 THAT WE NOW ATTEMPT THE IMPOSSIBLE WITH NOTHING.

                                    -- ANONYMOUS
 Job cpu time:       0 days  0 hours  8 minutes 52.0 seconds.
 Elapsed time:       0 days  0 hours  0 minutes 22.5 seconds.
 File lengths (MBytes):  RWF=     31 Int=      0 D2E=      0 Chk=      3 Scr=      1
 Normal termination of Gaussian 16 at Mon Sep 30 12:59:05 2024.
