 Entering Gaussian System, Link 0=/usr/local/Gaussian/G16C/g16/g16
 Input=arbr35_wb97xd_red.com
 Output=arbr35_wb97xd_red.log
 Initial command:
 /usr/local/Gaussian/G16C/g16/l1.exe "/home/rpaton/arbr500/midi/fukui/Gau-2434675.inp" -scrdir="/home/rpaton/arbr500/midi/fukui/"
 Entering Link 1 = /usr/local/Gaussian/G16C/g16/l1.exe PID=   2434676.
  
 Copyright (c) 1988-2019, Gaussian, Inc.  All Rights Reserved.
  
 This is part of the Gaussian(R) 16 program.  It is based on
 the Gaussian(R) 09 system (copyright 2009, Gaussian, Inc.),
 the Gaussian(R) 03 system (copyright 2003, Gaussian, Inc.),
 the Gaussian(R) 98 system (copyright 1998, Gaussian, Inc.),
 the Gaussian(R) 94 system (copyright 1995, Gaussian, Inc.),
 the Gaussian 92(TM) system (copyright 1992, Gaussian, Inc.),
 the Gaussian 90(TM) system (copyright 1990, Gaussian, Inc.),
 the Gaussian 88(TM) system (copyright 1988, Gaussian, Inc.),
 the Gaussian 86(TM) system (copyright 1986, Carnegie Mellon
 University), and the Gaussian 82(TM) system (copyright 1983,
 Carnegie Mellon University). Gaussian is a federally registered
 trademark of Gaussian, Inc.
  
 This software contains proprietary and confidential information,
 including trade secrets, belonging to Gaussian, Inc.
  
 This software is provided under written license and may be
 used, copied, transmitted, or stored only in accord with that
 written license.
  
 The following legend is applicable only to US Government
 contracts under FAR:
  
                    RESTRICTED RIGHTS LEGEND
  
 Use, reproduction and disclosure by the US Government is
 subject to restrictions as set forth in subparagraphs (a)
 and (c) of the Commercial Computer Software - Restricted
 Rights clause in FAR 52.227-19.
  
 Gaussian, Inc.
 340 Quinnipiac St., Bldg. 40, Wallingford CT 06492
  
  
 ---------------------------------------------------------------
 Warning -- This program may not be used in any manner that
 competes with the business of Gaussian, Inc. or will provide
 assistance to any competitor of Gaussian, Inc.  The licensee
 of this program is prohibited from giving any competitor of
 Gaussian, Inc. access to this program.  By using this program,
 the user acknowledges that Gaussian, Inc. is engaged in the
 business of creating and licensing software in the field of
 computational chemistry and represents and warrants to the
 licensee that it is not a competitor of Gaussian, Inc. and that
 it will not use this program in any manner prohibited above.
 ---------------------------------------------------------------
  

 Cite this work as:
 Gaussian 16, Revision C.01,
 M. J. Frisch, G. W. Trucks, H. B. Schlegel, G. E. Scuseria, 
 M. A. Robb, J. R. Cheeseman, G. Scalmani, V. Barone, 
 G. A. Petersson, H. Nakatsuji, X. Li, M. Caricato, A. V. Marenich, 
 J. Bloino, B. G. Janesko, R. Gomperts, B. Mennucci, H. P. Hratchian, 
 J. V. Ortiz, A. F. Izmaylov, J. L. Sonnenberg, D. Williams-Young, 
 F. Ding, F. Lipparini, F. Egidi, J. Goings, B. Peng, A. Petrone, 
 T. Henderson, D. Ranasinghe, V. G. Zakrzewski, J. Gao, N. Rega, 
 G. Zheng, W. Liang, M. Hada, M. Ehara, K. Toyota, R. Fukuda, 
 J. Hasegawa, M. Ishida, T. Nakajima, Y. Honda, O. Kitao, H. Nakai, 
 T. Vreven, K. Throssell, J. A. Montgomery, Jr., J. E. Peralta, 
 F. Ogliaro, M. J. Bearpark, J. J. Heyd, E. N. Brothers, K. N. Kudin, 
 V. N. Staroverov, T. A. Keith, R. Kobayashi, J. Normand, 
 K. Raghavachari, A. P. Rendell, J. C. Burant, S. S. Iyengar, 
 J. Tomasi, M. Cossi, J. M. Millam, M. Klene, C. Adamo, R. Cammi, 
 J. W. Ochterski, R. L. Martin, K. Morokuma, O. Farkas, 
 J. B. Foresman, and D. J. Fox, Gaussian, Inc., Wallingford CT, 2019.
 
 ******************************************
 Gaussian 16:  ES64L-G16RevC.01  3-Jul-2019
                30-Sep-2024 
 ******************************************
 %chk=arbr35_wb97xd_red.chk
 %mem=48GB
 %nprocshared=24
 Will use up to   24 processors via shared memory.
 -----------------------------------
 # pop=(nbo6,hirshfeld) wb97xd/midix
 -----------------------------------
 1/38=1,172=1/1;
 2/12=2,17=6,18=5,40=1/2;
 3/5=20,11=2,25=1,30=1,74=-58/1,2,3;
 4//1;
 5/5=2,38=5/2;
 6/7=2,8=2,9=2,10=2,28=1,40=1,79=1,113=1,114=1,124=3103,126=1/1,12;
 99/5=1,9=1/99;
 ----------------------------------------
 arbr35_wb97xd_redcreated by GaussianPrep
 ----------------------------------------
 Symbolic Z-matrix:
 Charge = -1 Multiplicity = 2
 Br                    5.9094   -0.30755  0. 
 C                     4.05286   0.08795  0. 
 C                     3.63851   1.41715   0. 
 C                     2.28042   1.72066   0. 
 C                     1.35618   0.68495   0. 
 C                     1.78628  -0.6495    0. 
 C                     3.13431  -0.95876   0. 
 C                     0.5926   -1.58668   0.00001 
 C                    -0.57521  -0.61706   0. 
 C                    -1.93094  -0.88998   0. 
 C                    -2.82997   0.1766    0. 
 I                    -4.90362  -0.20778  0. 
 C                    -2.37171   1.49368   0. 
 C                    -1.00614   1.76275   0. 
 C                    -0.1088    0.70447   0. 
 H                     4.37917   2.21063   0. 
 H                     1.95652   2.75863   0. 
 H                     3.47859  -1.98932   0. 
 H                     0.58396  -2.23626   0.8871 
 H                     0.58396  -2.23627  -0.88709 
 H                    -2.29064  -1.91567   0. 
 H                    -3.08216   2.31471   0. 
 H                    -0.65682   2.79252   0. 
 
                          Input orientation:                          
 ---------------------------------------------------------------------
 Center     Atomic      Atomic             Coordinates (Angstroms)
 Number     Number       Type             X           Y           Z
 ---------------------------------------------------------------------
      1         35           0        5.909399   -0.307550   -0.000002
      2          6           0        4.052858    0.087953   -0.000004
      3          6           0        3.638512    1.417152    0.000001
      4          6           0        2.280421    1.720656    0.000002
      5          6           0        1.356175    0.684952    0.000002
      6          6           0        1.786282   -0.649499    0.000003
      7          6           0        3.134311   -0.958761    0.000000
      8          6           0        0.592604   -1.586681    0.000005
      9          6           0       -0.575212   -0.617062    0.000003
     10          6           0       -1.930942   -0.889980    0.000002
     11          6           0       -2.829974    0.176601    0.000000
     12         53           0       -4.903621   -0.207775   -0.000002
     13          6           0       -2.371709    1.493678    0.000001
     14          6           0       -1.006136    1.762752    0.000002
     15          6           0       -0.108798    0.704467    0.000003
     16          1           0        4.379174    2.210631    0.000001
     17          1           0        1.956516    2.758625    0.000003
     18          1           0        3.478587   -1.989323    0.000000
     19          1           0        0.583958   -2.236262    0.887102
     20          1           0        0.583956   -2.236270   -0.887085
     21          1           0       -2.290637   -1.915668    0.000002
     22          1           0       -3.082159    2.314710    0.000000
     23          1           0       -0.656816    2.792520    0.000000
 ---------------------------------------------------------------------
                    Distance matrix (angstroms):
                    1          2          3          4          5
     1  Br   0.000000
     2  C    1.898201   0.000000
     3  C    2.851583   1.392283   0.000000
     4  C    4.157295   2.409824   1.391591   0.000000
     5  C    4.660140   2.761975   2.396910   1.388133   0.000000
     6  C    4.137272   2.383527   2.775212   2.421117   1.402053
     7  C    2.850472   1.392601   2.428823   2.812188   2.421479
     8  C    5.468499   3.844185   4.277916   3.713112   2.396530
     9  C    6.491993   4.681461   4.679049   3.690470   2.329269
    10  C    7.861945   6.063185   6.028406   4.954896   3.644935
    11  C    8.752773   6.883403   6.586371   5.338562   4.216902
    12  I   10.813480   8.961360   8.695310   7.438367   6.323133
    13  C    8.474737   6.576559   6.010708   4.657664   3.814598
    14  C    7.218779   5.329012   4.657488   3.286827   2.596568
    15  C    6.102694   4.207074   3.814479   2.596345   1.465103
    16  H    2.946663   2.147614   1.085444   2.155189   3.386181
    17  H    5.002671   3.395164   2.151432   1.087333   2.158826
    18  H    2.955877   2.155194   3.410227   3.898660   3.414144
    19  H    5.732993   4.268747   4.844036   4.395695   3.149088
    20  H    5.732994   4.268748   4.844040   4.395700   3.149092
    21  H    8.356233   6.652400   6.801654   5.841012   4.479114
    22  H    9.366128   7.474417   6.780341   5.395384   4.728099
    23  H    7.261240   5.430995   4.510153   3.126700   2.914443
                    6          7          8          9         10
     6  C    0.000000
     7  C    1.383049   0.000000
     8  C    1.517622   2.618121   0.000000
     9  C    2.361717   3.725227   1.517879   0.000000
    10  C    3.724995   5.065720   2.617953   1.382927   0.000000
    11  C    4.689591   6.071387   3.850091   2.390367   1.394939
    12  I    6.704470   8.072938   5.666557   4.347717   3.049955
    13  C    4.677830   6.027496   4.275016   2.771755   2.424067
    14  C    3.690061   4.954789   3.711424   2.418514   2.809315
    15  C    2.329067   3.644734   2.396106   1.401421   2.421254
    16  H    3.860496   3.405103   5.362620   5.704541   7.030743
    17  H    3.412373   3.899508   4.554332   4.219586   5.331477
    18  H    2.158477   1.086547   2.913935   4.279765   5.520105
    19  H    2.179528   2.987182   1.099532   2.180007   2.987331
    20  H    2.179531   2.987183   1.099531   2.180007   2.987329
    21  H    4.269011   5.508696   2.901950   2.151525   1.086930
    22  H    5.699847   7.025675   5.359546   3.857469   3.405193
    23  H    4.220927   5.333362   4.553949   3.410558   3.896691
                   11         12         13         14         15
    11  C    0.000000
    12  I    2.108971   0.000000
    13  C    1.394525   3.050495   0.000000
    14  C    2.417077   4.367306   1.391830   0.000000
    15  C    2.771902   4.880831   2.396585   1.387510   0.000000
    16  H    7.490600   9.592652   6.788847   5.403902   4.733965
    17  H    5.438505   7.474022   4.509282   3.125551   2.912917
    18  H    6.670020   8.569441   6.808617   5.847291   4.486183
    19  H    4.273616   5.917367   4.841009   4.394025   3.148768
    20  H    4.273615   5.917365   4.841011   4.394029   3.148772
    21  H    2.160665   3.121632   3.410310   3.896244   3.409623
    22  H    2.152930   3.111375   1.085741   2.148146   3.381384
    23  H    3.400830   5.199723   2.151243   1.087404   2.158770
                   16         17         18         19         20
    16  H    0.000000
    17  H    2.483862   0.000000
    18  H    4.295424   4.985951   0.000000
    19  H    5.913161   5.255450   3.037566   0.000000
    20  H    5.913166   5.255456   3.037563   1.774187   0.000000
    21  H    7.843005   6.315641   5.769694   3.025396   3.025392
    22  H    7.462059   5.058192   7.846534   5.910898   5.910900
    23  H    5.069496   2.613552   6.321992   5.255009   5.255013
                   21         22         23
    21  H    0.000000
    22  H    4.303790   0.000000
    23  H    4.983614   2.471961   0.000000
 Stoichiometry    C13H8BrI(1-,2)
 Framework group  C1[X(C13H8BrI)]
 Deg. of freedom    63
 Full point group                 C1      NOp   1
 Largest Abelian subgroup         C1      NOp   1
 Largest concise Abelian subgroup C1      NOp   1
                         Standard orientation:                         
 ---------------------------------------------------------------------
 Center     Atomic      Atomic             Coordinates (Angstroms)
 Number     Number       Type             X           Y           Z
 ---------------------------------------------------------------------
      1         35           0        5.909399   -0.307550   -0.000002
      2          6           0        4.052858    0.087953   -0.000004
      3          6           0        3.638512    1.417152    0.000001
      4          6           0        2.280421    1.720656    0.000002
      5          6           0        1.356175    0.684952    0.000002
      6          6           0        1.786282   -0.649499    0.000003
      7          6           0        3.134311   -0.958761    0.000000
      8          6           0        0.592604   -1.586681    0.000005
      9          6           0       -0.575212   -0.617062    0.000003
     10          6           0       -1.930942   -0.889980    0.000002
     11          6           0       -2.829974    0.176601    0.000000
     12         53           0       -4.903621   -0.207775   -0.000002
     13          6           0       -2.371709    1.493678    0.000001
     14          6           0       -1.006136    1.762752    0.000002
     15          6           0       -0.108798    0.704467    0.000003
     16          1           0        4.379174    2.210631    0.000001
     17          1           0        1.956516    2.758625    0.000003
     18          1           0        3.478587   -1.989323    0.000000
     19          1           0        0.583958   -2.236262    0.887102
     20          1           0        0.583956   -2.236270   -0.887085
     21          1           0       -2.290637   -1.915668    0.000002
     22          1           0       -3.082159    2.314710    0.000000
     23          1           0       -0.656816    2.792520    0.000000
 ---------------------------------------------------------------------
 Rotational constants (GHZ):           1.9892233           0.0756827           0.0729422
 Standard basis: MIDIx (5D, 7F)
 There are   201 symmetry adapted cartesian basis functions of A   symmetry.
 There are   196 symmetry adapted basis functions of A   symmetry.
   196 basis functions,   375 primitive gaussians,   201 cartesian basis functions
    88 alpha electrons       87 beta electrons
       nuclear repulsion energy      1623.7147976735 Hartrees.
 NAtoms=   23 NActive=   23 NUniq=   23 SFac= 1.00D+00 NAtFMM=   60 NAOKFM=F Big=F
 Integral buffers will be    131072 words long.
 Raffenetti 2 integral format.
 Two-electron integral symmetry is turned on.
 Nuclear repulsion after empirical dispersion term =     1623.6989044154 Hartrees.
 One-electron integrals computed using PRISM.
 NBasis=   196 RedAO= T EigKep=  1.02D-03  NBF=   196
 NBsUse=   196 1.00D-06 EigRej= -1.00D+00 NBFU=   196
 Defaulting to unpruned grid for atomic number  53.
 ExpMin= 1.15D-01 ExpMax= 1.44D+04 ExpMxC= 1.44D+04 IAcc=3 IRadAn=         5 AccDes= 0.00D+00
 Harris functional with IExCor= 4639 and IRadAn=       5 diagonalized for initial guess.
 HarFok:  IExCor= 4639 AccDes= 0.00D+00 IRadAn=         5 IDoV= 1 UseB2=F ITyADJ=14
 ICtDFT=  3500011 ScaDFX=  1.000000  1.000000  1.000000  1.000000
 Defaulting to unpruned grid for atomic number  53.
 FoFCou: FMM=F IPFlag=           0 FMFlag=      100000 FMFlg1=           0
         NFxFlg=           0 DoJE=T BraDBF=F KetDBF=T FulRan=T
         wScrn=  0.000000 ICntrl=       500 IOpCl=  0 I1Cent=   200000004 NGrid=           0
         NMat0=    1 NMatS0=      1 NMatT0=    0 NMatD0=    1 NMtDS0=    0 NMtDT0=    0
 Petite list used in FoFCou.
 Initial guess <Sx>= 0.0000 <Sy>= 0.0000 <Sz>= 0.5000 <S**2>= 0.7500 S= 0.5000
 Requested convergence on RMS density matrix=1.00D-08 within 128 cycles.
 Requested convergence on MAX density matrix=1.00D-06.
 Requested convergence on             energy=1.00D-06.
 No special actions if energy rises.
 Integral accuracy reduced to 1.0D-05 until final iterations.
 Defaulting to unpruned grid for atomic number  53.
 Defaulting to unpruned grid for atomic number  53.
 Defaulting to unpruned grid for atomic number  53.
 Defaulting to unpruned grid for atomic number  53.
 Defaulting to unpruned grid for atomic number  53.
 Defaulting to unpruned grid for atomic number  53.
 Defaulting to unpruned grid for atomic number  53.
 Defaulting to unpruned grid for atomic number  53.
 Defaulting to unpruned grid for atomic number  53.
 Defaulting to unpruned grid for atomic number  53.
 Defaulting to unpruned grid for atomic number  53.
 Defaulting to unpruned grid for atomic number  53.
 Defaulting to unpruned grid for atomic number  53.
 Defaulting to unpruned grid for atomic number  53.
 Defaulting to unpruned grid for atomic number  53.
 Defaulting to unpruned grid for atomic number  53.
 Defaulting to unpruned grid for atomic number  53.
 Defaulting to unpruned grid for atomic number  53.
 Defaulting to unpruned grid for atomic number  53.
 Defaulting to unpruned grid for atomic number  53.
 Defaulting to unpruned grid for atomic number  53.
 Defaulting to unpruned grid for atomic number  53.
 Defaulting to unpruned grid for atomic number  53.
 Defaulting to unpruned grid for atomic number  53.
 Rare condition: small coef for last iteration:  0.000D+00
 Rare condition: small coef for last iteration:  0.000D+00
 Problem detected with inexpensive integrals.
 Switching to full accuracy and repeating last cycle.
 Rare condition: small coef for last iteration:  0.000D+00
 Rare condition: small coef for last iteration:  0.000D+00
 Rare condition: small coef for last iteration:  0.000D+00
 Rare condition: small coef for last iteration:  0.000D+00
 Restarting incremental Fock formation.
 SCF Done:  E(UwB97XD) =  -9949.39293985     A.U. after   47 cycles
            NFock= 47  Conv=0.82D-08     -V/T= 1.9997
 <Sx>= 0.0000 <Sy>= 0.0000 <Sz>= 0.5000 <S**2>= 0.7550 S= 0.5025
 <L.S>= 0.000000000000E+00
 Annihilation of the first spin contaminant:
 S**2 before annihilation     0.7550,   after     0.7500

 **********************************************************************

            Population analysis using the SCF Density.

 **********************************************************************

 Orbital symmetries:
 Alpha Orbitals:
       Occupied  (A) (A) (A) (A) (A) (A) (A) (A) (A) (A) (A) (A)
                 (A) (A) (A) (A) (A) (A) (A) (A) (A) (A) (A) (A)
                 (A) (A) (A) (A) (A) (A) (A) (A) (A) (A) (A) (A)
                 (A) (A) (A) (A) (A) (A) (A) (A) (A) (A) (A) (A)
                 (A) (A) (A) (A) (A) (A) (A) (A) (A) (A) (A) (A)
                 (A) (A) (A) (A) (A) (A) (A) (A) (A) (A) (A) (A)
                 (A) (A) (A) (A) (A) (A) (A) (A) (A) (A) (A) (A)
                 (A) (A) (A) (A)
       Virtual   (A) (A) (A) (A) (A) (A) (A) (A) (A) (A) (A) (A)
                 (A) (A) (A) (A) (A) (A) (A) (A) (A) (A) (A) (A)
                 (A) (A) (A) (A) (A) (A) (A) (A) (A) (A) (A) (A)
                 (A) (A) (A) (A) (A) (A) (A) (A) (A) (A) (A) (A)
                 (A) (A) (A) (A) (A) (A) (A) (A) (A) (A) (A) (A)
                 (A) (A) (A) (A) (A) (A) (A) (A) (A) (A) (A) (A)
                 (A) (A) (A) (A) (A) (A) (A) (A) (A) (A) (A) (A)
                 (A) (A) (A) (A) (A) (A) (A) (A) (A) (A) (A) (A)
                 (A) (A) (A) (A) (A) (A) (A) (A) (A) (A) (A) (A)
 Beta  Orbitals:
       Occupied  (A) (A) (A) (A) (A) (A) (A) (A) (A) (A) (A) (A)
                 (A) (A) (A) (A) (A) (A) (A) (A) (A) (A) (A) (A)
                 (A) (A) (A) (A) (A) (A) (A) (A) (A) (A) (A) (A)
                 (A) (A) (A) (A) (A) (A) (A) (A) (A) (A) (A) (A)
                 (A) (A) (A) (A) (A) (A) (A) (A) (A) (A) (A) (A)
                 (A) (A) (A) (A) (A) (A) (A) (A) (A) (A) (A) (A)
                 (A) (A) (A) (A) (A) (A) (A) (A) (A) (A) (A) (A)
                 (A) (A) (A)
       Virtual   (A) (A) (A) (A) (A) (A) (A) (A) (A) (A) (A) (A)
                 (A) (A) (A) (A) (A) (A) (A) (A) (A) (A) (A) (A)
                 (A) (A) (A) (A) (A) (A) (A) (A) (A) (A) (A) (A)
                 (A) (A) (A) (A) (A) (A) (A) (A) (A) (A) (A) (A)
                 (A) (A) (A) (A) (A) (A) (A) (A) (A) (A) (A) (A)
                 (A) (A) (A) (A) (A) (A) (A) (A) (A) (A) (A) (A)
                 (A) (A) (A) (A) (A) (A) (A) (A) (A) (A) (A) (A)
                 (A) (A) (A) (A) (A) (A) (A) (A) (A) (A) (A) (A)
                 (A) (A) (A) (A) (A) (A) (A) (A) (A) (A) (A) (A)
                 (A)
 The electronic state is 2-A.
 Alpha  occ. eigenvalues -- **********-480.06705-175.67584-164.41635-164.41451
 Alpha  occ. eigenvalues -- -164.41449 -62.50104 -56.08988 -56.08585 -56.08566
 Alpha  occ. eigenvalues --  -35.70125 -30.85948 -30.85639 -30.85600 -22.80010
 Alpha  occ. eigenvalues --  -22.79799 -22.79793 -22.79543 -22.79539 -10.20196
 Alpha  occ. eigenvalues --  -10.15934 -10.15905 -10.15397 -10.15120 -10.15096
 Alpha  occ. eigenvalues --  -10.14287 -10.11716 -10.11378 -10.10909 -10.08910
 Alpha  occ. eigenvalues --  -10.08747 -10.06518  -8.80947  -6.59387  -6.58021
 Alpha  occ. eigenvalues --   -6.58017  -6.25894  -4.55717  -4.54864  -4.54770
 Alpha  occ. eigenvalues --   -2.69704  -2.69231  -2.69199  -2.68086  -2.68081
 Alpha  occ. eigenvalues --   -1.92272  -1.91938  -1.91877  -1.91145  -1.91144
 Alpha  occ. eigenvalues --   -0.90908  -0.86302  -0.81651  -0.79505  -0.76178
 Alpha  occ. eigenvalues --   -0.73730  -0.69804  -0.68206  -0.62995  -0.58699
 Alpha  occ. eigenvalues --   -0.57010  -0.55989  -0.51569  -0.50409  -0.47535
 Alpha  occ. eigenvalues --   -0.45287  -0.43828  -0.43731  -0.42431  -0.40047
 Alpha  occ. eigenvalues --   -0.39026  -0.38140  -0.37198  -0.36448  -0.34179
 Alpha  occ. eigenvalues --   -0.33211  -0.32508  -0.30347  -0.28684  -0.28421
 Alpha  occ. eigenvalues --   -0.24590  -0.24345  -0.24269  -0.19264  -0.18315
 Alpha  occ. eigenvalues --   -0.13287  -0.11749   0.03979
 Alpha virt. eigenvalues --    0.14047   0.15439   0.17299   0.20850   0.23438
 Alpha virt. eigenvalues --    0.28534   0.29611   0.31035   0.31490   0.32386
 Alpha virt. eigenvalues --    0.34946   0.36966   0.38127   0.39867   0.41334
 Alpha virt. eigenvalues --    0.41742   0.44632   0.45558   0.47486   0.48169
 Alpha virt. eigenvalues --    0.51361   0.52278   0.56816   0.57272   0.59225
 Alpha virt. eigenvalues --    0.60327   0.63119   0.63402   0.65117   0.65751
 Alpha virt. eigenvalues --    0.67611   0.67917   0.68126   0.68240   0.70629
 Alpha virt. eigenvalues --    0.71053   0.72039   0.72342   0.72627   0.73536
 Alpha virt. eigenvalues --    0.75071   0.75697   0.77054   0.78547   0.79669
 Alpha virt. eigenvalues --    0.80760   0.82921   0.84389   0.85615   0.86484
 Alpha virt. eigenvalues --    0.86978   0.88270   0.88866   0.90160   0.91016
 Alpha virt. eigenvalues --    0.94987   0.95762   0.98869   0.99465   1.02448
 Alpha virt. eigenvalues --    1.03061   1.03603   1.03991   1.05912   1.06760
 Alpha virt. eigenvalues --    1.07175   1.07739   1.08567   1.08997   1.09814
 Alpha virt. eigenvalues --    1.10438   1.10740   1.11572   1.12981   1.13566
 Alpha virt. eigenvalues --    1.14481   1.15576   1.16641   1.17204   1.19220
 Alpha virt. eigenvalues --    1.19613   1.20077   1.22178   1.23262   1.24227
 Alpha virt. eigenvalues --    1.27448   1.28032   1.29931   1.30246   1.32074
 Alpha virt. eigenvalues --    1.34714   1.37333   1.38001   1.44356   1.51779
 Alpha virt. eigenvalues --    1.53937   1.58694   1.67814   1.69814   1.71554
 Alpha virt. eigenvalues --    1.76401   1.78547   1.81745   1.92180   1.94112
 Alpha virt. eigenvalues --    1.98002   2.08609   2.14423
  Beta  occ. eigenvalues -- **********-480.06705-175.67529-164.41502-164.41420
  Beta  occ. eigenvalues -- -164.41418 -62.50104 -56.08988 -56.08585 -56.08566
  Beta  occ. eigenvalues --  -35.70059 -30.85814 -30.85583 -30.85543 -22.79893
  Beta  occ. eigenvalues --  -22.79738 -22.79732 -22.79499 -22.79495 -10.20203
  Beta  occ. eigenvalues --  -10.15930 -10.15901 -10.15403 -10.15126 -10.15090
  Beta  occ. eigenvalues --  -10.14274 -10.11680 -10.11402 -10.10871 -10.08951
  Beta  occ. eigenvalues --  -10.08785 -10.05611  -8.80947  -6.59386  -6.58021
  Beta  occ. eigenvalues --   -6.58017  -6.25729  -4.55459  -4.54771  -4.54674
  Beta  occ. eigenvalues --   -2.69704  -2.69231  -2.69199  -2.68086  -2.68082
  Beta  occ. eigenvalues --   -1.92040  -1.91805  -1.91746  -1.91073  -1.91071
  Beta  occ. eigenvalues --   -0.90907  -0.86253  -0.81501  -0.79426  -0.76018
  Beta  occ. eigenvalues --   -0.73661  -0.69383  -0.68149  -0.62796  -0.58530
  Beta  occ. eigenvalues --   -0.56606  -0.55636  -0.50692  -0.50164  -0.47375
  Beta  occ. eigenvalues --   -0.45244  -0.43818  -0.43553  -0.42359  -0.39751
  Beta  occ. eigenvalues --   -0.38767  -0.38150  -0.37063  -0.36005  -0.34152
  Beta  occ. eigenvalues --   -0.33155  -0.32270  -0.30258  -0.28523  -0.28241
  Beta  occ. eigenvalues --   -0.24504  -0.24191  -0.20758  -0.19326  -0.17808
  Beta  occ. eigenvalues --   -0.12192  -0.10929
  Beta virt. eigenvalues --    0.14249   0.15422   0.17291   0.20789   0.23835
  Beta virt. eigenvalues --    0.26098   0.28579   0.29635   0.31376   0.31717
  Beta virt. eigenvalues --    0.32504   0.35306   0.37283   0.38121   0.39978
  Beta virt. eigenvalues --    0.41576   0.41936   0.44703   0.45553   0.47501
  Beta virt. eigenvalues --    0.48218   0.51500   0.52540   0.57016   0.57465
  Beta virt. eigenvalues --    0.59267   0.60523   0.63275   0.63463   0.65205
  Beta virt. eigenvalues --    0.65832   0.67815   0.68174   0.68472   0.68592
  Beta virt. eigenvalues --    0.70746   0.71102   0.72037   0.72335   0.72752
  Beta virt. eigenvalues --    0.73569   0.75113   0.75780   0.77115   0.78860
  Beta virt. eigenvalues --    0.79663   0.80902   0.83420   0.84689   0.87455
  Beta virt. eigenvalues --    0.87485   0.87596   0.88450   0.89345   0.90173
  Beta virt. eigenvalues --    0.91167   0.94990   0.96057   0.98907   1.00345
  Beta virt. eigenvalues --    1.02734   1.03082   1.03989   1.04009   1.05964
  Beta virt. eigenvalues --    1.07138   1.07522   1.07691   1.08937   1.09079
  Beta virt. eigenvalues --    1.09963   1.10591   1.11459   1.11671   1.13259
  Beta virt. eigenvalues --    1.13675   1.14476   1.15714   1.16640   1.17256
  Beta virt. eigenvalues --    1.19669   1.19765   1.20230   1.22429   1.23287
  Beta virt. eigenvalues --    1.24565   1.27565   1.28536   1.30014   1.30375
  Beta virt. eigenvalues --    1.32231   1.34749   1.37400   1.38103   1.44487
  Beta virt. eigenvalues --    1.51993   1.54071   1.58878   1.67890   1.69863
  Beta virt. eigenvalues --    1.71604   1.76566   1.78802   1.81872   1.92244
  Beta virt. eigenvalues --    1.94182   1.98370   2.08686   2.14515
          Condensed to atoms (all electrons):
               1          2          3          4          5          6
     1  Br  34.998638   0.202688  -0.039457   0.001766   0.000372   0.002280
     2  C    0.202688   5.066709   0.479014  -0.034276  -0.046374  -0.022994
     3  C   -0.039457   0.479014   4.967305   0.500518  -0.034309  -0.040652
     4  C    0.001766  -0.034276   0.500518   4.867858   0.471647  -0.015629
     5  C    0.000372  -0.046374  -0.034309   0.471647   4.981049   0.462663
     6  C    0.002280  -0.022994  -0.040652  -0.015629   0.462663   5.099626
     7  C   -0.040332   0.482547  -0.037189  -0.023710  -0.024660   0.483923
     8  C   -0.000022   0.000117   0.000808   0.000448  -0.047530   0.306070
     9  C    0.000001  -0.000110  -0.000113   0.001065  -0.044939  -0.083790
    10  C   -0.000000  -0.000000   0.000000   0.000027   0.000951   0.001078
    11  C   -0.000000   0.000000  -0.000000  -0.000000   0.001015  -0.000074
    12  I    0.000000  -0.000000   0.000000  -0.000000   0.000029  -0.000004
    13  C    0.000000  -0.000000  -0.000001   0.000106   0.000502  -0.000125
    14  C   -0.000000   0.000001   0.000114  -0.002146   0.007452   0.000737
    15  C    0.000000   0.000972   0.000339   0.004250   0.342752  -0.044554
    16  H    0.000322  -0.024995   0.396327  -0.019466   0.003168   0.000128
    17  H   -0.000057   0.002854  -0.024301   0.396400  -0.018908   0.002944
    18  H    0.000289  -0.022262   0.002362   0.000047   0.002717  -0.015685
    19  H   -0.000000   0.000056  -0.000007  -0.000025   0.000741  -0.025690
    20  H   -0.000000   0.000056  -0.000007  -0.000025   0.000741  -0.025690
    21  H    0.000000  -0.000000   0.000000   0.000000  -0.000092   0.000043
    22  H    0.000000  -0.000000   0.000000  -0.000001  -0.000010  -0.000001
    23  H    0.000000  -0.000001   0.000003   0.000969  -0.006772   0.000078
               7          8          9         10         11         12
     1  Br  -0.040332  -0.000022   0.000001  -0.000000  -0.000000   0.000000
     2  C    0.482547   0.000117  -0.000110  -0.000000   0.000000  -0.000000
     3  C   -0.037189   0.000808  -0.000113   0.000000  -0.000000   0.000000
     4  C   -0.023710   0.000448   0.001065   0.000027  -0.000000  -0.000000
     5  C   -0.024660  -0.047530  -0.044939   0.000951   0.001015   0.000029
     6  C    0.483923   0.306070  -0.083790   0.001078  -0.000074  -0.000004
     7  C    4.887498   0.005290   0.001647   0.000022  -0.000001   0.000000
     8  C    0.005290   5.049746   0.321344   0.005110  -0.000368   0.000415
     9  C    0.001647   0.321344   5.123365   0.448194  -0.017239  -0.002558
    10  C    0.000022   0.005110   0.448194   4.950945   0.472978  -0.020732
    11  C   -0.000001  -0.000368  -0.017239   0.472978   6.441599  -0.950282
    12  I    0.000000   0.000415  -0.002558  -0.020732  -0.950282  54.364258
    13  C    0.000001   0.001262  -0.039536  -0.041926   0.467274  -0.019173
    14  C    0.000015  -0.000163  -0.019113  -0.027542  -0.031666  -0.004229
    15  C    0.001299  -0.069342   0.478777  -0.028235  -0.042143  -0.001393
    16  H    0.002624   0.000004   0.000001   0.000000  -0.000000  -0.000000
    17  H   -0.000066  -0.000072   0.000128   0.000003  -0.000001   0.000000
    18  H    0.390149  -0.004615   0.000099   0.000001  -0.000000  -0.000000
    19  H   -0.003892   0.383791  -0.026646  -0.003189   0.000059  -0.000012
    20  H   -0.003892   0.383791  -0.026646  -0.003189   0.000059  -0.000012
    21  H    0.000002  -0.001895  -0.045719   0.385868  -0.071451   0.047556
    22  H    0.000000   0.000025  -0.000189   0.005427  -0.074715   0.047428
    23  H    0.000003  -0.000012   0.003083   0.000295   0.002253   0.000610
              13         14         15         16         17         18
     1  Br   0.000000  -0.000000   0.000000   0.000322  -0.000057   0.000289
     2  C   -0.000000   0.000001   0.000972  -0.024995   0.002854  -0.022262
     3  C   -0.000001   0.000114   0.000339   0.396327  -0.024301   0.002362
     4  C    0.000106  -0.002146   0.004250  -0.019466   0.396400   0.000047
     5  C    0.000502   0.007452   0.342752   0.003168  -0.018908   0.002717
     6  C   -0.000125   0.000737  -0.044554   0.000128   0.002944  -0.015685
     7  C    0.000001   0.000015   0.001299   0.002624  -0.000066   0.390149
     8  C    0.001262  -0.000163  -0.069342   0.000004  -0.000072  -0.004615
     9  C   -0.039536  -0.019113   0.478777   0.000001   0.000128   0.000099
    10  C   -0.041926  -0.027542  -0.028235   0.000000   0.000003   0.000001
    11  C    0.467274  -0.031666  -0.042143  -0.000000  -0.000001  -0.000000
    12  I   -0.019173  -0.004229  -0.001393  -0.000000   0.000000  -0.000000
    13  C    4.997569   0.491443  -0.040388   0.000000  -0.000016  -0.000000
    14  C    0.491443   4.929816   0.464283  -0.000000   0.001740  -0.000000
    15  C   -0.040388   0.464283   5.034507  -0.000023  -0.006533  -0.000111
    16  H    0.000000  -0.000000  -0.000023   0.460721  -0.004088  -0.000066
    17  H   -0.000016   0.001740  -0.006533  -0.004088   0.461439   0.000007
    18  H   -0.000000  -0.000000  -0.000111  -0.000066   0.000007   0.458615
    19  H   -0.000006  -0.000006   0.001605  -0.000000   0.000003   0.000828
    20  H   -0.000006  -0.000006   0.001605  -0.000000   0.000003   0.000828
    21  H    0.005350  -0.000376   0.001679   0.000000   0.000000   0.000000
    22  H    0.389632  -0.046669   0.002495   0.000000   0.000005   0.000000
    23  H   -0.023115   0.382778  -0.031082   0.000001   0.003040   0.000000
              19         20         21         22         23
     1  Br  -0.000000  -0.000000   0.000000   0.000000   0.000000
     2  C    0.000056   0.000056  -0.000000  -0.000000  -0.000001
     3  C   -0.000007  -0.000007   0.000000   0.000000   0.000003
     4  C   -0.000025  -0.000025   0.000000  -0.000001   0.000969
     5  C    0.000741   0.000741  -0.000092  -0.000010  -0.006772
     6  C   -0.025690  -0.025690   0.000043  -0.000001   0.000078
     7  C   -0.003892  -0.003892   0.000002   0.000000   0.000003
     8  C    0.383791   0.383791  -0.001895   0.000025  -0.000012
     9  C   -0.026646  -0.026646  -0.045719  -0.000189   0.003083
    10  C   -0.003189  -0.003189   0.385868   0.005427   0.000295
    11  C    0.000059   0.000059  -0.071451  -0.074715   0.002253
    12  I   -0.000012  -0.000012   0.047556   0.047428   0.000610
    13  C   -0.000006  -0.000006   0.005350   0.389632  -0.023115
    14  C   -0.000006  -0.000006  -0.000376  -0.046669   0.382778
    15  C    0.001605   0.001605   0.001679   0.002495  -0.031082
    16  H   -0.000000  -0.000000   0.000000   0.000000   0.000001
    17  H    0.000003   0.000003   0.000000   0.000005   0.003040
    18  H    0.000828   0.000828   0.000000   0.000000   0.000000
    19  H    0.491191  -0.025571   0.000818  -0.000000   0.000002
    20  H   -0.025571   0.491191   0.000818  -0.000000   0.000002
    21  H    0.000818   0.000818   0.531786   0.000169   0.000036
    22  H   -0.000000  -0.000000   0.000169   0.526819   0.000290
    23  H    0.000002   0.000002   0.000036   0.000290   0.525876
          Atomic-Atomic Spin Densities.
               1          2          3          4          5          6
     1  Br   0.000586  -0.000246  -0.000048  -0.000012  -0.000009   0.000004
     2  C   -0.000246  -0.006828   0.000005   0.000326   0.000017   0.000279
     3  C   -0.000048   0.000005   0.004603  -0.000436  -0.000244   0.000037
     4  C   -0.000012   0.000326  -0.000436  -0.006576   0.000331  -0.000194
     5  C   -0.000009   0.000017  -0.000244   0.000331   0.009700   0.000019
     6  C    0.000004   0.000279   0.000037  -0.000194   0.000019  -0.004929
     7  C    0.000079   0.000084   0.000070  -0.000011  -0.000320  -0.000716
     8  C    0.000001  -0.000032   0.000016   0.000058   0.000996  -0.003354
     9  C   -0.000000   0.000003  -0.000000   0.000014   0.000300   0.000938
    10  C    0.000000  -0.000000   0.000000   0.000000   0.000167  -0.000019
    11  C   -0.000000   0.000000  -0.000000  -0.000000   0.000056   0.000006
    12  I    0.000000  -0.000000   0.000000  -0.000000   0.000026  -0.000007
    13  C    0.000000  -0.000000   0.000000  -0.000001   0.000204  -0.000021
    14  C   -0.000000   0.000000   0.000001  -0.000016   0.000302  -0.000015
    15  C   -0.000000   0.000004  -0.000054   0.000305  -0.004830   0.002008
    16  H   -0.000002   0.000010  -0.000040   0.000004   0.000001  -0.000000
    17  H    0.000002  -0.000006   0.000196  -0.000527   0.000084   0.000007
    18  H   -0.000006   0.000013  -0.000000  -0.000001   0.000003   0.000017
    19  H   -0.000000   0.000002  -0.000000  -0.000001  -0.000007   0.000257
    20  H   -0.000000   0.000002  -0.000000  -0.000001  -0.000007   0.000257
    21  H    0.000000  -0.000000   0.000000   0.000000   0.000042  -0.000099
    22  H    0.000000  -0.000000   0.000000  -0.000001   0.000031  -0.000001
    23  H    0.000000  -0.000000   0.000014  -0.000181   0.000760  -0.000017
               7          8          9         10         11         12
     1  Br   0.000079   0.000001  -0.000000   0.000000  -0.000000   0.000000
     2  C    0.000084  -0.000032   0.000003  -0.000000   0.000000  -0.000000
     3  C    0.000070   0.000016  -0.000000   0.000000  -0.000000   0.000000
     4  C   -0.000011   0.000058   0.000014   0.000000  -0.000000  -0.000000
     5  C   -0.000320   0.000996   0.000300   0.000167   0.000056   0.000026
     6  C   -0.000716  -0.003354   0.000938  -0.000019   0.000006  -0.000007
     7  C    0.004275   0.000217  -0.000027   0.000001  -0.000000   0.000000
     8  C    0.000217   0.030268  -0.018373  -0.001323  -0.000471   0.000502
     9  C   -0.000027  -0.018373   0.052011   0.002643   0.007750  -0.007134
    10  C    0.000001  -0.001323   0.002643  -0.041120  -0.038287   0.030503
    11  C   -0.000000  -0.000471   0.007750  -0.038287   1.803002  -1.241804
    12  I    0.000000   0.000502  -0.007134   0.030503  -1.241804   1.714900
    13  C    0.000000   0.000398  -0.003008   0.013950  -0.038502   0.030721
    14  C   -0.000000  -0.000096   0.000835  -0.003678   0.008006  -0.008252
    15  C   -0.000083  -0.006991   0.005153  -0.002433  -0.001442  -0.001939
    16  H   -0.000001   0.000000   0.000000   0.000000   0.000000  -0.000000
    17  H    0.000011   0.000014   0.000003   0.000001  -0.000002   0.000000
    18  H   -0.000037  -0.000003   0.000001   0.000000   0.000000  -0.000000
    19  H   -0.000025  -0.000742   0.000335   0.000072   0.000019  -0.000012
    20  H   -0.000025  -0.000742   0.000335   0.000072   0.000019  -0.000012
    21  H    0.000001   0.004332  -0.014817  -0.010128  -0.052525   0.045518
    22  H    0.000000   0.000018  -0.000232   0.001752  -0.052138   0.045363
    23  H    0.000001   0.000095  -0.000005   0.000402  -0.000840   0.000759
              13         14         15         16         17         18
     1  Br   0.000000  -0.000000  -0.000000  -0.000002   0.000002  -0.000006
     2  C   -0.000000   0.000000   0.000004   0.000010  -0.000006   0.000013
     3  C    0.000000   0.000001  -0.000054  -0.000040   0.000196  -0.000000
     4  C   -0.000001  -0.000016   0.000305   0.000004  -0.000527  -0.000001
     5  C    0.000204   0.000302  -0.004830   0.000001   0.000084   0.000003
     6  C   -0.000021  -0.000015   0.002008  -0.000000   0.000007   0.000017
     7  C    0.000000  -0.000000  -0.000083  -0.000001   0.000011  -0.000037
     8  C    0.000398  -0.000096  -0.006991   0.000000   0.000014  -0.000003
     9  C   -0.003008   0.000835   0.005153   0.000000   0.000003   0.000001
    10  C    0.013950  -0.003678  -0.002433   0.000000   0.000001   0.000000
    11  C   -0.038502   0.008006  -0.001442   0.000000  -0.000002   0.000000
    12  I    0.030721  -0.008252  -0.001939  -0.000000   0.000000  -0.000000
    13  C   -0.035577  -0.001380  -0.002585  -0.000000   0.000005  -0.000000
    14  C   -0.001380   0.052160   0.005585  -0.000000  -0.000016   0.000000
    15  C   -0.002585   0.005585  -0.012032   0.000000  -0.000213   0.000001
    16  H   -0.000000  -0.000000   0.000000  -0.000147   0.000001   0.000000
    17  H    0.000005  -0.000016  -0.000213   0.000001   0.000509  -0.000000
    18  H   -0.000000   0.000000   0.000001   0.000000  -0.000000  -0.000122
    19  H   -0.000004   0.000002   0.000087  -0.000000  -0.000000   0.000001
    20  H   -0.000004   0.000002   0.000087  -0.000000  -0.000000   0.000001
    21  H    0.001840  -0.000351  -0.001177   0.000000   0.000000  -0.000000
    22  H   -0.009291  -0.015204  -0.001044  -0.000000   0.000004  -0.000000
    23  H   -0.000841  -0.013734  -0.003821  -0.000000   0.000411  -0.000000
              19         20         21         22         23
     1  Br  -0.000000  -0.000000   0.000000   0.000000   0.000000
     2  C    0.000002   0.000002  -0.000000  -0.000000  -0.000000
     3  C   -0.000000  -0.000000   0.000000   0.000000   0.000014
     4  C   -0.000001  -0.000001   0.000000  -0.000001  -0.000181
     5  C   -0.000007  -0.000007   0.000042   0.000031   0.000760
     6  C    0.000257   0.000257  -0.000099  -0.000001  -0.000017
     7  C   -0.000025  -0.000025   0.000001   0.000000   0.000001
     8  C   -0.000742  -0.000742   0.004332   0.000018   0.000095
     9  C    0.000335   0.000335  -0.014817  -0.000232  -0.000005
    10  C    0.000072   0.000072  -0.010128   0.001752   0.000402
    11  C    0.000019   0.000019  -0.052525  -0.052138  -0.000840
    12  I   -0.000012  -0.000012   0.045518   0.045363   0.000759
    13  C   -0.000004  -0.000004   0.001840  -0.009291  -0.000841
    14  C    0.000002   0.000002  -0.000351  -0.015204  -0.013734
    15  C    0.000087   0.000087  -0.001177  -0.001044  -0.003821
    16  H   -0.000000  -0.000000   0.000000  -0.000000  -0.000000
    17  H   -0.000000  -0.000000   0.000000   0.000004   0.000411
    18  H    0.000001   0.000001  -0.000000  -0.000000  -0.000000
    19  H    0.000248  -0.000069  -0.000176  -0.000000  -0.000001
    20  H   -0.000069   0.000248  -0.000176  -0.000000  -0.000001
    21  H   -0.000176  -0.000176   0.055333   0.000242   0.000026
    22  H   -0.000000  -0.000000   0.000242   0.053286   0.004585
    23  H   -0.000001  -0.000001   0.000026   0.004585   0.019514
 Mulliken charges and spin densities:
               1          2
     1  Br  -0.126488   0.000347
     2  C   -0.084002  -0.006369
     3  C   -0.170752   0.004119
     4  C   -0.149823  -0.006920
     5  C   -0.052203   0.007624
     6  C   -0.084683  -0.005542
     7  C   -0.121275   0.003495
     8  C   -0.334203   0.004790
     9  C   -0.071107   0.026722
    10  C   -0.146085  -0.047423
    11  C   -0.197295   0.392848
    12  I   -0.461900   0.609133
    13  C   -0.188847  -0.044098
    14  C   -0.146463   0.024150
    15  C   -0.070760  -0.025412
    16  H    0.185344  -0.000174
    17  H    0.185476   0.000485
    18  H    0.186796  -0.000131
    19  H    0.205952  -0.000013
    20  H    0.205951  -0.000013
    21  H    0.145408   0.027886
    22  H    0.149297   0.027371
    23  H    0.141661   0.007125
 Sum of Mulliken charges =  -1.00000   1.00000
 Mulliken charges and spin densities with hydrogens summed into heavy atoms:
               1          2
     1  Br  -0.126488   0.000347
     2  C   -0.084002  -0.006369
     3  C    0.014592   0.003945
     4  C    0.035653  -0.006435
     5  C   -0.052203   0.007624
     6  C   -0.084683  -0.005542
     7  C    0.065521   0.003364
     8  C    0.077700   0.004764
     9  C   -0.071107   0.026722
    10  C   -0.000677  -0.019537
    11  C   -0.197295   0.392848
    12  I   -0.461900   0.609133
    13  C   -0.039551  -0.016728
    14  C   -0.004802   0.031275
    15  C   -0.070760  -0.025412
 Electronic spatial extent (au):  <R**2>=          11460.3285
 Charge=             -1.0000 electrons
 Dipole moment (field-independent basis, Debye):
    X=             13.6682    Y=              0.0939    Z=              0.0000  Tot=             13.6685
 Quadrupole moment (field-independent basis, Debye-Ang):
   XX=           -232.9107   YY=           -119.0877   ZZ=           -130.1013
   XY=             -2.7499   XZ=             -0.0000   YZ=             -0.0000
 Traceless Quadrupole moment (field-independent basis, Debye-Ang):
   XX=            -72.2108   YY=             41.6122   ZZ=             30.5986
   XY=             -2.7499   XZ=             -0.0000   YZ=             -0.0000
 Octapole moment (field-independent basis, Debye-Ang**2):
  XXX=            332.8173  YYY=            -15.2347  ZZZ=             -0.0001  XYY=             13.4005
  XXY=             18.2436  XXZ=              0.0002  XZZ=             -3.5696  YZZ=            -11.4880
  YYZ=             -0.0000  XYZ=              0.0000
 Hexadecapole moment (field-independent basis, Debye-Ang**3):
 XXXX=         -13571.6603 YYYY=           -804.3703 ZZZZ=           -155.0907 XXXY=           -105.1365
 XXXZ=             -0.0004 YYYX=            -12.8566 YYYZ=              0.0000 ZZZX=             -0.0002
 ZZZY=             -0.0001 XXYY=          -1933.6049 XXZZ=          -1900.5144 YYZZ=           -176.4868
 XXYZ=             -0.0001 YYXZ=             -0.0000 ZZXY=             -9.7222
 N-N= 1.623698904415D+03 E-N=-2.692415426711D+04  KE= 9.952813360716D+03
 There are a total of      552474 grid points.
 ElSum from          density=      174.9999851249
 ElSum from atomic densities=      174.0001198577

 Hirshfeld populations at iteration   1 (CX, CA, CB, DipXYZ):
               1          2          3          4          5          6
     1  Br   0.000000  17.546857  17.547066  -0.020932   0.003118   0.000000
     2  C    0.000000   3.003943   3.007352   0.052189  -0.013303   0.000000
     3  C    0.000000   3.030576   3.029297   0.004752   0.034742   0.000000
     4  C    0.000000   3.022669   3.025989  -0.018757   0.039299  -0.000000
     5  C    0.000000   3.003383   3.001964  -0.023294   0.018682  -0.000000
     6  C    0.000000   3.001733   3.003967  -0.038604  -0.041208   0.000000
     7  C    0.000000   3.029807   3.028579  -0.003652  -0.039385   0.000000
     8  C    0.000000   3.024577   3.019620  -0.001745   0.002031  -0.000000
     9  C    0.000000   3.017729   3.002563   0.044898  -0.051590   0.000000
    10  C    0.000000   3.043641   3.031669   0.009297  -0.029451   0.000000
    11  C    0.000000   3.203280   2.885955   0.072363   0.013967  -0.000000
    12  I    0.000000  27.063851  26.469205   0.590210   0.111716   0.000001
    13  C    0.000000   3.042531   3.029450   0.001990   0.026618  -0.000000
    14  C    0.000000   3.039802   3.023353   0.017155   0.034539  -0.000000
    15  C    0.000000   3.019703   3.029113   0.036373   0.017379  -0.000000
    16  H    0.000000   0.482332   0.482255   0.092058   0.127611   0.000000
    17  H    0.000000   0.479915   0.479768  -0.040352   0.150171   0.000000
    18  H    0.000000   0.481025   0.480930   0.033537  -0.153018   0.000000
    19  H    0.000000   0.482007   0.481584  -0.004635  -0.092776   0.116130
    20  H    0.000000   0.482007   0.481584  -0.004636  -0.092777  -0.116129
    21  H    0.000000   0.502933   0.485725  -0.013874  -0.128036   0.000000
    22  H    0.000000   0.503008   0.486071  -0.058898   0.116760  -0.000000
    23  H    0.000000   0.492684   0.486935   0.036055   0.136378  -0.000000
       Tot   0.000000  87.999992  86.999993   0.761499   0.191468   0.000002

 Dip from Atomic Chgs              4.615965  -0.154537   0.000002
         Total Dipole              5.377464   0.036930   0.000003

 Hirshfeld charges, spin densities, dipoles, and CM5 charges using IRadAn=      5:
              Q-H        S-H        Dx         Dy         Dz        Q-CM5   
     1  Br  -0.093922  -0.000209  -0.020932   0.003118   0.000000  -0.079096
     2  C   -0.011295  -0.003409   0.052189  -0.013303   0.000000  -0.032445
     3  C   -0.059873   0.001280   0.004752   0.034742   0.000000  -0.113148
     4  C   -0.048658  -0.003321  -0.018757   0.039299  -0.000000  -0.100613
     5  C   -0.005347   0.001419  -0.023294   0.018682  -0.000000  -0.010199
     6  C   -0.005700  -0.002235  -0.038604  -0.041208   0.000000  -0.015847
     7  C   -0.058386   0.001227  -0.003652  -0.039385   0.000000  -0.108981
     8  C   -0.044197   0.004957  -0.001745   0.002031  -0.000000  -0.138614
     9  C   -0.020291   0.015166   0.044898  -0.051590   0.000000  -0.030524
    10  C   -0.075310   0.011972   0.009297  -0.029451   0.000000  -0.126738
    11  C   -0.089235   0.317325   0.072363   0.013967  -0.000000  -0.118911
    12  I   -0.533056   0.594646   0.590210   0.111716   0.000001  -0.507367
    13  C   -0.071980   0.013081   0.001990   0.026618  -0.000000  -0.126101
    14  C   -0.063155   0.016449   0.017155   0.034539  -0.000000  -0.115195
    15  C   -0.048816  -0.009411   0.036373   0.017379  -0.000000  -0.053683
    16  H    0.035413   0.000077   0.092058   0.127611   0.000000   0.092029
    17  H    0.040317   0.000147  -0.040352   0.150171   0.000000   0.096505
    18  H    0.038045   0.000096   0.033537  -0.153018   0.000000   0.094942
    19  H    0.036409   0.000423  -0.004635  -0.092776   0.116130   0.091053
    20  H    0.036409   0.000423  -0.004636  -0.092777  -0.116129   0.091054
    21  H    0.011342   0.017207  -0.013874  -0.128036   0.000000   0.068023
    22  H    0.010921   0.016937  -0.058898   0.116760  -0.000000   0.067314
    23  H    0.020381   0.005749   0.036055   0.136378  -0.000000   0.076556
       Tot  -0.999985   0.999999   0.761499   0.191468   0.000002  -0.999985
 Hirshfeld charges and spin densities with hydrogens summed into heavy atoms:
              Q-H        S-H       Q-CM5   
     1  Br  -0.093922  -0.000209  -0.079096
     2  C   -0.011295  -0.003409  -0.032445
     3  C   -0.024460   0.001356  -0.021119
     4  C   -0.008341  -0.003173  -0.004108
     5  C   -0.005347   0.001419  -0.010199
     6  C   -0.005700  -0.002235  -0.015847
     7  C   -0.020341   0.001323  -0.014039
     8  C    0.028620   0.005804   0.043493
     9  C   -0.020291   0.015166  -0.030524
    10  C   -0.063969   0.029180  -0.058716
    11  C   -0.089235   0.317325  -0.118911
    12  I   -0.533056   0.594646  -0.507367
    13  C   -0.061059   0.030018  -0.058786
    14  C   -0.042774   0.022198  -0.038639
    15  C   -0.048816  -0.009411  -0.053683
 
 EQQ= 0.639918836057E-01 EQD=-0.800168892168E-02 EDD= 0.539734324631E-02
 EQQ+QD+DD= 0.613875379304E-01
 
                          Isotropic Fermi Contact Couplings
        Atom                 a.u.       MegaHertz       Gauss      10(-4) cm-1
     1  Br(79)             0.00068       0.76585       0.27328       0.25546
     2  C(13)             -0.00015      -0.16938      -0.06044      -0.05650
     3  C(13)              0.00061       0.68941       0.24600       0.22996
     4  C(13)             -0.00040      -0.44580      -0.15907      -0.14870
     5  C(13)              0.00091       1.02293       0.36501       0.34121
     6  C(13)             -0.00041      -0.45626      -0.16280      -0.15219
     7  C(13)              0.00094       1.05996       0.37822       0.35356
     8  C(13)              0.00453       5.09078       1.81652       1.69810
     9  C(13)              0.01336      15.01977       5.35943       5.01006
    10  C(13)             -0.01268     -14.25551      -5.08672      -4.75513
    11  C(13)              0.37917     426.25933     152.09993     142.18481
    12  I(127)             0.82170     739.95310     264.03366     246.82178
    13  C(13)             -0.01213     -13.63951      -4.86692      -4.54965
    14  C(13)              0.01491      16.76153       5.98093       5.59104
    15  C(13)              0.00051       0.57224       0.20419       0.19088
    16  H(1)              -0.00004      -0.17520      -0.06252      -0.05844
    17  H(1)               0.00009       0.40944       0.14610       0.13657
    18  H(1)              -0.00002      -0.08717      -0.03110      -0.02908
    19  H(1)               0.00002       0.11138       0.03974       0.03715
    20  H(1)               0.00002       0.11139       0.03975       0.03715
    21  H(1)               0.00324      14.49258       5.17131       4.83421
    22  H(1)               0.00304      13.59624       4.85148       4.53522
    23  H(1)               0.00120       5.35765       1.91174       1.78712
 --------------------------------------------------------
       Center         ----  Spin Dipole Couplings  ----
                      3XX-RR        3YY-RR        3ZZ-RR
 --------------------------------------------------------
     1   Atom        0.009094     -0.000548     -0.008545
     2   Atom        0.003363      0.003036     -0.006400
     3   Atom       -0.000667     -0.001690      0.002357
     4   Atom        0.003921      0.002612     -0.006533
     5   Atom       -0.000182     -0.002570      0.002752
     6   Atom        0.003953      0.001865     -0.005818
     7   Atom       -0.000129     -0.001525      0.001654
     8   Atom        0.004811     -0.000167     -0.004644
     9   Atom        0.002248     -0.009097      0.006850
    10   Atom        0.011290      0.035484     -0.046774
    11   Atom        0.359822     -0.198226     -0.161596
    12   Atom        3.403674     -1.640842     -1.762832
    13   Atom        0.000413      0.044731     -0.045144
    14   Atom        0.002424     -0.009555      0.007130
    15   Atom        0.017253      0.008015     -0.025267
    16   Atom        0.000386     -0.000190     -0.000196
    17   Atom        0.001261     -0.000622     -0.000638
    18   Atom        0.000520     -0.000181     -0.000339
    19   Atom        0.001087     -0.000253     -0.000834
    20   Atom        0.001087     -0.000253     -0.000834
    21   Atom        0.002768      0.004319     -0.007087
    22   Atom       -0.002373      0.009580     -0.007206
    23   Atom        0.000656      0.001701     -0.002358
 --------------------------------------------------------
                        XY            XZ            YZ
 --------------------------------------------------------
     1   Atom       -0.001729     -0.000000      0.000000
     2   Atom       -0.000000      0.000000     -0.000000
     3   Atom        0.000345      0.000000     -0.000000
     4   Atom        0.000337      0.000000     -0.000000
     5   Atom       -0.000086      0.000000     -0.000000
     6   Atom        0.000071     -0.000000      0.000000
     7   Atom       -0.000318     -0.000000      0.000000
     8   Atom       -0.006352      0.000000     -0.000000
     9   Atom        0.002071      0.000000      0.000000
    10   Atom       -0.019924      0.000000     -0.000000
    11   Atom        0.107022     -0.000001     -0.000000
    12   Atom        0.979398      0.000008      0.000002
    13   Atom        0.005918      0.000000     -0.000000
    14   Atom        0.002952      0.000000      0.000000
    15   Atom        0.001841     -0.000000     -0.000000
    16   Atom        0.000338      0.000000     -0.000000
    17   Atom        0.000748     -0.000000      0.000000
    18   Atom       -0.000345     -0.000000      0.000000
    19   Atom       -0.001539      0.000628     -0.000818
    20   Atom       -0.001539     -0.000628      0.000818
    21   Atom       -0.007760      0.000000     -0.000000
    22   Atom        0.005146     -0.000000      0.000000
    23   Atom        0.003574      0.000000     -0.000000
 --------------------------------------------------------


 ---------------------------------------------------------------------------------
              Anisotropic Spin Dipole Couplings in Principal Axis System
 ---------------------------------------------------------------------------------

       Atom             a.u.   MegaHertz   Gauss  10(-4) cm-1        Axes

              Baa    -0.0085    -1.146    -0.409    -0.382  0.0000 -0.0000  1.0000
     1 Br(79) Bbb    -0.0008    -0.114    -0.041    -0.038  0.1714  0.9852  0.0000
              Bcc     0.0094     1.260     0.450     0.420  0.9852 -0.1714 -0.0000
 
              Baa    -0.0064    -0.859    -0.306    -0.286 -0.0000  0.0000  1.0000
     2 C(13)  Bbb     0.0030     0.407     0.145     0.136  0.0014  1.0000 -0.0000
              Bcc     0.0034     0.451     0.161     0.151  1.0000 -0.0014  0.0000
 
              Baa    -0.0018    -0.241    -0.086    -0.080 -0.2921  0.9564  0.0000
     3 C(13)  Bbb    -0.0006    -0.075    -0.027    -0.025  0.9564  0.2921 -0.0000
              Bcc     0.0024     0.316     0.113     0.105  0.0000 -0.0000  1.0000
 
              Baa    -0.0065    -0.877    -0.313    -0.292 -0.0000  0.0000  1.0000
     4 C(13)  Bbb     0.0025     0.340     0.121     0.113 -0.2354  0.9719 -0.0000
              Bcc     0.0040     0.537     0.192     0.179  0.9719  0.2354  0.0000
 
              Baa    -0.0026    -0.345    -0.123    -0.115  0.0358  0.9994  0.0000
     5 C(13)  Bbb    -0.0002    -0.024    -0.009    -0.008  0.9994 -0.0358 -0.0000
              Bcc     0.0028     0.369     0.132     0.123  0.0000 -0.0000  1.0000
 
              Baa    -0.0058    -0.781    -0.279    -0.260  0.0000 -0.0000  1.0000
     6 C(13)  Bbb     0.0019     0.250     0.089     0.083 -0.0338  0.9994  0.0000
              Bcc     0.0040     0.531     0.189     0.177  0.9994  0.0338 -0.0000
 
              Baa    -0.0016    -0.214    -0.076    -0.071  0.2122  0.9772 -0.0000
     7 C(13)  Bbb    -0.0001    -0.008    -0.003    -0.003  0.9772 -0.2122  0.0000
              Bcc     0.0017     0.222     0.079     0.074 -0.0000  0.0000  1.0000
 
              Baa    -0.0046    -0.623    -0.222    -0.208 -0.0000 -0.0000  1.0000
     8 C(13)  Bbb    -0.0045    -0.604    -0.215    -0.201  0.5635  0.8261  0.0000
              Bcc     0.0091     1.227     0.438     0.409  0.8261 -0.5635  0.0000
 
              Baa    -0.0095    -1.270    -0.453    -0.424 -0.1741  0.9847 -0.0000
     9 C(13)  Bbb     0.0026     0.351     0.125     0.117  0.9847  0.1741 -0.0000
              Bcc     0.0068     0.919     0.328     0.307  0.0000  0.0000  1.0000
 
              Baa    -0.0468    -6.277    -2.240    -2.094 -0.0000  0.0000  1.0000
    10 C(13)  Bbb     0.0001     0.010     0.004     0.003  0.8715  0.4904  0.0000
              Bcc     0.0467     6.266     2.236     2.090 -0.4904  0.8715 -0.0000
 
              Baa    -0.2180   -29.260   -10.441    -9.760 -0.1821  0.9833  0.0000
    11 C(13)  Bbb    -0.1616   -21.685    -7.738    -7.233  0.0000  0.0000  1.0000
              Bcc     0.3796    50.944    18.178    16.993  0.9833  0.1821 -0.0000
 
              Baa    -1.8243  -196.098   -69.973   -65.411 -0.1841  0.9829 -0.0000
    12 I(127) Bbb    -1.7628  -189.489   -67.614   -63.207 -0.0000  0.0000  1.0000
              Bcc     3.5872   385.588   137.587   128.618  0.9829  0.1841  0.0000
 
              Baa    -0.0451    -6.058    -2.162    -2.021 -0.0000  0.0000  1.0000
    13 C(13)  Bbb    -0.0004    -0.049    -0.017    -0.016  0.9915 -0.1301  0.0000
              Bcc     0.0455     6.107     2.179     2.037  0.1301  0.9915 -0.0000
 
              Baa    -0.0102    -1.374    -0.490    -0.458 -0.2270  0.9739 -0.0000
    14 C(13)  Bbb     0.0031     0.418     0.149     0.139  0.9739  0.2270 -0.0000
              Bcc     0.0071     0.957     0.341     0.319  0.0000  0.0000  1.0000
 
              Baa    -0.0253    -3.391    -1.210    -1.131  0.0000  0.0000  1.0000
    15 C(13)  Bbb     0.0077     1.028     0.367     0.343 -0.1885  0.9821 -0.0000
              Bcc     0.0176     2.363     0.843     0.788  0.9821  0.1885 -0.0000
 
              Baa    -0.0003    -0.185    -0.066    -0.062 -0.4189  0.9080  0.0000
    16 H(1)   Bbb    -0.0002    -0.105    -0.037    -0.035  0.0000 -0.0000  1.0000
              Bcc     0.0005     0.289     0.103     0.096  0.9080  0.4189  0.0000
 
              Baa    -0.0009    -0.471    -0.168    -0.157 -0.3292  0.9443 -0.0000
    17 H(1)   Bbb    -0.0006    -0.341    -0.122    -0.114 -0.0000  0.0000  1.0000
              Bcc     0.0015     0.812     0.290     0.271  0.9443  0.3292  0.0000
 
              Baa    -0.0003    -0.181    -0.065    -0.060 -0.0000 -0.0001  1.0000
    18 H(1)   Bbb    -0.0003    -0.172    -0.061    -0.057  0.3785  0.9256  0.0001
              Bcc     0.0007     0.353     0.126     0.118  0.9256 -0.3785 -0.0000
 
              Baa    -0.0015    -0.816    -0.291    -0.272  0.2884  0.7387  0.6093
    19 H(1)   Bbb    -0.0009    -0.461    -0.164    -0.154 -0.5484 -0.3942  0.7375
              Bcc     0.0024     1.276     0.455     0.426  0.7849 -0.5468  0.2914
 
              Baa    -0.0015    -0.816    -0.291    -0.272  0.2884  0.7387 -0.6093
    20 H(1)   Bbb    -0.0009    -0.461    -0.164    -0.154  0.5484  0.3942  0.7375
              Bcc     0.0024     1.276     0.455     0.426  0.7849 -0.5468 -0.2914
 
              Baa    -0.0071    -3.781    -1.349    -1.261 -0.0000  0.0000  1.0000
    21 H(1)   Bbb    -0.0043    -2.271    -0.810    -0.757  0.7414  0.6710 -0.0000
              Bcc     0.0113     6.052     2.159     2.019 -0.6710  0.7414 -0.0000
 
              Baa    -0.0072    -3.845    -1.372    -1.283  0.0000 -0.0000  1.0000
    22 H(1)   Bbb    -0.0043    -2.285    -0.815    -0.762  0.9375 -0.3480 -0.0000
              Bcc     0.0115     6.130     2.187     2.045  0.3480  0.9375  0.0000
 
              Baa    -0.0024    -1.298    -0.463    -0.433  0.7565 -0.6540 -0.0000
    23 H(1)   Bbb    -0.0024    -1.258    -0.449    -0.420  0.0000 -0.0000  1.0000
              Bcc     0.0048     2.556     0.912     0.853  0.6540  0.7565  0.0000
 

 ---------------------------------------------------------------------------------

 Running external command "gaunbo6 R"
         input file       "/home/rpaton/arbr500/midi/fukui/Gau-2434676.EIn"
         output file      "/home/rpaton/arbr500/midi/fukui/Gau-2434676.EOu"
         message file     "/home/rpaton/arbr500/midi/fukui/Gau-2434676.EMs"
         fchk file        "/home/rpaton/arbr500/midi/fukui/Gau-2434676.EFC"
         mat. el file     "/home/rpaton/arbr500/midi/fukui/Gau-2434676.EUF"

 Writing WrtUnf unformatted file "/home/rpaton/arbr500/midi/fukui/Gau-2434676.EUF"
 Gaussian matrix elements                                         Version   2 NLab=11 Len12L=8 Len4L=8
 Write SHELL TO ATOM MAP                   from file      0 offset           0 length                 106 to matrix element file.
 Write SHELL TYPES                         from file      0 offset           0 length                 106 to matrix element file.
 Write NUMBER OF PRIMITIVES PER SHELL      from file      0 offset           0 length                 106 to matrix element file.
 Write PRIMITIVE EXPONENTS                 from file      0 offset           0 length                 200 to matrix element file.
 Write CONTRACTION COEFFICIENTS            from file      0 offset           0 length                 200 to matrix element file.
 Write P(S=P) CONTRACTION COEFFICIENTS     from file      0 offset           0 length                 200 to matrix element file.
 Write COORDINATES OF EACH SHELL           from file      0 offset           0 length                 318 to matrix element file.
 Write BONDS PER ATOM                      from file      0 offset           0 length                  23 to matrix element file.
 Write BONDED ATOMS                        from file      0 offset           0 length                  50 to matrix element file.
 Write BOND TYPES                          from file      0 offset           0 length                  50 to matrix element file.
 Write ONIOM CHARGE/MULT                   from file      0 offset           0 length                  32 to matrix element file.
 Write ONIOM ATOM LAYERS                   from file      0 offset           0 length                  23 to matrix element file.
 Write ONIOM ATOM MODIFIERS                from file      0 offset           0 length                  23 to matrix element file.
 Write ONIOM ATOM TYPES                    from file      0 offset           0 length                  23 to matrix element file.
 Write ONIOM LINK ATOMS                    from file      0 offset           0 length                  23 to matrix element file.
 Write ONIOM LINK CHARGES                  from file      0 offset           0 length                  23 to matrix element file.
 Write ONIOM LINK DISTANCES                from file      0 offset           0 length                  92 to matrix element file.
 Write SYMINF INTS                         from file      0 offset           0 length                  26 to matrix element file.
 Write ROTTR TO SO                         from file      0 offset           0 length                  12 to matrix element file.
 Write GAUSSIAN SCALARS                    from file    501 offset           0 to matrix element file.
 Write OPTIMIZATION FLAGS                  from file      0 offset           0 length                  23 to matrix element file.
 Write INTEGER ISO                         from file      0 offset           0 length                  23 to matrix element file.
 Write INTEGER SPIN                        from file      0 offset           0 length                  23 to matrix element file.
 Write REAL ZEFFECTIVE                     from file      0 offset           0 length                  23 to matrix element file.
 Write REAL QUADRUPOLEMOMENT               from file      0 offset           0 length                  23 to matrix element file.
 Write REAL GFACTOR                        from file      0 offset           0 length                  23 to matrix element file.
 Write REAL ZNUCLEAR                       from file      0 offset           0 length                  23 to matrix element file.
 Write MULLIKEN CHARGES                    from file      0 offset           0 length                  23 to matrix element file.
 Write TYPE 6 CHARGES                      from file      0 offset           0 length                  23 to matrix element file.
 Write TYPE 7 CHARGES                      from file      0 offset           0 length                  23 to matrix element file.
 Write NUCLEAR GRADIENT                    from file  10584 offset           0 length                  69 to matrix element file.
 Array NUCLEAR FORCE CONSTANTS              on  file  10585 does not exist.
 Write ELECTRIC DIPOLE MOMENT              from file      0 offset           0 length                   3 to matrix element file.
 Write NON-ADIABATIC COUPLING              from file  10810 offset           0 length                  69 to matrix element file.
 Write FINITE EM FIELD                     from file  10521 offset           0 length                  35 to matrix element file.
 Write OVERLAP                             from file  10514 offset           0 length               19306 to matrix element file.
 Write CORE HAMILTONIAN ALPHA              from file  10515 offset           0 length               19306 to matrix element file.
 Write CORE HAMILTONIAN BETA               from file  10515 offset       19306 length               19306 to matrix element file.
 Write KINETIC ENERGY                      from file  10516 offset           0 length               19306 to matrix element file.
 Write ORTHOGONAL BASIS                    from file  10685 offset           0 length               38416 to matrix element file.
 Write DIPOLE INTEGRALS                    from file  10518 offset           0 length               57918 to matrix element file.
 Array DIP VEL INTEGRALS                    on  file  10572 does not exist.
 Array R X DEL INTEGRALS                    on  file  10572 does not exist.
 Write ALPHA ORBITAL ENERGIES              from file      0 offset           0 length                 196 to matrix element file.
 Write BETA ORBITAL ENERGIES               from file      0 offset           0 length                 196 to matrix element file.
 Write ALPHA MO COEFFICIENTS               from file  10524 offset           0 length               38416 to matrix element file.
 Write BETA MO COEFFICIENTS                from file  10526 offset           0 length               38416 to matrix element file.
 Write ALPHA DENSITY MATRIX                from file      0 offset           0 length               19306 to matrix element file.
 Write BETA DENSITY MATRIX                 from file      0 offset           0 length               19306 to matrix element file.
 Write ALPHA FOCK MATRIX                   from file  10536 offset           0 length               19306 to matrix element file.
 Write BETA FOCK MATRIX                    from file  10538 offset           0 length               19306 to matrix element file.
 Write ENERGY-WEIGHTED DENSITY             from file  10571 offset           0 length               19306 to matrix element file.
 Write ALPHA SCF DENSITY MATRIX            from file      0 offset           0 length               19306 to matrix element file.
 Write BETA SCF DENSITY MATRIX             from file      0 offset           0 length               19306 to matrix element file.
 No 2e integrals to process.
 Perform NBO analysis...

 *********************************** NBO 7.0 ***********************************
             N A T U R A L   A T O M I C   O R B I T A L   A N D
          N A T U R A L   B O N D   O R B I T A L   A N A L Y S I S
 **************************** Robert Paton (I101709) ***************************
  (c) Copyright 1996-2019 Board of Regents of the University of Wisconsin System
      on behalf of the Theoretical Chemistry Institute.  All rights reserved.

          Cite this program [NBO 7.0.5 (4-Jun-2019)] as:

          NBO 7.0.  E. D. Glendening, J. K. Badenhoop, A. E. Reed,
          J. E. Carpenter, J. A. Bohmann, C. M. Morales, P. Karafiloglou,
          C. R. Landis, and F. Weinhold, Theoretical Chemistry Institute,
          University of Wisconsin, Madison, WI (2018)

 Filename set to /home/rpaton/arbr500/midi/fukui/Gau-2434676

 Job title:  arbr35_wb97xd_redcreated by GaussianPrep


 NATURAL POPULATIONS:  Natural atomic orbital occupancies

  NAO Atom No lang   Type(AO)    Occupancy     Spin
 -----------------------------------------------------
   1   Br  1  s      Cor( 3s)     2.00000     0.00000
   2   Br  1  s      Cor( 1s)     2.00000     0.00000
   3   Br  1  s      Cor( 2s)     1.99999     0.00000
   4   Br  1  s      Val( 4s)     1.86671     0.00002
   5   Br  1  s      Ryd( 5s)     0.00281     0.00000
   6   Br  1  px     Cor( 3p)     2.00000     0.00000
   7   Br  1  px     Cor( 2p)     1.99999     0.00000
   8   Br  1  px     Val( 4p)     1.18666     0.00060
   9   Br  1  px     Ryd( 5p)     0.00330     0.00001
  10   Br  1  py     Cor( 3p)     2.00000     0.00000
  11   Br  1  py     Cor( 2p)     1.99999     0.00000
  12   Br  1  py     Val( 4p)     1.94615     0.00001
  13   Br  1  py     Ryd( 5p)     0.00138     0.00000
  14   Br  1  pz     Cor( 3p)     2.00000     0.00000
  15   Br  1  pz     Cor( 2p)     2.00000     0.00000
  16   Br  1  pz     Val( 4p)     1.95469    -0.00042
  17   Br  1  pz     Ryd( 5p)     0.00076     0.00000
  18   Br  1  dxy    Cor( 3d)     1.99965     0.00000
  19   Br  1  dxy    Ryd( 4d)     0.00132     0.00000
  20   Br  1  dxz    Cor( 3d)     1.99988     0.00000
  21   Br  1  dxz    Ryd( 4d)     0.00238    -0.00001
  22   Br  1  dyz    Cor( 3d)     1.99999     0.00000
  23   Br  1  dyz    Ryd( 4d)     0.00017     0.00000
  24   Br  1  dx2y2  Cor( 3d)     1.99946     0.00000
  25   Br  1  dx2y2  Ryd( 4d)     0.00418     0.00000
  26   Br  1  dz2    Cor( 3d)     1.99980     0.00000
  27   Br  1  dz2    Ryd( 4d)     0.00157     0.00000

  28    C  2  s      Cor( 1s)     1.99989     0.00000
  29    C  2  s      Val( 2s)     0.92962    -0.00011
  30    C  2  s      Ryd( 3s)     0.00052     0.00000
  31    C  2  px     Val( 2p)     0.97682    -0.00020
  32    C  2  px     Ryd( 3p)     0.00638     0.00000
  33    C  2  py     Val( 2p)     1.11171    -0.00012
  34    C  2  py     Ryd( 3p)     0.00709     0.00000
  35    C  2  pz     Val( 2p)     1.11627    -0.00469
  36    C  2  pz     Ryd( 3p)     0.00069     0.00000

  37    C  3  s      Cor( 1s)     1.99986     0.00000
  38    C  3  s      Val( 2s)     0.94248     0.00018
  39    C  3  s      Ryd( 3s)     0.00088     0.00000
  40    C  3  px     Val( 2p)     1.14412     0.00020
  41    C  3  px     Ryd( 3p)     0.00612     0.00000
  42    C  3  py     Val( 2p)     1.14233     0.00015
  43    C  3  py     Ryd( 3p)     0.00493     0.00000
  44    C  3  pz     Val( 2p)     1.02172     0.00233
  45    C  3  pz     Ryd( 3p)     0.00048     0.00000

  46    C  4  s      Cor( 1s)     1.99983     0.00000
  47    C  4  s      Val( 2s)     0.93293    -0.00015
  48    C  4  s      Ryd( 3s)     0.00066     0.00000
  49    C  4  px     Val( 2p)     1.07340    -0.00021
  50    C  4  px     Ryd( 3p)     0.00494     0.00002
  51    C  4  py     Val( 2p)     1.19865    -0.00011
  52    C  4  py     Ryd( 3p)     0.00524     0.00000
  53    C  4  pz     Val( 2p)     1.02205    -0.00499
  54    C  4  pz     Ryd( 3p)     0.00047    -0.00001

  55    C  5  s      Cor( 1s)     1.99987     0.00000
  56    C  5  s      Val( 2s)     0.84230     0.00034
  57    C  5  s      Ryd( 3s)     0.00098     0.00001
  58    C  5  px     Val( 2p)     1.10032     0.00057
  59    C  5  px     Ryd( 3p)     0.00499     0.00000
  60    C  5  py     Val( 2p)     1.09609     0.00038
  61    C  5  py     Ryd( 3p)     0.00542     0.00001
  62    C  5  pz     Val( 2p)     0.96660     0.00330
  63    C  5  pz     Ryd( 3p)     0.00015     0.00000

  64    C  6  s      Cor( 1s)     1.99991     0.00000
  65    C  6  s      Val( 2s)     0.84850    -0.00021
  66    C  6  s      Ryd( 3s)     0.00113     0.00001
  67    C  6  px     Val( 2p)     1.08969    -0.00026
  68    C  6  px     Ryd( 3p)     0.00480     0.00000
  69    C  6  py     Val( 2p)     1.07261    -0.00004
  70    C  6  py     Ryd( 3p)     0.00416     0.00001
  71    C  6  pz     Val( 2p)     0.98605    -0.00379
  72    C  6  pz     Ryd( 3p)     0.00092     0.00000

  73    C  7  s      Cor( 1s)     1.99984     0.00000
  74    C  7  s      Val( 2s)     0.93130     0.00023
  75    C  7  s      Ryd( 3s)     0.00107     0.00000
  76    C  7  px     Val( 2p)     1.08908     0.00023
  77    C  7  px     Ryd( 3p)     0.00614     0.00000
  78    C  7  py     Val( 2p)     1.19891     0.00012
  79    C  7  py     Ryd( 3p)     0.00557     0.00000
  80    C  7  pz     Val( 2p)     1.01699     0.00185
  81    C  7  pz     Ryd( 3p)     0.00041     0.00000

  82    C  8  s      Cor( 1s)     1.99975     0.00000
  83    C  8  s      Val( 2s)     1.02583     0.00085
  84    C  8  s      Ryd( 3s)     0.00049     0.00002
  85    C  8  px     Val( 2p)     1.04484     0.00214
  86    C  8  px     Ryd( 3p)     0.00236     0.00003
  87    C  8  py     Val( 2p)     1.17639     0.00131
  88    C  8  py     Ryd( 3p)     0.00217     0.00000
  89    C  8  pz     Val( 2p)     1.26141     0.00004
  90    C  8  pz     Ryd( 3p)     0.00051     0.00000

  91    C  9  s      Cor( 1s)     1.99991     0.00000
  92    C  9  s      Val( 2s)     0.84747     0.00384
  93    C  9  s      Ryd( 3s)     0.00100     0.00015
  94    C  9  px     Val( 2p)     1.09973     0.00130
  95    C  9  px     Ryd( 3p)     0.00489    -0.00001
  96    C  9  py     Val( 2p)     1.05147     0.00259
  97    C  9  py     Ryd( 3p)     0.00392    -0.00004
  98    C  9  pz     Val( 2p)     1.00468     0.01125
  99    C  9  pz     Ryd( 3p)     0.00114     0.00001

 100    C 10  s      Cor( 1s)     1.99984     0.00000
 101    C 10  s      Val( 2s)     0.93493    -0.00360
 102    C 10  s      Ryd( 3s)     0.00122     0.00009
 103    C 10  px     Val( 2p)     1.08030    -0.00525
 104    C 10  px     Ryd( 3p)     0.00632     0.00067
 105    C 10  py     Val( 2p)     1.21447    -0.00036
 106    C 10  py     Ryd( 3p)     0.00706     0.00106
 107    C 10  pz     Val( 2p)     1.01827    -0.02319
 108    C 10  pz     Ryd( 3p)     0.00044    -0.00005

 109    C 11  s      Cor( 1s)     1.99988     0.00002
 110    C 11  s      Val( 2s)     1.05029     0.13246
 111    C 11  s      Ryd( 3s)     0.00651     0.00438
 112    C 11  px     Val( 2p)     1.28274     0.23389
 113    C 11  px     Ryd( 3p)     0.01194     0.00346
 114    C 11  py     Val( 2p)     1.05632     0.01871
 115    C 11  py     Ryd( 3p)     0.00891     0.00034
 116    C 11  pz     Val( 2p)     0.87798     0.04098
 117    C 11  pz     Ryd( 3p)     0.00081     0.00007

 118    I 12  s      Cor( 2s)     2.00000     0.00000
 119    I 12  s      Cor( 1s)     2.00000     0.00000
 120    I 12  s      Cor( 4s)     2.00000     0.00000
 121    I 12  s      Cor( 3s)     1.99999     0.00000
 122    I 12  s      Val( 5s)     1.93383     0.04838
 123    I 12  s      Ryd( 6s)     0.01371     0.00894
 124    I 12  px     Cor( 2p)     2.00000     0.00000
 125    I 12  px     Cor( 4p)     2.00000     0.00000
 126    I 12  px     Cor( 3p)     1.99999     0.00000
 127    I 12  px     Val( 5p)     1.48788     0.44551
 128    I 12  px     Ryd( 6p)     0.02902     0.02117
 129    I 12  py     Cor( 2p)     2.00000     0.00000
 130    I 12  py     Cor( 4p)     2.00000     0.00000
 131    I 12  py     Cor( 3p)     2.00000     0.00000
 132    I 12  py     Val( 5p)     1.96802     0.01544
 133    I 12  py     Ryd( 6p)     0.00159     0.00078
 134    I 12  pz     Cor( 2p)     2.00000     0.00000
 135    I 12  pz     Cor( 4p)     2.00000     0.00000
 136    I 12  pz     Cor( 3p)     2.00000     0.00000
 137    I 12  pz     Val( 5p)     1.93049     0.00459
 138    I 12  pz     Ryd( 6p)     0.00034     0.00012
 139    I 12  dxy    Cor( 3d)     2.00000     0.00000
 140    I 12  dxy    Cor( 4d)     1.99983     0.00001
 141    I 12  dxy    Ryd( 5d)     0.00133     0.00076
 142    I 12  dxz    Cor( 3d)     2.00000     0.00000
 143    I 12  dxz    Cor( 4d)     1.99993     0.00000
 144    I 12  dxz    Ryd( 5d)     0.00100     0.00011
 145    I 12  dyz    Cor( 3d)     2.00000     0.00000
 146    I 12  dyz    Cor( 4d)     2.00000     0.00000
 147    I 12  dyz    Ryd( 5d)     0.00005     0.00000
 148    I 12  dx2y2  Cor( 3d)     1.99999     0.00000
 149    I 12  dx2y2  Cor( 4d)     1.99976     0.00007
 150    I 12  dx2y2  Ryd( 5d)     0.00714     0.00444
 151    I 12  dz2    Cor( 3d)     2.00000     0.00000
 152    I 12  dz2    Cor( 4d)     1.99991     0.00002
 153    I 12  dz2    Ryd( 5d)     0.00205     0.00115

 154    C 13  s      Cor( 1s)     1.99987     0.00000
 155    C 13  s      Val( 2s)     0.94751    -0.00356
 156    C 13  s      Ryd( 3s)     0.00087     0.00008
 157    C 13  px     Val( 2p)     1.11759    -0.00282
 158    C 13  px     Ryd( 3p)     0.00669     0.00115
 159    C 13  py     Val( 2p)     1.17555    -0.00276
 160    C 13  py     Ryd( 3p)     0.00608     0.00055
 161    C 13  pz     Val( 2p)     1.01403    -0.02193
 162    C 13  pz     Ryd( 3p)     0.00047    -0.00004

 163    C 14  s      Cor( 1s)     1.99983     0.00000
 164    C 14  s      Val( 2s)     0.93308     0.00371
 165    C 14  s      Ryd( 3s)     0.00074     0.00001
 166    C 14  px     Val( 2p)     1.09858     0.00404
 167    C 14  px     Ryd( 3p)     0.00480     0.00001
 168    C 14  py     Val( 2p)     1.17373     0.00002
 169    C 14  py     Ryd( 3p)     0.00465    -0.00003
 170    C 14  pz     Val( 2p)     1.01271     0.01182
 171    C 14  pz     Ryd( 3p)     0.00045     0.00001

 172    C 15  s      Cor( 1s)     1.99987     0.00000
 173    C 15  s      Val( 2s)     0.83068     0.00063
 174    C 15  s      Ryd( 3s)     0.00125     0.00035
 175    C 15  px     Val( 2p)     1.06513    -0.00035
 176    C 15  px     Ryd( 3p)     0.00458    -0.00002
 177    C 15  py     Val( 2p)     1.11638    -0.00086
 178    C 15  py     Ryd( 3p)     0.00568     0.00002
 179    C 15  pz     Val( 2p)     1.08170    -0.01757
 180    C 15  pz     Ryd( 3p)     0.00040    -0.00002

 181    H 16  s      Val( 1s)     0.74688    -0.00009
 182    H 16  s      Ryd( 2s)     0.00121     0.00000

 183    H 17  s      Val( 1s)     0.75010     0.00014
 184    H 17  s      Ryd( 2s)     0.00097     0.00012

 185    H 18  s      Val( 1s)     0.74518    -0.00007
 186    H 18  s      Ryd( 2s)     0.00122     0.00000

 187    H 19  s      Val( 1s)     0.72757     0.00004
 188    H 19  s      Ryd( 2s)     0.00103     0.00001

 189    H 20  s      Val( 1s)     0.72757     0.00004
 190    H 20  s      Ryd( 2s)     0.00103     0.00001

 191    H 21  s      Val( 1s)     0.77150     0.01831
 192    H 21  s      Ryd( 2s)     0.00759     0.00586

 193    H 22  s      Val( 1s)     0.77022     0.01772
 194    H 22  s      Ryd( 2s)     0.00777     0.00605

 195    H 23  s      Val( 1s)     0.77850     0.00451
 196    H 23  s      Ryd( 2s)     0.00193     0.00097


 Summary of Natural Population Analysis:

                                     Natural Population                 Natural
             Natural    ---------------------------------------------    Spin
  Atom No    Charge        Core      Valence    Rydberg      Total      Density
 -------------------------------------------------------------------------------
[...]
   85. BD ( 1) C 13- H 22     114. BD*( 1) C 13- C 14      0.41    1.24   0.028
   85. BD ( 1) C 13- H 22     117. BD*( 1) C 14- C 15      1.39    1.25   0.053
   85. BD ( 1) C 13- H 22     165. RY ( 2) C 11            0.75    1.93   0.048
   85. BD ( 1) C 13- H 22     181. RY ( 1) C 14            0.61    1.95   0.044
   86. BD ( 1) C 14- C 15      98. BD*( 1) C  5- C 15      2.01    1.26   0.064
   86. BD ( 1) C 14- C 15     103. BD*( 1) C  8- C  9      0.72    1.17   0.037
   86. BD ( 1) C 14- C 15     107. BD*( 1) C  9- C 15      2.55    1.35   0.074
   86. BD ( 1) C 14- C 15     114. BD*( 1) C 13- C 14      1.62    1.38   0.060
   86. BD ( 1) C 14- C 15     116. BD*( 1) C 13- H 22      0.73    1.28   0.039
   86. BD ( 1) C 14- C 15     118. BD*( 1) C 14- H 23      0.80    1.25   0.040
   86. BD ( 1) C 14- C 15     140. RY ( 1) C  5            0.45    2.09   0.039
   86. BD ( 1) C 14- C 15     141. RY ( 2) C  5            0.54    2.20   0.043
   86. BD ( 1) C 14- C 15     156. RY ( 1) C  9            0.70    2.25   0.050
   86. BD ( 1) C 14- C 15     177. RY ( 1) C 13            0.58    2.08   0.044
   86. BD ( 1) C 14- C 15     178. RY ( 2) C 13            0.81    1.71   0.047
   87. BD ( 1) C 14- H 23     107. BD*( 1) C  9- C 15      1.55    1.24   0.055
   87. BD ( 1) C 14- H 23     113. BD*( 1) C 11- C 13      1.14    1.28   0.048
   87. BD ( 1) C 14- H 23     114. BD*( 1) C 13- C 14      0.47    1.27   0.031
   87. BD ( 1) C 14- H 23     117. BD*( 1) C 14- C 15      0.49    1.27   0.031
   87. BD ( 1) C 14- H 23     177. RY ( 1) C 13            0.75    1.97   0.048
   87. BD ( 1) C 14- H 23     186. RY ( 2) C 15            0.91    2.09   0.055


 NATURAL BOND ORBITALS (Summary):

                                                     Principal Delocalizations
           NBO                 Occupancy    Energy   (geminal,vicinal,remote)
 ===============================================================================
 Molecular unit  1  (C13H8IBr)
 ------ Lewis --------------------------------------
    1. CR ( 1)Br  1             1.00000   -21.13327
    2. CR ( 2)Br  1             1.00000  -450.57749
    3. CR ( 3)Br  1             1.00000   -79.66602
    4. CR ( 4)Br  1             1.00000    -7.05236
    5. CR ( 5)Br  1             0.99999   -55.63008
    6. CR ( 6)Br  1             1.00000    -7.03963
    7. CR ( 7)Br  1             1.00000   -55.62693
    8. CR ( 8)Br  1             1.00000    -7.03898
    9. CR ( 9)Br  1             1.00000   -55.62673
   10. CR (10)Br  1             0.99982    -2.69174
   11. CR (11)Br  1             0.99994    -2.69126
   12. CR (12)Br  1             1.00000    -2.68129
   13. CR (13)Br  1             0.99973    -2.69191  121(g)
   14. CR (14)Br  1             0.99990    -2.68452
   15. CR ( 1) C  2             0.99995   -10.20025
   16. CR ( 1) C  3             0.99993   -10.15624
   17. CR ( 1) C  4             0.99992   -10.14790
   18. CR ( 1) C  5             0.99994   -10.14753
   19. CR ( 1) C  6             0.99995   -10.15123
   20. CR ( 1) C  7             0.99992   -10.15569
   21. CR ( 1) C  8             0.99987   -10.13894
   22. CR ( 1) C  9             0.99995   -10.11398
   23. CR ( 1) C 10             0.99992   -10.08630
   24. CR ( 1) C 11             0.99993   -10.05406
   25. CR ( 1) I 12             1.00000  -319.60982
   26. CR ( 2) I 12             1.00000  -856.80663
   27. CR ( 3) I 12             1.00000   -69.04290
   28. CR ( 4) I 12             1.00000  -131.20490
   29. CR ( 5) I 12             1.00000  -101.43979
   30. CR ( 6) I 12             1.00000    -8.54260
   31. CR ( 7) I 12             1.00000   -89.84441
   32. CR ( 8) I 12             1.00000  -101.43772
   33. CR ( 9) I 12             1.00000    -8.53518
   34. CR (10) I 12             1.00000   -89.84364
   35. CR (11) I 12             1.00000  -101.43797
   36. CR (12) I 12             1.00000    -8.53589
   37. CR (13) I 12             1.00000   -89.84380
   38. CR (14) I 12             1.00000   -16.30498
   39. CR (15) I 12             0.99991    -8.40899  164(v)
   40. CR (16) I 12             1.00000   -16.30530
   41. CR (17) I 12             0.99996    -8.40942
   42. CR (18) I 12             1.00000   -16.30241
   43. CR (19) I 12             1.00000    -8.40357
   44. CR (20) I 12             1.00000   -16.30483
   45. CR (21) I 12             0.99985    -8.40880  171(g)
   46. CR (22) I 12             1.00000   -16.30339
   47. CR (23) I 12             0.99994    -8.40568
   48. CR ( 1) C 13             0.99993   -10.08488
   49. CR ( 1) C 14             0.99992   -10.10536
   50. CR ( 1) C 15             0.99994   -10.11071
   51. LP ( 1)Br  1             0.99870    -0.67785  129(v)
   52. LP ( 2)Br  1             0.99165    -0.28446  89(v),91(v),128(v)
   53. LP ( 3)Br  1             0.97789    -0.28058  90(v)
   54. LP ( 1) I 12             0.99883    -0.43556
   55. LP ( 2) I 12             0.99265    -0.11917  113(v),109(v),164(v)
   56. LP ( 3) I 12             0.96306    -0.11421  110(v)
   57. BD ( 1)Br  1- C  2       0.99417    -0.54846  132(v),148(v),92(v),99(v)
   58. BD ( 1) C  2- C  3       0.99008    -0.62817  91(g),92(g),93(g),102(v)
                                                     96(v),137(v),148(v),136(v)
                                                     149(v)
   59. BD ( 2) C  2- C  3       0.85939    -0.24423  100(v),95(v),119(v),151(v)
                                                     138(v)
   60. BD ( 1) C  2- C  7       0.98952    -0.62586  89(g),99(g),101(v),145(v)
                                                     102(g),93(v),132(v),144(v)
                                                     133(v)
   61. BD ( 1) C  3- C  4       0.98657    -0.60067  88(v),89(g),94(g),98(v)
                                                     140(v),128(v),93(g),96(g)
                                                     129(v)
   62. BD ( 1) C  3- H 16       0.99146    -0.49280  91(v),94(v),129(v),136(v)
                                                     92(g),89(g),88(v)
   63. BD ( 1) C  4- C  5       0.98745    -0.59597  98(g),97(g),92(g),133(v)
                                                     96(g),93(v),185(v),101(v)
                                                     145(v),144(v),186(v)
   64. BD ( 2) C  4- C  5       0.81164    -0.20819  90(v),100(v),108(v),135(v)
                                                     146(v)
   65. BD ( 1) C  4- H 17       0.99123    -0.48298  97(v),89(v),141(v),132(v)
                                                     94(g),92(g)
   66. BD ( 1) C  5- C  6       0.98308    -0.57417  94(g),99(g),98(g),117(v)
                                                     102(v),149(v),96(v),185(v)
                                                     101(g),137(v),103(v),153(v)
                                                     136(v)
   67. BD ( 1) C  5- C 15       0.98432    -0.52989  94(g),117(g),97(g),99(v)
                                                     107(g),106(v),181(v),136(v)
                                                     144(v),156(v),92(v),114(v)
                                                     101(v),103(v)
   68. BD ( 1) C  6- C  7       0.98531    -0.60536  97(g),88(v),91(g),101(g)
                                                     102(g),128(v),141(v),98(v)
                                                     152(v),129(v)
   69. BD ( 2) C  6- C  7       0.84148    -0.22304  90(v),95(v),104(v),105(v)
                                                     143(v),130(v)
   70. BD ( 1) C  6- C  8       0.98828    -0.52202  99(g),94(v),106(v),97(g)
                                                     148(v),91(v),103(g),141(v)
                                                     157(v),98(v),104(g),105(g)
                                                     107(v)
   71. BD ( 1) C  7- H 18       0.99098    -0.49116  97(v),89(v),144(v),129(v)
                                                     99(g),91(g),88(v)
   72. BD ( 1) C  8- C  9       0.98861    -0.50412  99(v),106(g),117(v),160(v)
                                                     107(g),186(v),101(g),109(v)
                                                     104(g),105(g),98(v),97(v)
                                                     145(v)
   73. BD ( 1) C  8- H 19       0.98438    -0.45780  100(v),108(v),158(v),103(g)
                                                     146(v),97(v),107(v)
   74. BD ( 1) C  8- H 20       0.98438    -0.45780  100(v),108(v),158(v),103(g)
                                                     146(v),97(v),107(v)
   75. BD ( 1) C  9- C 10       0.98645    -0.55174  107(g),109(g),103(g),112(v)
                                                     164(v),111(g),98(v),186(v)
                                                     185(v),152(v),165(v)
   76. BD ( 1) C  9- C 15       0.98223    -0.53859  117(g),106(g),94(v),98(g)
                                                     118(v),161(v),111(v),140(v)
                                                     103(g),182(v),181(v),101(v)
                                                     153(v),160(v)
   77. BD ( 2) C  9- C 15       0.82352    -0.17247  115(v),95(v),110(v),104(v)
                                                     105(v),184(v),163(v)
   78. BD ( 1) C 10- C 11       0.98934    -0.52760  103(v),106(g),157(v),113(g)
                                                     111(g),116(v),178(v),177(v)
   79. BD ( 2) C 10- C 11       0.78710    -0.13548  108(v),115(v),168(v),180(v)
                                                     158(v)
   80. BD ( 1) C 10- H 21       0.99159    -0.42301  107(v),113(v),156(v),165(v)
                                                     109(g),106(g),103(v)
   81. BD ( 1) C 11- I 12       0.98998    -0.32109  114(v),106(v),177(v),160(v)
                                                     116(v),111(v)
   82. BD ( 1) C 11- C 13       0.99037    -0.52979  114(g),109(g),118(v),116(g)
                                                     111(v),182(v),160(v),161(v)
                                                     181(v)
   83. BD ( 1) C 13- C 14       0.98776    -0.54263  98(v),117(g),113(g),112(v)
                                                     185(v),164(v),118(g),116(g)
                                                     165(v),186(v)
   84. BD ( 2) C 13- C 14       0.85702    -0.17306  110(v),108(v),188(v),166(v)
   85. BD ( 1) C 13- H 22       0.99200    -0.42123  117(v),109(v),165(v),113(g)
                                                     181(v),114(g)
   86. BD ( 1) C 14- C 15       0.98680    -0.55735  107(g),98(g),114(g),178(v)
                                                     118(g),116(v),103(v),156(v)
                                                     177(v),141(v),140(v)
   87. BD ( 1) C 14- H 23       0.99211    -0.44756  107(v),113(v),186(v),177(v)
                                                     117(g),114(g)
 ------ non-Lewis ----------------------------------
   88. BD*( 1)Br  1- C  2       0.01300     0.26499
   89. BD*( 1) C  2- C  3       0.01102     0.74292
   90. BD*( 2) C  2- C  3       0.21082     0.13571
   91. BD*( 1) C  2- C  7       0.01090     0.74386
   92. BD*( 1) C  3- C  4       0.00761     0.76625
   93. BD*( 1) C  3- H 16       0.00561     0.65675
   94. BD*( 1) C  4- C  5       0.01114     0.78906
   95. BD*( 2) C  4- C  5       0.18361     0.17650
   96. BD*( 1) C  4- H 17       0.00598     0.66265
   97. BD*( 1) C  5- C  6       0.01270     0.75844
   98. BD*( 1) C  5- C 15       0.01498     0.70430
   99. BD*( 1) C  6- C  7       0.01099     0.78954
  100. BD*( 2) C  6- C  7       0.16106     0.17365
  101. BD*( 1) C  6- C  8       0.00904     0.59687
  102. BD*( 1) C  7- H 18       0.00647     0.65342
  103. BD*( 1) C  8- C  9       0.00981     0.61461
  104. BD*( 1) C  8- H 19       0.00583     0.62537
  105. BD*( 1) C  8- H 20       0.00583     0.62538
  106. BD*( 1) C  9- C 10       0.01162     0.84245
  107. BD*( 1) C  9- C 15       0.01336     0.79378
  108. BD*( 2) C  9- C 15       0.22283     0.20016
  109. BD*( 1) C 10- C 11       0.00854     0.83634
  110. BD*( 2) C 10- C 11       0.15228     0.24247
  111. BD*( 1) C 10- H 21       0.00697     0.71639
  112. BD*( 1) C 11- I 12       0.00710     0.36062
  113. BD*( 1) C 11- C 13       0.00859     0.83652
  114. BD*( 1) C 13- C 14       0.00856     0.82220
  115. BD*( 2) C 13- C 14       0.16164     0.21639
  116. BD*( 1) C 13- H 22       0.00622     0.72494
  117. BD*( 1) C 14- C 15       0.01166     0.82599
  118. BD*( 1) C 14- H 23       0.00629     0.68968
  119. RY ( 1)Br  1             0.00129     0.76287
  120. RY ( 2)Br  1             0.00050     0.82603
  121. RY ( 3)Br  1             0.00030     1.18845
  122. RY ( 4)Br  1             0.00014     0.91136
  123. RY ( 5)Br  1             0.00005     1.01646
  124. RY ( 6)Br  1             0.00003     0.72609
  125. RY ( 7)Br  1             0.00002     0.75352
  126. RY ( 8)Br  1             0.00001     0.84200
  127. RY ( 9)Br  1             0.00000     0.79208
  128. RY ( 1) C  2             0.00299     1.18452
  129. RY ( 2) C  2             0.00248     1.45522
  130. RY ( 3) C  2             0.00036     1.03747
  131. RY ( 4) C  2             0.00019     0.80395
  132. RY ( 1) C  3             0.00259     1.43362
  133. RY ( 2) C  3             0.00166     1.12016
  134. RY ( 3) C  3             0.00022     0.81540
  135. RY ( 4) C  3             0.00019     1.02160
  136. RY ( 1) C  4             0.00219     1.50035
  137. RY ( 2) C  4             0.00167     1.09981
  138. RY ( 3) C  4             0.00016     1.03257
  139. RY ( 4) C  4             0.00015     0.83117
  140. RY ( 1) C  5             0.00244     1.53285
  141. RY ( 2) C  5             0.00229     1.64444
  142. RY ( 3) C  5             0.00035     0.87164
  143. RY ( 4) C  5             0.00007     1.10910
  144. RY ( 1) C  6             0.00214     1.64244
  145. RY ( 2) C  6             0.00167     1.41074
  146. RY ( 3) C  6             0.00046     1.10059
  147. RY ( 4) C  6             0.00037     0.87365
  148. RY ( 1) C  7             0.00277     1.40531
  149. RY ( 2) C  7             0.00178     1.13252
  150. RY ( 3) C  7             0.00027     0.81535
  151. RY ( 4) C  7             0.00016     1.02720
  152. RY ( 1) C  8             0.00106     1.06858
  153. RY ( 2) C  8             0.00086     1.05626
  154. RY ( 3) C  8             0.00018     1.30990
  155. RY ( 4) C  8             0.00009     1.20751
  156. RY ( 1) C  9             0.00204     1.69748
  157. RY ( 2) C  9             0.00172     1.41617
  158. RY ( 3) C  9             0.00057     1.13520
  159. RY ( 4) C  9             0.00030     0.90828
  160. RY ( 1) C 10             0.00267     1.51115
  161. RY ( 2) C 10             0.00187     1.13092
  162. RY ( 3) C 10             0.00020     0.89391
  163. RY ( 4) C 10             0.00013     1.09047
  164. RY ( 1) C 11             0.00257     1.26338
  165. RY ( 2) C 11             0.00210     1.50419
  166. RY ( 3) C 11             0.00033     1.14281
  167. RY ( 4) C 11             0.00011     0.95442
  168. RY ( 1) I 12             0.00045     0.88112
  169. RY ( 2) I 12             0.00033     0.78512
  170. RY ( 3) I 12             0.00022     0.76253
  171. RY ( 4) I 12             0.00010     1.33308
  172. RY ( 5) I 12             0.00002     1.04270
  173. RY ( 6) I 12             0.00001     0.87706
  174. RY ( 7) I 12             0.00001     0.88731
  175. RY ( 8) I 12             0.00000     0.76500
  176. RY ( 9) I 12             0.00000     0.70226
  177. RY ( 1) C 13             0.00260     1.52183
  178. RY ( 2) C 13             0.00162     1.15340
  179. RY ( 3) C 13             0.00017     0.88403
  180. RY ( 4) C 13             0.00012     1.08776
  181. RY ( 1) C 14             0.00206     1.53023
  182. RY ( 2) C 14             0.00166     1.14123
  183. RY ( 3) C 14             0.00019     0.87375
  184. RY ( 4) C 14             0.00013     1.07287
  185. RY ( 1) C 15             0.00256     1.58697
  186. RY ( 2) C 15             0.00217     1.64286
  187. RY ( 3) C 15             0.00036     0.88528
  188. RY ( 4) C 15             0.00021     1.13578
  189. RY ( 1) H 16             0.00060     0.69616
  190. RY ( 1) H 17             0.00042     0.73170
  191. RY ( 1) H 18             0.00061     0.70419
  192. RY ( 1) H 19             0.00051     0.71482
  193. RY ( 1) H 20             0.00051     0.71482
  194. RY ( 1) H 21             0.00080     0.76670
  195. RY ( 1) H 22             0.00079     0.76149
  196. RY ( 1) H 23             0.00048     0.76201
          -------------------------------
                 Total Lewis   85.60947  ( 98.4017%)
           Valence non-Lewis    1.32206  (  1.5196%)
           Rydberg non-Lewis    0.06848  (  0.0787%)
          -------------------------------
               Total unit  1   87.00000  (100.0000%)
              Charge unit  1    0.00000

 $CHOOSE
  ALPHA
   LONE 1 3 11 1 12 4 END
   BOND S 1 2 D 2 3 S 2 7 S 3 4 S 3 16 D 4 5 S 4 17 S 5 6 S 5 15 D 6 7 S 6 8
        S 7 18 S 8 9 S 8 19 S 8 20 S 9 10 D 9 15 D 10 11 S 10 21 S 11 13
        D 13 14 S 13 22 S 14 15 S 14 23 END
  END
  BETA
   LONE 1 3 12 3 END
   BOND S 1 2 D 2 3 S 2 7 S 3 4 S 3 16 D 4 5 S 4 17 S 5 6 S 5 15 D 6 7 S 6 8
        S 7 18 S 8 9 S 8 19 S 8 20 S 9 10 D 9 15 D 10 11 S 10 21 S 11 12
        S 11 13 D 13 14 S 13 22 S 14 15 S 14 23 END
  END
 $END

 NBO analysis completed in 1.31 CPU seconds (2 wall seconds)
 Maximum scratch memory used by NBO was 908234 words (6.93 MB)
 Maximum scratch memory used by G16NBO was 86343 words (0.66 MB)

 Opening RunExU unformatted file "/home/rpaton/arbr500/midi/fukui/Gau-2434676.EUF"
 Read unf file /home/rpaton/arbr500/midi/fukui/Gau-2434676.EUF:
 Label Gaussian matrix elements                                         IVers= 2 NLab= 2 Version=ES64L-G16RevC.01
 Title arbr35_wb97xd_redcreated by GaussianPrep                        
 NAtoms=    23 NBasis=   196 NBsUse=   196 ICharg=    -1 Multip=     2 NE=   175 Len12L=8 Len4L=8 IOpCl= 1 ICGU=112
 GAUSSIAN SCALARS                    NI= 1 NR= 1 NTot=       1 LenBuf=    2 NRI=1 N=    1000
 NPA CHARGES                         NI= 0 NR= 1 NTot=      23 LenBuf= 2048 NRI=1 N=      23
 Recovered energy= -9949.39293985     dipole=      5.377485471746      0.036937247891      0.000003281016
 Unable to Open any file for archive entry.
 1\1\GINC-DYNAMO\SP\UwB97XD\MIDIx\C13H8Br1I1(1-,2)\RPATON\30-Sep-2024\0
 \\# pop=(nbo6,hirshfeld) wb97xd/midix\\arbr35_wb97xd_redcreated by Gau
 ssianPrep\\-1,2\Br,0,5.909399,-0.30755,-0.000002\C,0,4.052858,0.087953
 ,-0.000004\C,0,3.638512,1.417152,0.000001\C,0,2.280421,1.720656,0.0000
 02\C,0,1.356175,0.684952,0.000002\C,0,1.786282,-0.649499,0.000003\C,0,
 3.134311,-0.958761,0.\C,0,0.592604,-1.586681,0.000005\C,0,-0.575212,-0
 .617062,0.000003\C,0,-1.930942,-0.88998,0.000002\C,0,-2.829974,0.17660
 1,0.\I,0,-4.903621,-0.207775,-0.000002\C,0,-2.371709,1.493678,0.000001
 \C,0,-1.006136,1.762752,0.000002\C,0,-0.108798,0.704467,0.000003\H,0,4
 .379174,2.210631,0.000001\H,0,1.956516,2.758625,0.000003\H,0,3.478587,
 -1.989323,0.\H,0,0.583958,-2.236262,0.887102\H,0,0.583956,-2.23627,-0.
 887085\H,0,-2.290637,-1.915668,0.000002\H,0,-3.082159,2.31471,0.\H,0,-
 0.656816,2.79252,0.\\Version=ES64L-G16RevC.01\State=2-A\HF=-9949.39293
 99\S2=0.755037\S2-1=0.\S2A=0.750018\RMSD=8.180e-09\Dipole=5.3774855,0.
 0369372,0.0000033\Quadrupole=-53.6869779,30.9376672,22.7493107,-2.0445
 119,-0.0000053,-0.0000096\PG=C01 [X(C13H8Br1I1)]\\@
 The archive entry for this job was punched.


 PICNIC:  A SNACK IN THE GRASS.
 Job cpu time:       0 days  0 hours 16 minutes 44.5 seconds.
 Elapsed time:       0 days  0 hours  0 minutes 42.3 seconds.
 File lengths (MBytes):  RWF=     42 Int=      0 D2E=      0 Chk=      4 Scr=      1
 Normal termination of Gaussian 16 at Mon Sep 30 13:01:29 2024.
