 Entering Gaussian System, Link 0=/usr/local/Gaussian/G16C/g16/g16
 Input=arbr48_wb97xd_nmr.com
 Output=arbr48_wb97xd_nmr.log
 Initial command:
 /usr/local/Gaussian/G16C/g16/l1.exe "/home/rpaton/opt/tzvp/nmr/Gau-3146561.inp" -scrdir="/home/rpaton/opt/tzvp/nmr/"
 Entering Link 1 = /usr/local/Gaussian/G16C/g16/l1.exe PID=   3146562.
  
 Copyright (c) 1988-2019, Gaussian, Inc.  All Rights Reserved.
  
 This is part of the Gaussian(R) 16 program.  It is based on
 the Gaussian(R) 09 system (copyright 2009, Gaussian, Inc.),
 the Gaussian(R) 03 system (copyright 2003, Gaussian, Inc.),
 the Gaussian(R) 98 system (copyright 1998, Gaussian, Inc.),
 the Gaussian(R) 94 system (copyright 1995, Gaussian, Inc.),
 the Gaussian 92(TM) system (copyright 1992, Gaussian, Inc.),
 the Gaussian 90(TM) system (copyright 1990, Gaussian, Inc.),
 the Gaussian 88(TM) system (copyright 1988, Gaussian, Inc.),
 the Gaussian 86(TM) system (copyright 1986, Carnegie Mellon
 University), and the Gaussian 82(TM) system (copyright 1983,
 Carnegie Mellon University). Gaussian is a federally registered
 trademark of Gaussian, Inc.
  
 This software contains proprietary and confidential information,
 including trade secrets, belonging to Gaussian, Inc.
  
 This software is provided under written license and may be
 used, copied, transmitted, or stored only in accord with that
 written license.
  
 The following legend is applicable only to US Government
 contracts under FAR:
  
                    RESTRICTED RIGHTS LEGEND
  
 Use, reproduction and disclosure by the US Government is
 subject to restrictions as set forth in subparagraphs (a)
 and (c) of the Commercial Computer Software - Restricted
 Rights clause in FAR 52.227-19.
  
 Gaussian, Inc.
 340 Quinnipiac St., Bldg. 40, Wallingford CT 06492
  
  
 ---------------------------------------------------------------
 Warning -- This program may not be used in any manner that
 competes with the business of Gaussian, Inc. or will provide
 assistance to any competitor of Gaussian, Inc.  The licensee
 of this program is prohibited from giving any competitor of
 Gaussian, Inc. access to this program.  By using this program,
 the user acknowledges that Gaussian, Inc. is engaged in the
 business of creating and licensing software in the field of
 computational chemistry and represents and warrants to the
 licensee that it is not a competitor of Gaussian, Inc. and that
 it will not use this program in any manner prohibited above.
 ---------------------------------------------------------------
  

 Cite this work as:
 Gaussian 16, Revision C.01,
 M. J. Frisch, G. W. Trucks, H. B. Schlegel, G. E. Scuseria, 
 M. A. Robb, J. R. Cheeseman, G. Scalmani, V. Barone, 
 G. A. Petersson, H. Nakatsuji, X. Li, M. Caricato, A. V. Marenich, 
 J. Bloino, B. G. Janesko, R. Gomperts, B. Mennucci, H. P. Hratchian, 
 J. V. Ortiz, A. F. Izmaylov, J. L. Sonnenberg, D. Williams-Young, 
 F. Ding, F. Lipparini, F. Egidi, J. Goings, B. Peng, A. Petrone, 
 T. Henderson, D. Ranasinghe, V. G. Zakrzewski, J. Gao, N. Rega, 
 G. Zheng, W. Liang, M. Hada, M. Ehara, K. Toyota, R. Fukuda, 
 J. Hasegawa, M. Ishida, T. Nakajima, Y. Honda, O. Kitao, H. Nakai, 
 T. Vreven, K. Throssell, J. A. Montgomery, Jr., J. E. Peralta, 
 F. Ogliaro, M. J. Bearpark, J. J. Heyd, E. N. Brothers, K. N. Kudin, 
 V. N. Staroverov, T. A. Keith, R. Kobayashi, J. Normand, 
 K. Raghavachari, A. P. Rendell, J. C. Burant, S. S. Iyengar, 
 J. Tomasi, M. Cossi, J. M. Millam, M. Klene, C. Adamo, R. Cammi, 
 J. W. Ochterski, R. L. Martin, K. Morokuma, O. Farkas, 
 J. B. Foresman, and D. J. Fox, Gaussian, Inc., Wallingford CT, 2019.
 
 ******************************************
 Gaussian 16:  ES64L-G16RevC.01  3-Jul-2019
                24-Sep-2024 
 ******************************************
 %chk=arbr48_wb97xd_nmr.chk
 %mem=48GB
 %nprocshared=24
 Will use up to   24 processors via shared memory.
 ----------------------------
 # nmr=giao mpw1pw91/def2tzvp
 ----------------------------
 1/38=1,172=1/1;
 2/12=2,17=6,18=5,40=1/2;
 3/5=44,7=101,11=2,25=1,30=1,74=-7/1,2,3,8;
 4//1;
 5/5=2,38=5/2;
 8/6=1,10=90,11=11/1;
 10/13=100,45=16/2;
 6/7=2,8=2,9=2,10=2,28=1/1;
 99/9=1/99;
 ----------------------------------------
 arbr48_wb97xd_nmrcreated by GaussianPrep
 ----------------------------------------
 Symbolic Z-matrix:
 Charge =  0 Multiplicity = 1
 Br                    3.49167  -0.898     0.01581 
 C                     1.82058  -0.00378  -0.00687 
 C                     0.65647  -0.75265  -0.00314 
 C                    -0.58144  -0.11594  -0.01265 
 I                    -2.34963  -1.21368  -0.0025 
 C                    -0.60746   1.26588  -0.02578 
 C                     0.56635   2.00891  -0.0352 
 C                     1.79407   1.38636  -0.02678 
 C                     0.18532   3.46265  -0.10747 
 C                    -1.32532   3.38938   0.17068 
 O                    -1.72198   2.02289  -0.04458 
 H                     0.70828  -1.83207   0.01219 
 H                     2.71415   1.95494  -0.03701 
 H                     0.70525   4.07993   0.62425 
 H                     0.39635   3.86734  -1.09989 
 H                    -1.92394   4.01361  -0.48888 
 H                    -1.5535    3.64309   1.20849 
 
                          Input orientation:                          
 ---------------------------------------------------------------------
 Center     Atomic      Atomic             Coordinates (Angstroms)
 Number     Number       Type             X           Y           Z
 ---------------------------------------------------------------------
      1         35           0        3.491666   -0.897999    0.015812
      2          6           0        1.820584   -0.003777   -0.006872
      3          6           0        0.656474   -0.752648   -0.003140
      4          6           0       -0.581439   -0.115942   -0.012645
      5         53           0       -2.349633   -1.213677   -0.002503
      6          6           0       -0.607462    1.265880   -0.025780
      7          6           0        0.566348    2.008910   -0.035198
      8          6           0        1.794067    1.386361   -0.026782
      9          6           0        0.185321    3.462654   -0.107470
     10          6           0       -1.325316    3.389381    0.170676
     11          8           0       -1.721975    2.022888   -0.044583
     12          1           0        0.708275   -1.832073    0.012185
     13          1           0        2.714148    1.954941   -0.037008
     14          1           0        0.705249    4.079932    0.624251
     15          1           0        0.396345    3.867341   -1.099894
     16          1           0       -1.923943    4.013615   -0.488877
     17          1           0       -1.553499    3.643093    1.208492
 ---------------------------------------------------------------------
                    Distance matrix (angstroms):
                    1          2          3          4          5
     1  Br   0.000000
     2  C    1.895432   0.000000
     3  C    2.838979   1.384187   0.000000
     4  C    4.147603   2.404647   1.392090   0.000000
     5  I    5.849851   4.342187   3.041254   2.081258   0.000000
     6  C    4.635402   2.740035   2.381702   1.382129   3.030496
     7  C    4.124343   2.371670   2.763214   2.415144   4.346157
     8  C    2.846394   1.390533   2.422816   2.810719   4.891936
     9  C    5.473793   3.834103   4.242834   3.661047   5.320252
    10  C    6.450498   4.630522   4.595009   3.588070   4.718830
    11  O    5.976394   4.081485   3.655453   2.424136   3.297132
    12  H    2.935945   2.140154   1.080776   2.146878   3.119845
    13  H    2.957464   2.153124   3.400913   3.892306   5.973542
    14  H    5.737082   4.280066   4.873380   4.434700   6.143893
    15  H    5.790879   4.267166   4.755506   4.243196   5.878895
    16  H    7.328539   5.513007   5.441668   4.368335   5.267101
    17  H    6.891857   5.114803   5.067008   4.070187   5.068388
                    6          7          8          9         10
     6  C    0.000000
     7  C    1.389249   0.000000
     8  C    2.404549   1.376565   0.000000
     9  C    2.336877   1.504585   2.627845   0.000000
    10  C    2.250148   2.350846   3.712362   1.537777   0.000000
    11  O    1.347425   2.288385   3.573239   2.390535   1.439089
    12  H    3.365994   3.843896   3.396878   5.321835   5.605729
    13  H    3.392348   2.148479   1.081636   2.945018   4.291622
    14  H    3.172482   2.177912   2.977363   1.089391   2.192210
    15  H    2.988135   2.148545   3.043100   1.092341   2.192467
    16  H    3.081822   3.228965   4.575980   2.213148   1.087673
    17  H    2.840696   2.951452   4.221959   2.188106   1.092474
                   11         12         13         14         15
    11  O    0.000000
    12  H    4.557418   0.000000
    13  H    4.436650   4.285723   0.000000
    14  H    3.251182   5.943605   2.998087   0.000000
    15  H    3.000495   5.815268   3.187352   1.764452   0.000000
    16  H    2.049679   6.430529   5.094528   2.855889   2.403846
    17  H    2.055151   6.043527   4.755411   2.373628   3.029988
                   16         17
    16  H    0.000000
    17  H    1.776394   0.000000
 Stoichiometry    C8H6BrIO
 Framework group  C1[X(C8H6BrIO)]
 Deg. of freedom    45
 Full point group                 C1      NOp   1
 Largest Abelian subgroup         C1      NOp   1
 Largest concise Abelian subgroup C1      NOp   1
                         Standard orientation:                         
 ---------------------------------------------------------------------
 Center     Atomic      Atomic             Coordinates (Angstroms)
 Number     Number       Type             X           Y           Z
 ---------------------------------------------------------------------
      1         35           0        3.491666   -0.897998    0.015812
      2          6           0        1.820584   -0.003777   -0.006872
      3          6           0        0.656474   -0.752648   -0.003140
      4          6           0       -0.581439   -0.115942   -0.012645
      5         53           0       -2.349633   -1.213678   -0.002503
      6          6           0       -0.607462    1.265880   -0.025780
      7          6           0        0.566348    2.008910   -0.035198
      8          6           0        1.794067    1.386361   -0.026782
      9          6           0        0.185320    3.462654   -0.107470
     10          6           0       -1.325317    3.389381    0.170676
     11          8           0       -1.721975    2.022887   -0.044583
     12          1           0        0.708275   -1.832073    0.012185
     13          1           0        2.714148    1.954942   -0.037008
     14          1           0        0.705248    4.079932    0.624251
     15          1           0        0.396344    3.867341   -1.099894
     16          1           0       -1.923944    4.013614   -0.488877
     17          1           0       -1.553500    3.643092    1.208492
 ---------------------------------------------------------------------
 Rotational constants (GHZ):           0.6653476           0.2737482           0.1945322
 Standard basis: def2TZVP (5D, 7F)
 There are   474 symmetry adapted cartesian basis functions of A   symmetry.
 There are   413 symmetry adapted basis functions of A   symmetry.
   413 basis functions,   730 primitive gaussians,   474 cartesian basis functions
    61 alpha electrons       61 beta electrons
       nuclear repulsion energy      1003.0225642592 Hartrees.
 NAtoms=   17 NActive=   17 NUniq=   17 SFac= 1.00D+00 NAtFMM=   60 NAOKFM=F Big=F
 Integral buffers will be    131072 words long.
 Raffenetti 2 integral format.
 Two-electron integral symmetry is turned on.
 One-electron integrals computed using PRISM.
   1 Symmetry operations used in ECPInt.
 ECPInt:  NShTT=   12090 NPrTT=   41358 LenC2=   11393 LenP2D=   28941.
 LDataN:  DoStor=T MaxTD1= 7 Len=  274
 NBasis=   413 RedAO= T EigKep=  6.34D-06  NBF=   413
 NBsUse=   413 1.00D-06 EigRej= -1.00D+00 NBFU=   413
 Defaulting to unpruned grid for atomic number  53.
 ExpMin= 7.49D-02 ExpMax= 5.65D+05 ExpMxC= 5.46D+03 IAcc=3 IRadAn=         5 AccDes= 0.00D+00
 Harris functional with IExCor=  908 and IRadAn=       5 diagonalized for initial guess.
 HarFok:  IExCor=  908 AccDes= 0.00D+00 IRadAn=         5 IDoV= 1 UseB2=F ITyADJ=14
 ICtDFT=  3500011 ScaDFX=  1.000000  1.000000  1.000000  1.000000
 Defaulting to unpruned grid for atomic number  53.
 FoFCou: FMM=F IPFlag=           0 FMFlag=      100000 FMFlg1=           0
         NFxFlg=           0 DoJE=T BraDBF=F KetDBF=T FulRan=T
         wScrn=  0.000000 ICntrl=       500 IOpCl=  0 I1Cent=   200000004 NGrid=           0
         NMat0=    1 NMatS0=      1 NMatT0=    0 NMatD0=    1 NMtDS0=    0 NMtDT0=    0
 Petite list used in FoFCou.
 Requested convergence on RMS density matrix=1.00D-08 within 128 cycles.
 Requested convergence on MAX density matrix=1.00D-06.
 Requested convergence on             energy=1.00D-06.
 No special actions if energy rises.
 Integral accuracy reduced to 1.0D-05 until final iterations.
 Defaulting to unpruned grid for atomic number  53.
 Defaulting to unpruned grid for atomic number  53.
 Defaulting to unpruned grid for atomic number  53.
 Defaulting to unpruned grid for atomic number  53.
 Defaulting to unpruned grid for atomic number  53.
 Defaulting to unpruned grid for atomic number  53.
 Defaulting to unpruned grid for atomic number  53.
 Defaulting to unpruned grid for atomic number  53.
 Defaulting to unpruned grid for atomic number  53.
 Defaulting to unpruned grid for atomic number  53.
 Defaulting to unpruned grid for atomic number  53.
 Defaulting to unpruned grid for atomic number  53.
 Defaulting to unpruned grid for atomic number  53.
 Defaulting to unpruned grid for atomic number  53.
 Defaulting to unpruned grid for atomic number  53.
 Defaulting to unpruned grid for atomic number  53.
 Defaulting to unpruned grid for atomic number  53.
 Defaulting to unpruned grid for atomic number  53.
 Defaulting to unpruned grid for atomic number  53.
 Defaulting to unpruned grid for atomic number  53.
 Defaulting to unpruned grid for atomic number  53.
 Defaulting to unpruned grid for atomic number  53.
 Defaulting to unpruned grid for atomic number  53.
 Defaulting to unpruned grid for atomic number  53.
 Problem detected with inexpensive integrals.
 Switching to full accuracy and repeating last cycle.
 SCF Done:  E(RmPW1PW91) =  -3255.90298159     A.U. after   17 cycles
            NFock= 17  Conv=0.51D-08     -V/T= 2.0619
 DoSCS=F DFT=T ScalE2(SS,OS)=  1.000000  1.000000
 Range of M.O.s used for correlation:     1   413
 NBasis=   413 NAE=    61 NBE=    61 NFC=     0 NFV=     0
 NROrb=    413 NOA=    61 NOB=    61 NVA=   352 NVB=   352

 **** Warning!!: The largest alpha MO coefficient is  0.50417072D+02

          Differentiating once with respect to magnetic field using GIAOs.
          Electric field/nuclear overlap derivatives assumed to be zero.
 Defaulting to unpruned grid for atomic number  53.
 FoFCou: FMM=F IPFlag=           0 FMFlag=      100000 FMFlg1=           0
         NFxFlg=           0 DoJE=F BraDBF=F KetDBF=T FulRan=T
         wScrn=  0.000000 ICntrl=      6100 IOpCl=  0 I1Cent=           7 NGrid=          17
         NMat0=    1 NMatS0=      1 NMatT0=    0 NMatD0=    1 NMtDS0=    0 NMtDT0=    0
 Symmetry not used in FoFCou.
   1 Symmetry operations used in ECPInt.
 ECPInt:  NShTT=   12090 NPrTT=   41358 LenC2=   12091 LenP2D=   41358.
 LDataN:  DoStor=T MaxTD1= 8 Len=  415
 FoFJK:  IHMeth= 1 ICntrl=    6127 DoSepK=F KAlg= 0 I1Cent=           0 FoldK=F
 IRaf=         1 NMat=       1 IRICut=       1 DoRegI=T DoRafI=F ISym2E= 0 IDoP0=0 IntGTp=1.
 Defaulting to unpruned grid for atomic number  53.
 Defaulting to unpruned grid for atomic number  53.
 Defaulting to unpruned grid for atomic number  53.
 Defaulting to unpruned grid for atomic number  53.
 Defaulting to unpruned grid for atomic number  53.
 Defaulting to unpruned grid for atomic number  53.
 Defaulting to unpruned grid for atomic number  53.
 Defaulting to unpruned grid for atomic number  53.
 Defaulting to unpruned grid for atomic number  53.
 Defaulting to unpruned grid for atomic number  53.
 Defaulting to unpruned grid for atomic number  53.
 Defaulting to unpruned grid for atomic number  53.
 Defaulting to unpruned grid for atomic number  53.
 Defaulting to unpruned grid for atomic number  53.
 Defaulting to unpruned grid for atomic number  53.
 Defaulting to unpruned grid for atomic number  53.
 Defaulting to unpruned grid for atomic number  53.
 Defaulting to unpruned grid for atomic number  53.
 Defaulting to unpruned grid for atomic number  53.
 Defaulting to unpruned grid for atomic number  53.
 Defaulting to unpruned grid for atomic number  53.
 Defaulting to unpruned grid for atomic number  53.
 Defaulting to unpruned grid for atomic number  53.
 Defaulting to unpruned grid for atomic number  53.
          There are     3 degrees of freedom in the 1st order CPHF.  IDoFFX=0 NUNeed=     3.
      3 vectors produced by pass  0 Test12= 7.16D-13 3.33D-08 XBig12= 2.07D+01 8.22D-01.
 AX will form     3 AO Fock derivatives at one time.
      3 vectors produced by pass  1 Test12= 7.16D-13 3.33D-08 XBig12= 5.23D-02 8.47D-02.
      3 vectors produced by pass  2 Test12= 7.16D-13 3.33D-08 XBig12= 4.35D-04 8.48D-03.
      3 vectors produced by pass  3 Test12= 7.16D-13 3.33D-08 XBig12= 1.52D-06 4.53D-04.
      3 vectors produced by pass  4 Test12= 7.16D-13 3.33D-08 XBig12= 8.45D-09 3.85D-05.
      3 vectors produced by pass  5 Test12= 7.16D-13 3.33D-08 XBig12= 6.04D-11 2.33D-06.
      3 vectors produced by pass  6 Test12= 7.16D-13 3.33D-08 XBig12= 2.13D-13 1.02D-07.
 InvSVY:  IOpt=1 It=  1 EMax= 1.78D-15
 Solved reduced A of dimension    21 with     3 vectors.
 Calculating GIAO nuclear magnetic shielding tensors.
 SCF GIAO Magnetic shielding tensor (ppm):
      1  Br   Isotropic =  2093.0651   Anisotropy =  1319.7424
   XX=  2692.2987   YX=  -523.9516   ZX=    13.7979
   XY=  -537.6628   YY=  1967.8245   ZY=    -8.8513
   XZ=    17.8890   YZ=    -2.1122   ZZ=  1619.0722
   Eigenvalues:  1618.7744  1687.5275  2972.8934
      2  C    Isotropic =    53.6712   Anisotropy =   103.4892
   XX=   -12.1750   YX=    48.2072   ZX=    -1.2528
   XY=    41.6622   YY=    50.5560   ZY=     1.5322
   XZ=     2.9604   YZ=     0.3369   ZZ=   122.6326
   Eigenvalues:   -35.6090    73.9587   122.6640
      3  C    Isotropic =    43.3159   Anisotropy =   127.7512
   XX=    51.9277   YX=     6.0255   ZX=    -0.6511
   XY=     7.1126   YY=   -50.4448   ZY=     2.4144
   XZ=    -1.2409   YZ=    -0.0449   ZZ=   128.4648
   Eigenvalues:   -50.8732    52.3376   128.4833
      4  C    Isotropic =    70.4885   Anisotropy =   101.7980
   XX=    19.9413   YX=   -34.4063   ZX=     0.3663
   XY=   -22.0640   YY=    53.2728   ZY=     0.4775
   XZ=     0.7512   YZ=     5.3816   ZZ=   138.2514
   Eigenvalues:     3.7924    69.3193   138.3538
      5  I    Isotropic =   436.2511   Anisotropy =    67.5752
   XX=   460.9188   YX=    30.6699   ZX=    -0.3656
   XY=    31.9389   YY=   433.2089   ZY=    -0.1067
   XZ=    -0.4386   YZ=    -0.5641   ZZ=   414.6257
   Eigenvalues:   412.8283   414.6238   481.3013
      6  C    Isotropic =    20.5976   Anisotropy =   115.6304
   XX=   -42.8394   YX=    46.3983   ZX=    -0.4468
   XY=    30.0362   YY=     7.1958   ZY=     0.7164
   XZ=     3.6727   YZ=     6.9817   ZZ=    97.4365
   Eigenvalues:   -63.5004    27.6088    97.6846
      7  C    Isotropic =    54.4941   Anisotropy =   130.5507
   XX=    44.2110   YX=    -0.4561   ZX=    -2.2390
   XY=    12.5269   YY=   -22.0473   ZY=     4.8758
   XZ=    -2.6197   YZ=     5.2745   ZZ=   141.3187
   Eigenvalues:   -22.7621    44.7165   141.5280
      8  C    Isotropic =    55.2839   Anisotropy =   144.0061
   XX=    -6.7336   YX=   -35.4738   ZX=     0.3663
   XY=   -42.3138   YY=    21.4526   ZY=     2.5158
   XZ=     1.6468   YZ=     6.4406   ZZ=   151.1327
   Eigenvalues:   -34.0712    48.6350   151.2880
      9  C    Isotropic =   153.0773   Anisotropy =    30.7871
   XX=   164.3431   YX=    -7.0514   ZX=    -2.6796
   XY=    -3.7187   YY=   170.4101   ZY=     2.6339
   XZ=    -9.0595   YZ=    -6.1622   ZZ=   124.4787
   Eigenvalues:   123.4959   162.1340   173.6020
     10  C    Isotropic =   114.5212   Anisotropy =    85.7606
   XX=   105.7062   YX=    19.7408   ZX=     1.2312
   XY=    16.5065   YY=   164.6880   ZY=    12.5303
   XZ=    -9.2837   YZ=    17.9253   ZZ=    73.1692
   Eigenvalues:    69.2868   102.5818   171.6949
     11  O    Isotropic =   191.1470   Anisotropy =   120.5189
   XX=   255.3859   YX=   -29.2434   ZX=    -5.8983
   XY=   -57.2963   YY=   140.2186   ZY=   -11.7834
   XZ=    29.3431   YZ=     3.2157   ZZ=   177.8366
   Eigenvalues:   125.7709   176.1772   271.4930
     12  H    Isotropic =    24.2386   Anisotropy =    14.8072
   XX=    34.1056   YX=     0.1235   ZX=     0.0842
   XY=     0.3511   YY=    21.1771   ZY=    -0.0050
   XZ=     0.0116   YZ=    -0.1468   ZZ=    17.4330
   Eigenvalues:    17.4313    21.1743    34.1100
     13  H    Isotropic =    24.5177   Anisotropy =     9.3294
   XX=    25.1935   YX=    -3.2707   ZX=     0.1354
   XY=    -3.1453   YY=    28.8801   ZY=    -0.1739
   XZ=     0.0360   YZ=     0.0728   ZZ=    19.4796
   Eigenvalues:    19.4783    23.3376    30.7374
     14  H    Isotropic =    28.7448   Anisotropy =     8.4920
   XX=    29.3275   YX=     1.6790   ZX=     2.0253
   XY=     3.1112   YY=    30.8805   ZY=     3.2383
   XZ=     1.6435   YZ=     3.6316   ZZ=    26.0264
   Eigenvalues:    24.1798    27.6485    34.4061
     15  H    Isotropic =    28.4677   Anisotropy =     9.0273
   XX=    27.6437   YX=     0.2772   ZX=    -2.2326
   XY=     0.4760   YY=    29.2689   ZY=    -4.0081
   XZ=    -2.2869   YZ=    -6.1884   ZZ=    28.4905
   Eigenvalues:    23.2822    27.6350    34.4859
     16  H    Isotropic =    27.1845   Anisotropy =     7.6485
   XX=    27.5617   YX=    -1.1464   ZX=     1.0456
   XY=    -2.7013   YY=    30.9650   ZY=    -2.3915
   XZ=     1.0828   YZ=    -1.1326   ZZ=    23.0268
   Eigenvalues:    22.5616    26.7084    32.2835
     17  H    Isotropic =    27.4106   Anisotropy =     8.8188
   XX=    26.1647   YX=     0.6576   ZX=    -1.7964
   XY=     0.3196   YY=    29.1836   ZY=     4.7598
   XZ=    -3.9566   YZ=     4.8784   ZZ=    26.8835
   Eigenvalues:    21.5901    27.3519    33.2898
 End of Minotr F.D. properties file   721 does not exist.
 End of Minotr F.D. properties file   722 does not exist.
 End of Minotr F.D. properties file   788 does not exist.

 **********************************************************************

            Population analysis using the SCF Density.

 **********************************************************************

 Orbital symmetries:
       Occupied  (A) (A) (A) (A) (A) (A) (A) (A) (A) (A) (A) (A)
                 (A) (A) (A) (A) (A) (A) (A) (A) (A) (A) (A) (A)
                 (A) (A) (A) (A) (A) (A) (A) (A) (A) (A) (A) (A)
                 (A) (A) (A) (A) (A) (A) (A) (A) (A) (A) (A) (A)
                 (A) (A) (A) (A) (A) (A) (A) (A) (A) (A) (A) (A)
                 (A)
       Virtual   (A) (A) (A) (A) (A) (A) (A) (A) (A) (A) (A) (A)
                 (A) (A) (A) (A) (A) (A) (A) (A) (A) (A) (A) (A)
                 (A) (A) (A) (A) (A) (A) (A) (A) (A) (A) (A) (A)
                 (A) (A) (A) (A) (A) (A) (A) (A) (A) (A) (A) (A)
                 (A) (A) (A) (A) (A) (A) (A) (A) (A) (A) (A) (A)
                 (A) (A) (A) (A) (A) (A) (A) (A) (A) (A) (A) (A)
                 (A) (A) (A) (A) (A) (A) (A) (A) (A) (A) (A) (A)
                 (A) (A) (A) (A) (A) (A) (A) (A) (A) (A) (A) (A)
                 (A) (A) (A) (A) (A) (A) (A) (A) (A) (A) (A) (A)
                 (A) (A) (A) (A) (A) (A) (A) (A) (A) (A) (A) (A)
                 (A) (A) (A) (A) (A) (A) (A) (A) (A) (A) (A) (A)
                 (A) (A) (A) (A) (A) (A) (A) (A) (A) (A) (A) (A)
                 (A) (A) (A) (A) (A) (A) (A) (A) (A) (A) (A) (A)
                 (A) (A) (A) (A) (A) (A) (A) (A) (A) (A) (A) (A)
                 (A) (A) (A) (A) (A) (A) (A) (A) (A) (A) (A) (A)
                 (A) (A) (A) (A) (A) (A) (A) (A) (A) (A) (A) (A)
                 (A) (A) (A) (A) (A) (A) (A) (A) (A) (A) (A) (A)
                 (A) (A) (A) (A) (A) (A) (A) (A) (A) (A) (A) (A)
                 (A) (A) (A) (A) (A) (A) (A) (A) (A) (A) (A) (A)
                 (A) (A) (A) (A) (A) (A) (A) (A) (A) (A) (A) (A)
                 (A) (A) (A) (A) (A) (A) (A) (A) (A) (A) (A) (A)
                 (A) (A) (A) (A) (A) (A) (A) (A) (A) (A) (A) (A)
                 (A) (A) (A) (A) (A) (A) (A) (A) (A) (A) (A) (A)
                 (A) (A) (A) (A) (A) (A) (A) (A) (A) (A) (A) (A)
                 (A) (A) (A) (A) (A) (A) (A) (A) (A) (A) (A) (A)
                 (A) (A) (A) (A) (A) (A) (A) (A) (A) (A) (A) (A)
                 (A) (A) (A) (A) (A) (A) (A) (A) (A) (A) (A) (A)
                 (A) (A) (A) (A) (A) (A) (A) (A) (A) (A) (A) (A)
                 (A) (A) (A) (A) (A) (A) (A) (A) (A) (A) (A) (A)
                 (A) (A) (A) (A)
 The electronic state is 1-A.
 Alpha  occ. eigenvalues -- -483.34625 -62.67722 -56.45751 -56.45404 -56.45399
 Alpha  occ. eigenvalues --  -19.26658 -10.31234 -10.30724 -10.30150 -10.29593
 Alpha  occ. eigenvalues --  -10.26559 -10.26507 -10.26357 -10.26181  -8.78126
 Alpha  occ. eigenvalues --   -6.90557  -6.59402  -6.58291  -6.58274  -4.92021
 Alpha  occ. eigenvalues --   -4.90836  -4.90794  -2.68064  -2.67732  -2.67720
 Alpha  occ. eigenvalues --   -2.66810  -2.66810  -1.94675  -1.94263  -1.94237
 Alpha  occ. eigenvalues --   -1.93197  -1.93197  -1.12524  -0.91823  -0.84582
 Alpha  occ. eigenvalues --   -0.83842  -0.78272  -0.76161  -0.71912  -0.66981
 Alpha  occ. eigenvalues --   -0.63391  -0.61668  -0.54682  -0.53872  -0.52305
 Alpha  occ. eigenvalues --   -0.48927  -0.45211  -0.44332  -0.43590  -0.43064
 Alpha  occ. eigenvalues --   -0.42372  -0.39620  -0.38229  -0.37131  -0.35831
 Alpha  occ. eigenvalues --   -0.32615  -0.30701  -0.30249  -0.27766  -0.26111
 Alpha  occ. eigenvalues --   -0.23617
 Alpha virt. eigenvalues --   -0.03389  -0.03242  -0.01251   0.01308   0.03887
 Alpha virt. eigenvalues --    0.06770   0.07611   0.08119   0.09174   0.10304
 Alpha virt. eigenvalues --    0.12553   0.13206   0.13708   0.14326   0.15966
 Alpha virt. eigenvalues --    0.16254   0.16546   0.17626   0.18133   0.18367
 Alpha virt. eigenvalues --    0.19134   0.20819   0.20981   0.21457   0.21904
 Alpha virt. eigenvalues --    0.22924   0.23659   0.24379   0.24964   0.26273
 Alpha virt. eigenvalues --    0.27105   0.27658   0.28221   0.28442   0.29004
 Alpha virt. eigenvalues --    0.29939   0.31317   0.31840   0.33298   0.34440
 Alpha virt. eigenvalues --    0.35489   0.36548   0.36877   0.37950   0.38996
 Alpha virt. eigenvalues --    0.40227   0.40635   0.41560   0.42284   0.43124
 Alpha virt. eigenvalues --    0.43144   0.44423   0.44747   0.45247   0.45906
 Alpha virt. eigenvalues --    0.47688   0.48940   0.49248   0.50519   0.53281
 Alpha virt. eigenvalues --    0.53530   0.54617   0.55697   0.56768   0.57060
 Alpha virt. eigenvalues --    0.57765   0.60384   0.61787   0.63653   0.65164
 Alpha virt. eigenvalues --    0.65608   0.67223   0.68201   0.68919   0.70824
 Alpha virt. eigenvalues --    0.71573   0.72940   0.74016   0.74750   0.76780
 Alpha virt. eigenvalues --    0.78038   0.79286   0.80018   0.81051   0.81623
 Alpha virt. eigenvalues --    0.83578   0.85860   0.86570   0.86716   0.88476
 Alpha virt. eigenvalues --    0.88573   0.89285   0.90667   0.91123   0.92042
 Alpha virt. eigenvalues --    0.93771   0.95068   0.96739   0.97389   0.99882
 Alpha virt. eigenvalues --    1.01082   1.02706   1.02837   1.05209   1.07705
 Alpha virt. eigenvalues --    1.08765   1.10409   1.11623   1.13459   1.14898
 Alpha virt. eigenvalues --    1.17350   1.18418   1.19656   1.20120   1.21342
 Alpha virt. eigenvalues --    1.23203   1.24404   1.25888   1.27048   1.27570
 Alpha virt. eigenvalues --    1.28940   1.30566   1.34089   1.34943   1.35895
 Alpha virt. eigenvalues --    1.37069   1.37414   1.38854   1.39258   1.41609
 Alpha virt. eigenvalues --    1.42281   1.43382   1.44579   1.44992   1.46008
 Alpha virt. eigenvalues --    1.47880   1.48749   1.49863   1.52271   1.52709
 Alpha virt. eigenvalues --    1.54173   1.54441   1.55831   1.56367   1.57858
 Alpha virt. eigenvalues --    1.59038   1.59837   1.60966   1.61255   1.63461
 Alpha virt. eigenvalues --    1.64888   1.66257   1.68356   1.69736   1.71457
 Alpha virt. eigenvalues --    1.72086   1.72827   1.74572   1.76927   1.78164
 Alpha virt. eigenvalues --    1.79550   1.83768   1.84522   1.85001   1.87378
 Alpha virt. eigenvalues --    1.88840   1.89698   1.92680   1.93690   1.95107
 Alpha virt. eigenvalues --    1.97173   1.98818   1.99527   2.01152   2.05077
 Alpha virt. eigenvalues --    2.07742   2.08666   2.11471   2.13768   2.14942
 Alpha virt. eigenvalues --    2.17387   2.17740   2.22204   2.23397   2.27154
 Alpha virt. eigenvalues --    2.30140   2.32282   2.34176   2.36183   2.37218
 Alpha virt. eigenvalues --    2.40131   2.43624   2.44198   2.46379   2.50203
 Alpha virt. eigenvalues --    2.51582   2.53612   2.54671   2.56922   2.60214
 Alpha virt. eigenvalues --    2.61666   2.63235   2.65580   2.67561   2.68213
 Alpha virt. eigenvalues --    2.69547   2.71569   2.73784   2.75217   2.77246
 Alpha virt. eigenvalues --    2.79617   2.79676   2.81206   2.81983   2.84543
 Alpha virt. eigenvalues --    2.84608   2.87051   2.89524   2.90011   2.92663
 Alpha virt. eigenvalues --    2.94119   2.95597   2.97334   2.97679   2.99615
 Alpha virt. eigenvalues --    3.02037   3.02942   3.04422   3.06288   3.07008
 Alpha virt. eigenvalues --    3.07861   3.08935   3.09603   3.11408   3.12923
 Alpha virt. eigenvalues --    3.14218   3.14623   3.16026   3.19366   3.19826
 Alpha virt. eigenvalues --    3.21000   3.21764   3.22734   3.24071   3.25889
 Alpha virt. eigenvalues --    3.26562   3.27794   3.28958   3.30146   3.30552
 Alpha virt. eigenvalues --    3.33269   3.34991   3.36442   3.36631   3.39121
 Alpha virt. eigenvalues --    3.40133   3.41385   3.42632   3.45935   3.46829
 Alpha virt. eigenvalues --    3.47936   3.49090   3.49388   3.51973   3.54310
 Alpha virt. eigenvalues --    3.55206   3.59237   3.59550   3.60792   3.62696
 Alpha virt. eigenvalues --    3.65265   3.68361   3.70042   3.71892   3.73613
 Alpha virt. eigenvalues --    3.77247   3.81657   3.83870   3.88188   3.91249
 Alpha virt. eigenvalues --    3.93887   3.94281   3.96274   4.00169   4.02721
 Alpha virt. eigenvalues --    4.03160   4.06501   4.09040   4.11601   4.15863
 Alpha virt. eigenvalues --    4.18138   4.20054   4.21125   4.22084   4.23296
 Alpha virt. eigenvalues --    4.27023   4.28627   4.29751   4.33023   4.35836
 Alpha virt. eigenvalues --    4.37170   4.38842   4.44142   4.46467   4.48386
 Alpha virt. eigenvalues --    4.50691   4.56174   4.57356   4.64817   4.66932
 Alpha virt. eigenvalues --    4.69546   4.69745   4.76804   4.80127   4.83087
 Alpha virt. eigenvalues --    4.90640   4.94862   5.03114   5.08988   5.13274
 Alpha virt. eigenvalues --    5.18943   5.29998   5.39923   5.45425   5.46838
 Alpha virt. eigenvalues --    5.51124   5.72754   5.76936   5.90173   5.99843
 Alpha virt. eigenvalues --    6.30113   6.52444   6.70840   6.86125   6.87917
 Alpha virt. eigenvalues --    7.19668   7.39252   7.79508  22.14714  22.49568
 Alpha virt. eigenvalues --   22.60821  22.76278  22.81311  22.96343  23.03216
 Alpha virt. eigenvalues --   23.61284  34.53513  34.63941  34.93026  42.91773
 Alpha virt. eigenvalues --   44.26301 118.21986
          Condensed to atoms (all electrons):
               1          2          3          4          5          6
     1  Br  34.902647   0.314260  -0.075733   0.021386  -0.000725  -0.003996
     2  C    0.314260   4.891060   0.318136   0.113519   0.010048  -0.130355
     3  C   -0.075733   0.318136   5.369514   0.332132  -0.070167   0.012257
     4  C    0.021386   0.113519   0.332132   5.116010   0.321169   0.252969
     5  I   -0.000725   0.010048  -0.070167   0.321169  24.792842  -0.062191
     6  C   -0.003996  -0.130355   0.012257   0.252969  -0.062191   5.109796
     7  C    0.019845   0.104607  -0.158419   0.060920   0.004422   0.336262
     8  C   -0.073269   0.318700   0.075367  -0.132993   0.005884   0.058621
     9  C   -0.000714   0.010753  -0.002394   0.005971  -0.003310  -0.081481
    10  C    0.000015   0.000184  -0.000447   0.002696   0.002217  -0.048670
    11  O    0.000001  -0.000183   0.001177  -0.052714   0.007670   0.380769
    12  H   -0.004665  -0.069386   0.449225  -0.075994  -0.004319   0.022119
    13  H   -0.002538  -0.060020   0.017825  -0.005742   0.000120   0.013276
    14  H   -0.000008  -0.000456   0.000286  -0.000214   0.000064   0.007043
    15  H   -0.000004  -0.000135  -0.000072   0.001770   0.000086  -0.008211
    16  H   -0.000000  -0.000179   0.000305  -0.002217  -0.000074   0.005208
    17  H    0.000001   0.000116  -0.000489   0.008335  -0.000034   0.011473
               7          8          9         10         11         12
     1  Br   0.019845  -0.073269  -0.000714   0.000015   0.000001  -0.004665
     2  C    0.104607   0.318700   0.010753   0.000184  -0.000183  -0.069386
     3  C   -0.158419   0.075367  -0.002394  -0.000447   0.001177   0.449225
     4  C    0.060920  -0.132993   0.005971   0.002696  -0.052714  -0.075994
     5  I    0.004422   0.005884  -0.003310   0.002217   0.007670  -0.004319
     6  C    0.336262   0.058621  -0.081481  -0.048670   0.380769   0.022119
     7  C    5.388776   0.174541   0.343504  -0.080153  -0.093803  -0.004630
     8  C    0.174541   5.476280  -0.101665   0.002069   0.007295   0.015695
     9  C    0.343504  -0.101665   4.961690   0.420953  -0.052137   0.000187
    10  C   -0.080153   0.002069   0.420953   4.659998   0.279875   0.000033
    11  O   -0.093803   0.007295  -0.052137   0.279875   7.844455  -0.000110
    12  H   -0.004630   0.015695   0.000187   0.000033  -0.000110   0.526928
    13  H   -0.073625   0.454012  -0.006877  -0.000197  -0.000110  -0.000052
    14  H   -0.034864   0.002369   0.398374  -0.025572   0.004125  -0.000003
    15  H   -0.023417   0.009270   0.355705  -0.016287   0.005261  -0.000005
    16  H    0.008641   0.000389  -0.033629   0.411766  -0.033433   0.000000
    17  H   -0.005860  -0.000053  -0.022122   0.386568  -0.047419  -0.000003
              13         14         15         16         17
     1  Br  -0.002538  -0.000008  -0.000004  -0.000000   0.000001
     2  C   -0.060020  -0.000456  -0.000135  -0.000179   0.000116
     3  C    0.017825   0.000286  -0.000072   0.000305  -0.000489
     4  C   -0.005742  -0.000214   0.001770  -0.002217   0.008335
     5  I    0.000120   0.000064   0.000086  -0.000074  -0.000034
     6  C    0.013276   0.007043  -0.008211   0.005208   0.011473
     7  C   -0.073625  -0.034864  -0.023417   0.008641  -0.005860
     8  C    0.454012   0.002369   0.009270   0.000389  -0.000053
     9  C   -0.006877   0.398374   0.355705  -0.033629  -0.022122
    10  C   -0.000197  -0.025572  -0.016287   0.411766   0.386568
    11  O   -0.000110   0.004125   0.005261  -0.033433  -0.047419
    12  H   -0.000052  -0.000003  -0.000005   0.000000  -0.000003
    13  H    0.534826   0.001459   0.000433   0.000024  -0.000066
    14  H    0.001459   0.565067  -0.035986   0.004947  -0.014709
    15  H    0.000433  -0.035986   0.602161  -0.014503   0.009868
    16  H    0.000024   0.004947  -0.014503   0.579587  -0.045711
    17  H   -0.000066  -0.014709   0.009868  -0.045711   0.624247
 Mulliken charges:
               1
     1  Br  -0.096503
     2  C    0.179328
     3  C   -0.268504
     4  C    0.032997
     5  I   -0.003702
     6  C    0.125111
     7  C    0.033253
     8  C   -0.292513
     9  C   -0.192808
    10  C    0.004952
    11  O   -0.250720
    12  H    0.144979
    13  H    0.127251
    14  H    0.128078
    15  H    0.114066
    16  H    0.118879
    17  H    0.095856
 Sum of Mulliken charges =  -0.00000
 Mulliken charges with hydrogens summed into heavy atoms:
               1
     1  Br  -0.096503
     2  C    0.179328
     3  C   -0.123524
     4  C    0.032997
     5  I   -0.003702
     6  C    0.125111
     7  C    0.033253
     8  C   -0.165263
     9  C    0.049336
    10  C    0.219687
    11  O   -0.250720
 Electronic spatial extent (au):  <R**2>=           3854.0401
 Charge=             -0.0000 electrons
 Dipole moment (field-independent basis, Debye):
    X=             -0.0114    Y=              3.3953    Z=              0.1154  Tot=              3.3972
 Quadrupole moment (field-independent basis, Debye-Ang):
   XX=           -100.5451   YY=            -81.0156   ZZ=            -98.0495
   XY=              1.6492   XZ=             -0.3275   YZ=              0.3009
 Traceless Quadrupole moment (field-independent basis, Debye-Ang):
   XX=             -7.3417   YY=             12.1878   ZZ=             -4.8461
   XY=              1.6492   XZ=             -0.3275   YZ=              0.3009
 Octapole moment (field-independent basis, Debye-Ang**2):
  XXX=            -26.7397  YYY=            -28.3466  ZZZ=              0.4326  XYY=            -12.3165
  XXY=            -27.6928  XXZ=              0.4950  XZZ=             -8.6062  YZZ=            -22.2666
  YYZ=              1.0140  XYZ=             -0.5206
 Hexadecapole moment (field-independent basis, Debye-Ang**3):
 XXXX=          -2751.5360 YYYY=          -1613.3114 ZZZZ=           -131.8257 XXXY=             64.3760
 XXXZ=              2.6423 YYYX=              0.2356 YYYZ=              1.3885 ZZZX=              0.8915
 ZZZY=             -0.0937 XXYY=           -716.8601 XXZZ=           -501.4966 YYZZ=           -313.7754
 XXYZ=             -0.3092 YYXZ=              1.7618 ZZXY=              5.2581
 N-N= 1.003022564259D+03 E-N=-9.683006000988D+03  KE= 3.066187205258D+03
 Unable to Open any file for archive entry.
 1\1\GINC-DYNAMO\SP\RmPW1PW91\def2TZVP\C8H6Br1I1O1\RPATON\24-Sep-2024\0
 \\# nmr=giao mpw1pw91/def2tzvp\\arbr48_wb97xd_nmrcreated by GaussianPr
 ep\\0,1\Br,0,3.491666,-0.897999,0.015812\C,0,1.820584,-0.003777,-0.006
 872\C,0,0.656474,-0.752648,-0.00314\C,0,-0.581439,-0.115942,-0.012645\
 I,0,-2.349633,-1.213677,-0.002503\C,0,-0.607462,1.26588,-0.02578\C,0,0
 .566348,2.00891,-0.035198\C,0,1.794067,1.386361,-0.026782\C,0,0.185321
 ,3.462654,-0.10747\C,0,-1.325316,3.389381,0.170676\O,0,-1.721975,2.022
 888,-0.044583\H,0,0.708275,-1.832073,0.012185\H,0,2.714148,1.954941,-0
 .037008\H,0,0.705249,4.079932,0.624251\H,0,0.396345,3.867341,-1.099894
 \H,0,-1.923943,4.013615,-0.488877\H,0,-1.553499,3.643093,1.208492\\Ver
 sion=ES64L-G16RevC.01\State=1-A\HF=-3255.9029816\RMSD=5.150e-09\Dipole
 =-0.0044945,1.3358008,0.0453834\Quadrupole=-5.4583704,9.061312,-3.6029
 416,1.2261372,-0.243463,0.2236982\PG=C01 [X(C8H6Br1I1O1)]\\@
 The archive entry for this job was punched.


 ERWIN WITH HIS PSI CAN DO
 CALCULATIONS QUITE A FEW.
 BUT ONE THING HAS NOT BEEN SEEN
 JUST WHAT DOES PSI REALLY MEAN.
 -- WALTER HUCKEL, TRANS. BY FELIX BLOCH
 Job cpu time:       0 days  0 hours 42 minutes  4.1 seconds.
 Elapsed time:       0 days  0 hours  1 minutes 49.6 seconds.
 File lengths (MBytes):  RWF=    105 Int=      0 D2E=      0 Chk=     14 Scr=      1
 Normal termination of Gaussian 16 at Tue Sep 24 00:59:52 2024.
