 Entering Gaussian System, Link 0=/usr/local/Gaussian/G16C/g16/g16
 Input=arbr39_wb97xd_nmr.com
 Output=arbr39_wb97xd_nmr.log
 Initial command:
 /usr/local/Gaussian/G16C/g16/l1.exe "/home/rpaton/opt/tzvp/nmr/Gau-3136224.inp" -scrdir="/home/rpaton/opt/tzvp/nmr/"
 Entering Link 1 = /usr/local/Gaussian/G16C/g16/l1.exe PID=   3136225.
  
 Copyright (c) 1988-2019, Gaussian, Inc.  All Rights Reserved.
  
 This is part of the Gaussian(R) 16 program.  It is based on
 the Gaussian(R) 09 system (copyright 2009, Gaussian, Inc.),
 the Gaussian(R) 03 system (copyright 2003, Gaussian, Inc.),
 the Gaussian(R) 98 system (copyright 1998, Gaussian, Inc.),
 the Gaussian(R) 94 system (copyright 1995, Gaussian, Inc.),
 the Gaussian 92(TM) system (copyright 1992, Gaussian, Inc.),
 the Gaussian 90(TM) system (copyright 1990, Gaussian, Inc.),
 the Gaussian 88(TM) system (copyright 1988, Gaussian, Inc.),
 the Gaussian 86(TM) system (copyright 1986, Carnegie Mellon
 University), and the Gaussian 82(TM) system (copyright 1983,
 Carnegie Mellon University). Gaussian is a federally registered
 trademark of Gaussian, Inc.
  
 This software contains proprietary and confidential information,
 including trade secrets, belonging to Gaussian, Inc.
  
 This software is provided under written license and may be
 used, copied, transmitted, or stored only in accord with that
 written license.
  
 The following legend is applicable only to US Government
 contracts under FAR:
  
                    RESTRICTED RIGHTS LEGEND
  
 Use, reproduction and disclosure by the US Government is
 subject to restrictions as set forth in subparagraphs (a)
 and (c) of the Commercial Computer Software - Restricted
 Rights clause in FAR 52.227-19.
  
 Gaussian, Inc.
 340 Quinnipiac St., Bldg. 40, Wallingford CT 06492
  
  
 ---------------------------------------------------------------
 Warning -- This program may not be used in any manner that
 competes with the business of Gaussian, Inc. or will provide
 assistance to any competitor of Gaussian, Inc.  The licensee
 of this program is prohibited from giving any competitor of
 Gaussian, Inc. access to this program.  By using this program,
 the user acknowledges that Gaussian, Inc. is engaged in the
 business of creating and licensing software in the field of
 computational chemistry and represents and warrants to the
 licensee that it is not a competitor of Gaussian, Inc. and that
 it will not use this program in any manner prohibited above.
 ---------------------------------------------------------------
  

 Cite this work as:
 Gaussian 16, Revision C.01,
 M. J. Frisch, G. W. Trucks, H. B. Schlegel, G. E. Scuseria, 
 M. A. Robb, J. R. Cheeseman, G. Scalmani, V. Barone, 
 G. A. Petersson, H. Nakatsuji, X. Li, M. Caricato, A. V. Marenich, 
 J. Bloino, B. G. Janesko, R. Gomperts, B. Mennucci, H. P. Hratchian, 
 J. V. Ortiz, A. F. Izmaylov, J. L. Sonnenberg, D. Williams-Young, 
 F. Ding, F. Lipparini, F. Egidi, J. Goings, B. Peng, A. Petrone, 
 T. Henderson, D. Ranasinghe, V. G. Zakrzewski, J. Gao, N. Rega, 
 G. Zheng, W. Liang, M. Hada, M. Ehara, K. Toyota, R. Fukuda, 
 J. Hasegawa, M. Ishida, T. Nakajima, Y. Honda, O. Kitao, H. Nakai, 
 T. Vreven, K. Throssell, J. A. Montgomery, Jr., J. E. Peralta, 
 F. Ogliaro, M. J. Bearpark, J. J. Heyd, E. N. Brothers, K. N. Kudin, 
 V. N. Staroverov, T. A. Keith, R. Kobayashi, J. Normand, 
 K. Raghavachari, A. P. Rendell, J. C. Burant, S. S. Iyengar, 
 J. Tomasi, M. Cossi, J. M. Millam, M. Klene, C. Adamo, R. Cammi, 
 J. W. Ochterski, R. L. Martin, K. Morokuma, O. Farkas, 
 J. B. Foresman, and D. J. Fox, Gaussian, Inc., Wallingford CT, 2019.
 
 ******************************************
 Gaussian 16:  ES64L-G16RevC.01  3-Jul-2019
                23-Sep-2024 
 ******************************************
 %chk=arbr39_wb97xd_nmr.chk
 %mem=48GB
 %nprocshared=24
 Will use up to   24 processors via shared memory.
 ----------------------------
 # nmr=giao mpw1pw91/def2tzvp
 ----------------------------
 1/38=1,172=1/1;
 2/12=2,17=6,18=5,40=1/2;
 3/5=44,7=101,11=2,25=1,30=1,74=-7/1,2,3,8;
 4//1;
 5/5=2,38=5/2;
 8/6=1,10=90,11=11/1;
 10/13=100,45=16/2;
 6/7=2,8=2,9=2,10=2,28=1/1;
 99/9=1/99;
 ----------------------------------------
 arbr39_wb97xd_nmrcreated by GaussianPrep
 ----------------------------------------
 Symbolic Z-matrix:
 Charge =  0 Multiplicity = 1
 O                     1.72094  -2.19294   0.00013 
 C                     1.61133  -0.99325   0.00101 
 C                     0.35136  -0.21803   0.00047 
 C                    -0.94866  -0.70405   0.00028 
 C                    -1.97127   0.22202   0.00003 
 Br                   -3.77218  -0.36649  -0.00015 
 C                    -1.70798   1.59153  -0.00005 
 C                    -0.40287   2.05396   0.00007 
 C                     0.63805   1.13641   0.00029 
 C                     2.12215   1.39311   0.00019 
 C                     2.76888  -0.00365   0.00018 
 C                     3.86798  -0.2447    1.07021 
 C                     4.94084   0.02843  -0.00078 
 C                     3.86704  -0.24516  -1.07071 
 H                    -1.13724  -1.76939   0.00042 
 H                    -2.53261   2.29163  -0.00026 
 H                    -0.20973   3.11982  -0.00009 
 H                     2.41261   1.97619   0.8773 
 H                     2.41244   1.97606  -0.87706 
 H                     3.841     0.39638   1.95122 
 H                     3.86561  -1.29024   1.37933 
 H                     5.82507  -0.6067   -0.00103 
 H                     5.25669   1.0724   -0.00115 
 H                     3.8393    0.39554  -1.95198 
 H                     3.86442  -1.29084  -1.37937 
 
                          Input orientation:                          
 ---------------------------------------------------------------------
 Center     Atomic      Atomic             Coordinates (Angstroms)
 Number     Number       Type             X           Y           Z
 ---------------------------------------------------------------------
      1          8           0        1.720941   -2.192944    0.000132
      2          6           0        1.611331   -0.993249    0.001006
      3          6           0        0.351364   -0.218033    0.000468
      4          6           0       -0.948663   -0.704047    0.000275
      5          6           0       -1.971272    0.222022    0.000026
      6         35           0       -3.772177   -0.366488   -0.000154
      7          6           0       -1.707982    1.591534   -0.000054
      8          6           0       -0.402866    2.053964    0.000067
      9          6           0        0.638049    1.136408    0.000292
     10          6           0        2.122149    1.393110    0.000193
     11          6           0        2.768880   -0.003648    0.000180
     12          6           0        3.867979   -0.244700    1.070207
     13          6           0        4.940841    0.028426   -0.000781
     14          6           0        3.867042   -0.245160   -1.070709
     15          1           0       -1.137236   -1.769394    0.000418
     16          1           0       -2.532610    2.291633   -0.000259
     17          1           0       -0.209725    3.119816   -0.000093
     18          1           0        2.412607    1.976191    0.877301
     19          1           0        2.412443    1.976061   -0.877057
     20          1           0        3.840998    0.396383    1.951219
     21          1           0        3.865614   -1.290240    1.379328
     22          1           0        5.825074   -0.606700   -0.001027
     23          1           0        5.256690    1.072396   -0.001147
     24          1           0        3.839300    0.395537   -1.951978
     25          1           0        3.864416   -1.290836   -1.379372
 ---------------------------------------------------------------------
                    Distance matrix (angstroms):
                    1          2          3          4          5
     1  O    0.000000
     2  C    1.204692   0.000000
     3  C    2.403334   1.479350   0.000000
     4  C    3.056730   2.576278   1.387905   0.000000
     5  C    4.411859   3.783111   2.363956   1.379613   0.000000
     6  Br   5.788807   5.419870   4.126213   2.843621   1.894625
     7  C    5.106837   4.207011   2.741430   2.417904   1.394591
     8  C    4.748345   3.652738   2.393916   2.811498   2.411620
     9  C    3.501034   2.341520   1.384449   2.430006   2.764897
    10  C    3.608428   2.440419   2.394047   3.718596   4.257645
    11  C    2.427178   1.522902   2.427003   3.782947   4.745521
    12  C    3.090386   2.606909   3.675817   4.955380   5.954827
    13  C    3.911808   3.482737   4.596090   5.934878   6.914824
    14  C    3.089711   2.606999   3.675343   4.954654   5.954044
    15  H    2.889389   2.856050   2.150035   1.081908   2.159017
    16  H    6.180949   5.287977   3.823052   3.388656   2.144386
    17  H    5.652689   4.498172   3.384680   3.894606   3.391203
    18  H    4.316192   3.198048   3.135630   4.387595   4.802615
    19  H    4.316044   3.198371   3.135625   4.387451   4.802383
    20  H    3.873757   3.271975   4.044809   5.287531   6.133518
    21  H    2.704936   2.658903   3.924390   5.042090   6.185358
    22  H    4.400009   4.231436   5.487492   6.774437   7.840267
    23  H    4.812896   4.189933   5.072222   6.454623   7.277814
    24  H    3.872778   3.272112   4.044034   5.286300   6.132143
    25  H    2.703944   2.659021   3.923825   5.041178   6.184394
                    6          7          8          9         10
     6  Br   0.000000
     7  C    2.845128   0.000000
     8  C    4.148595   1.384619   0.000000
     9  C    4.659269   2.389770   1.387593   0.000000
    10  C    6.151363   3.835267   2.610063   1.506137   0.000000
    11  C    6.551113   4.752568   3.780706   2.416644   1.539219
    12  C    7.715730   5.967290   4.966807   3.672142   2.622074
    13  C    8.721963   6.830092   5.714719   4.443157   3.131675
    14  C    7.714822   5.966627   4.966351   3.671807   2.622101
    15  H    2.985140   3.409045   3.893246   3.405190   4.541478
    16  H    2.932939   1.081735   2.142964   3.374555   4.740688
    17  H    4.984514   2.140192   1.083210   2.156995   2.901577
    18  H    6.671553   4.230481   2.949996   2.150218   1.092551
    19  H    6.671283   4.230236   2.949810   2.150170   1.092552
    20  H    7.896218   6.002252   4.956304   3.822648   2.784674
    21  H    7.816146   6.424351   5.595175   4.267029   3.484545
    22  H    9.600257   7.847239   6.772472   5.472080   4.208431
    23  H    9.142802   6.983993   5.744045   4.619085   3.150906
    24  H    7.894611   6.001063   4.955485   3.822075   2.784732
    25  H    7.814999   6.423566   5.594661   4.266665   3.484575
                   11         12         13         14         15
    11  C    0.000000
    12  C    1.552766   0.000000
    13  C    2.172198   1.540340   0.000000
    14  C    1.552769   2.140916   1.540337   0.000000
    15  H    4.286677   5.340535   6.338389   5.339794   0.000000
    16  H    5.777033   6.967526   7.808622   6.966831   4.294067
    17  H    4.316030   5.393809   6.007081   5.393451   4.976409
    18  H    2.194546   2.662269   3.310103   3.293103   5.234474
    19  H    2.194502   3.292750   3.309673   2.662176   5.234369
    20  H    2.261861   1.089907   2.270540   3.089386   5.768798
    21  H    2.181787   1.090282   2.190820   2.663621   5.211477
    22  H    3.115124   2.260267   1.088693   2.260270   7.058727
    23  H    2.710548   2.193413   1.090703   2.193408   6.997004
    24  H    2.261873   3.089390   2.270536   1.089907   5.767555
    25  H    2.181792   2.663616   2.190812   1.090283   5.210505
                   16         17         18         19         20
    16  H    0.000000
    17  H    2.466107   0.000000
    18  H    5.032374   2.992378   0.000000
    19  H    5.032088   2.992157   1.754358   0.000000
    20  H    6.929871   5.256716   2.385245   3.540522   0.000000
    21  H    7.461256   6.161151   3.610101   4.227494   1.781113
    22  H    8.845972   7.092653   4.368949   4.368539   2.958716
    23  H    7.884144   5.837262   3.110840   3.110236   2.504578
    24  H    6.928609   5.256059   3.541008   2.385253   3.903197
    25  H    7.460427   6.160754   4.227740   3.610147   3.733643
                   21         22         23         24         25
    21  H    0.000000
    22  H    2.492407   0.000000
    23  H    3.069667   1.772688   0.000000
    24  H    3.733649   2.958714   2.504571   0.000000
    25  H    2.758700   2.492400   3.069657   1.781113   0.000000
 Stoichiometry    C12H11BrO
 Framework group  C1[X(C12H11BrO)]
 Deg. of freedom    69
 Full point group                 C1      NOp   1
 Largest Abelian subgroup         C1      NOp   1
 Largest concise Abelian subgroup C1      NOp   1
                         Standard orientation:                         
 ---------------------------------------------------------------------
 Center     Atomic      Atomic             Coordinates (Angstroms)
 Number     Number       Type             X           Y           Z
 ---------------------------------------------------------------------
      1          8           0       -1.720941   -2.192944   -0.000132
      2          6           0       -1.611331   -0.993249   -0.001006
      3          6           0       -0.351364   -0.218033   -0.000468
      4          6           0        0.948663   -0.704047   -0.000275
      5          6           0        1.971272    0.222022   -0.000026
      6         35           0        3.772177   -0.366488    0.000154
      7          6           0        1.707982    1.591534    0.000054
      8          6           0        0.402866    2.053964   -0.000067
      9          6           0       -0.638049    1.136408   -0.000292
     10          6           0       -2.122149    1.393110   -0.000193
     11          6           0       -2.768880   -0.003648   -0.000180
     12          6           0       -3.867979   -0.244700   -1.070207
     13          6           0       -4.940841    0.028426    0.000781
     14          6           0       -3.867042   -0.245160    1.070709
     15          1           0        1.137236   -1.769394   -0.000418
     16          1           0        2.532610    2.291633    0.000259
     17          1           0        0.209725    3.119816    0.000093
     18          1           0       -2.412607    1.976191   -0.877301
     19          1           0       -2.412443    1.976061    0.877057
     20          1           0       -3.840998    0.396383   -1.951219
     21          1           0       -3.865614   -1.290240   -1.379328
     22          1           0       -5.825074   -0.606700    0.001027
     23          1           0       -5.256690    1.072396    0.001147
     24          1           0       -3.839300    0.395537    1.951978
     25          1           0       -3.864416   -1.290836    1.379372
 ---------------------------------------------------------------------
 Rotational constants (GHZ):           1.6890298           0.2228875           0.2033308
 Standard basis: def2TZVP (5D, 7F)
 There are   589 symmetry adapted cartesian basis functions of A   symmetry.
 There are   517 symmetry adapted basis functions of A   symmetry.
   517 basis functions,   865 primitive gaussians,   589 cartesian basis functions
    63 alpha electrons       63 beta electrons
       nuclear repulsion energy      1115.8831907815 Hartrees.
 NAtoms=   25 NActive=   25 NUniq=   25 SFac= 1.00D+00 NAtFMM=   60 NAOKFM=F Big=F
 Integral buffers will be    131072 words long.
 Raffenetti 2 integral format.
 Two-electron integral symmetry is turned on.
 One-electron integrals computed using PRISM.
   1 Symmetry operations used in ECPInt.
 ECPInt:  NShTT=   20706 NPrTT=   67180 LenC2=   19152 LenP2D=   45818.
 LDataN:  DoStor=T MaxTD1= 6 Len=  172
 NBasis=   517 RedAO= T EigKep=  6.06D-06  NBF=   517
 NBsUse=   517 1.00D-06 EigRej= -1.00D+00 NBFU=   517
 ExpMin= 9.52D-02 ExpMax= 5.65D+05 ExpMxC= 5.46D+03 IAcc=3 IRadAn=         5 AccDes= 0.00D+00
 Harris functional with IExCor=  908 and IRadAn=       5 diagonalized for initial guess.
 HarFok:  IExCor=  908 AccDes= 0.00D+00 IRadAn=         5 IDoV= 1 UseB2=F ITyADJ=14
 ICtDFT=  3500011 ScaDFX=  1.000000  1.000000  1.000000  1.000000
 FoFCou: FMM=F IPFlag=           0 FMFlag=      100000 FMFlg1=           0
         NFxFlg=           0 DoJE=T BraDBF=F KetDBF=T FulRan=T
         wScrn=  0.000000 ICntrl=       500 IOpCl=  0 I1Cent=   200000004 NGrid=           0
         NMat0=    1 NMatS0=      1 NMatT0=    0 NMatD0=    1 NMtDS0=    0 NMtDT0=    0
 Petite list used in FoFCou.
 Requested convergence on RMS density matrix=1.00D-08 within 128 cycles.
 Requested convergence on MAX density matrix=1.00D-06.
 Requested convergence on             energy=1.00D-06.
 No special actions if energy rises.
 Integral accuracy reduced to 1.0D-05 until final iterations.
 Initial convergence to 1.0D-05 achieved.  Increase integral accuracy.
 SCF Done:  E(RmPW1PW91) =  -3113.52462318     A.U. after   18 cycles
            NFock= 18  Conv=0.46D-08     -V/T= 2.0020
 DoSCS=F DFT=T ScalE2(SS,OS)=  1.000000  1.000000
 Range of M.O.s used for correlation:     1   517
 NBasis=   517 NAE=    63 NBE=    63 NFC=     0 NFV=     0
 NROrb=    517 NOA=    63 NOB=    63 NVA=   454 NVB=   454

 **** Warning!!: The largest alpha MO coefficient is  0.62329612D+02

          Differentiating once with respect to magnetic field using GIAOs.
          Electric field/nuclear overlap derivatives assumed to be zero.
 FoFCou: FMM=F IPFlag=           0 FMFlag=      100000 FMFlg1=           0
         NFxFlg=           0 DoJE=F BraDBF=F KetDBF=T FulRan=T
         wScrn=  0.000000 ICntrl=      6100 IOpCl=  0 I1Cent=           7 NGrid=          25
         NMat0=    1 NMatS0=      1 NMatT0=    0 NMatD0=    1 NMtDS0=    0 NMtDT0=    0
 Symmetry not used in FoFCou.
   1 Symmetry operations used in ECPInt.
 ECPInt:  NShTT=   20706 NPrTT=   67180 LenC2=   20707 LenP2D=   67180.
 LDataN:  DoStor=T MaxTD1= 7 Len=  274
 FoFJK:  IHMeth= 1 ICntrl=    6127 DoSepK=F KAlg= 0 I1Cent=           0 FoldK=F
 IRaf=         1 NMat=       1 IRICut=       1 DoRegI=T DoRafI=F ISym2E= 0 IDoP0=0 IntGTp=1.
          There are     3 degrees of freedom in the 1st order CPHF.  IDoFFX=0 NUNeed=     3.
      3 vectors produced by pass  0 Test12= 9.53D-13 3.33D-08 XBig12= 2.88D+01 8.37D-01.
 AX will form     3 AO Fock derivatives at one time.
      3 vectors produced by pass  1 Test12= 9.53D-13 3.33D-08 XBig12= 1.05D-01 1.71D-01.
      3 vectors produced by pass  2 Test12= 9.53D-13 3.33D-08 XBig12= 1.18D-03 9.77D-03.
      3 vectors produced by pass  3 Test12= 9.53D-13 3.33D-08 XBig12= 6.22D-06 5.73D-04.
      3 vectors produced by pass  4 Test12= 9.53D-13 3.33D-08 XBig12= 3.52D-08 4.36D-05.
      3 vectors produced by pass  5 Test12= 9.53D-13 3.33D-08 XBig12= 1.28D-10 2.60D-06.
      3 vectors produced by pass  6 Test12= 9.53D-13 3.33D-08 XBig12= 3.82D-13 1.51D-07.
 InvSVY:  IOpt=1 It=  1 EMax= 8.88D-16
 Solved reduced A of dimension    21 with     3 vectors.
 Calculating GIAO nuclear magnetic shielding tensors.
 SCF GIAO Magnetic shielding tensor (ppm):
      1  O    Isotropic =  -239.6451   Anisotropy =   934.4765
   XX=  -359.6782   YX=  -107.1419   ZX=     0.1861
   XY=   -38.8463   YY=  -742.5960   ZY=     0.5181
   XZ=     0.1586   YZ=     0.7835   ZZ=   383.3388
   Eigenvalues:  -756.0391  -346.2355   383.3392
      2  C    Isotropic =   -24.2052   Anisotropy =   137.7726
   XX=  -104.0205   YX=   -28.7606   ZX=     0.0277
   XY=   -11.0695   YY=   -36.2383   ZY=     0.0239
   XZ=     0.0169   YZ=     0.0620   ZZ=    67.6432
   Eigenvalues:  -109.4386   -30.8202    67.6432
      3  C    Isotropic =    43.7481   Anisotropy =   161.9231
   XX=   -16.3425   YX=   -24.5018   ZX=    -0.0746
   XY=   -41.1001   YY=    -4.1100   ZY=    -0.0620
   XZ=    -0.0456   YZ=    -0.0068   ZZ=   151.6968
   Eigenvalues:   -43.5926    23.1401   151.6968
      4  C    Isotropic =    54.3503   Anisotropy =   162.0709
   XX=    32.3734   YX=    20.8472   ZX=    -0.0270
   XY=    25.2867   YY=   -31.7200   ZY=    -0.0186
   XZ=    -0.0351   YZ=    -0.0656   ZZ=   162.3976
   Eigenvalues:   -39.1585    39.8118   162.3976
      5  C    Isotropic =    43.0404   Anisotropy =   120.4456
   XX=   -33.1033   YX=    33.2500   ZX=    -0.0167
   XY=    35.9208   YY=    38.8870   ZY=    -0.0058
   XZ=    -0.0081   YZ=    -0.0173   ZZ=   123.3375
   Eigenvalues:   -47.0260    52.8097   123.3375
      6  Br   Isotropic =  2083.6740   Anisotropy =  1290.5900
   XX=  2817.2522   YX=  -382.6405   ZX=     0.1032
   XY=  -378.8312   YY=  1800.9875   ZY=    -0.0206
   XZ=     0.1541   YZ=    -0.1575   ZZ=  1632.7823
   Eigenvalues:  1632.7822  1674.1725  2944.0673
      7  C    Isotropic =    45.0991   Anisotropy =   161.3904
   XX=   -12.0980   YX=   -46.9793   ZX=    -0.0311
   XY=   -50.0174   YY=    -5.2974   ZY=    -0.0233
   XZ=    -0.0175   YZ=    -0.0196   ZZ=   152.6926
   Eigenvalues:   -57.3151    39.9197   152.6926
      8  C    Isotropic =    56.1158   Anisotropy =   168.5087
   XX=    41.7191   YX=    15.4667   ZX=    -0.0103
   XY=    17.0192   YY=   -41.8267   ZY=    -0.0227
   XZ=    -0.0177   YZ=    -0.0324   ZZ=   168.4549
   Eigenvalues:   -44.8736    44.7660   168.4549
      9  C    Isotropic =    29.3579   Anisotropy =   202.8859
   XX=   -61.3199   YX=    12.5385   ZX=    -0.0052
   XY=     7.4793   YY=   -15.2216   ZY=    -0.0475
   XZ=    -0.0495   YZ=    -0.0233   ZZ=   164.6151
   Eigenvalues:   -63.3992   -13.1423   164.6151
     10  C    Isotropic =   142.0146   Anisotropy =    39.0873
   XX=   147.3736   YX=    20.8898   ZX=    -0.0038
   XY=    18.6703   YY=   149.1709   ZY=    -0.0041
   XZ=     0.0218   YZ=    -0.0078   ZZ=   129.4991
   Eigenvalues:   128.4717   129.4992   168.0727
     11  C    Isotropic =   134.2758   Anisotropy =    31.2134
   XX=   138.4850   YX=   -10.6909   ZX=    -0.0116
   XY=   -27.8099   YY=   132.7601   ZY=     0.0043
   XZ=    -0.0090   YZ=     0.0002   ZZ=   131.5822
   Eigenvalues:   116.1605   131.5821   155.0847
     12  C    Isotropic =   152.8294   Anisotropy =    31.9789
   XX=   162.8376   YX=     9.7034   ZX=    17.8493
   XY=     2.2585   YY=   144.0298   ZY=   -14.0142
   XZ=    14.0758   YZ=    -3.1977   ZZ=   151.6208
   Eigenvalues:   131.5263   152.8132   174.1487
     13  C    Isotropic =   169.6792   Anisotropy =    13.3649
   XX=   166.2459   YX=     3.0893   ZX=     0.0067
   XY=    13.9372   YY=   164.2026   ZY=    -0.0110
   XZ=     0.0088   YZ=    -0.0063   ZZ=   178.5892
   Eigenvalues:   156.6499   173.7986   178.5892
     14  C    Isotropic =   152.8050   Anisotropy =    32.0249
   XX=   162.7945   YX=     9.7065   ZX=   -17.8815
   XY=     2.2653   YY=   143.9892   ZY=    13.9963
   XZ=   -14.1102   YZ=     3.1875   ZZ=   151.6312
   Eigenvalues:   131.4953   152.7647   174.1550
     15  H    Isotropic =    23.6912   Anisotropy =    10.3034
   XX=    29.7831   YX=     2.8520   ZX=     0.0015
   XY=     2.1353   YY=    22.5576   ZY=     0.0003
   XZ=     0.0024   YZ=    -0.0007   ZZ=    18.7330
   Eigenvalues:    18.7330    21.7806    30.5601
     16  H    Isotropic =    23.9668   Anisotropy =     9.8017
   XX=    25.2705   YX=    -4.2925   ZX=     0.0001
   XY=    -3.7617   YY=    27.4009   ZY=     0.0002
   XZ=     0.0002   YZ=     0.0001   ZZ=    19.2291
   Eigenvalues:    19.2291    22.1701    30.5013
     17  H    Isotropic =    24.2416   Anisotropy =     7.0828
   XX=    28.7878   YX=     1.4678   ZX=     0.0009
   XY=     0.4849   YY=    23.5382   ZY=    -0.0000
   XZ=     0.0011   YZ=     0.0011   ZZ=    20.3990
   Eigenvalues:    20.3990    23.3625    28.9635
     18  H    Isotropic =    28.4245   Anisotropy =     5.7175
   XX=    29.2732   YX=     1.2174   ZX=     0.8774
   XY=     0.8288   YY=    29.2748   ZY=    -2.7161
   XZ=     3.4694   YZ=    -5.1768   ZZ=    26.7255
   Eigenvalues:    22.9671    30.0701    32.2361
     19  H    Isotropic =    28.4249   Anisotropy =     5.7173
   XX=    29.2730   YX=     1.2178   ZX=    -0.8779
   XY=     0.8310   YY=    29.2741   ZY=     2.7150
   XZ=    -3.4714   YZ=     5.1778   ZZ=    26.7276
   Eigenvalues:    22.9670    30.0713    32.2365
     20  H    Isotropic =    30.1834   Anisotropy =     8.3368
   XX=    27.9484   YX=     0.0321   ZX=     0.8454
   XY=     0.6402   YY=    27.7849   ZY=    -1.3112
   XZ=     2.3566   YZ=    -3.1758   ZZ=    34.8170
   Eigenvalues:    26.5974    28.2117    35.7413
     21  H    Isotropic =    29.0693   Anisotropy =     5.6495
   XX=    28.0246   YX=     1.1675   ZX=     0.6118
   XY=     0.0450   YY=    30.3091   ZY=     1.7991
   XZ=     1.5439   YZ=     3.9673   ZZ=    28.8743
   Eigenvalues:    26.4538    27.9185    32.8357
     22  H    Isotropic =    30.0487   Anisotropy =    10.7669
   XX=    36.0459   YX=     3.7374   ZX=    -0.0034
   XY=     2.7053   YY=    28.4378   ZY=    -0.0009
   XZ=    -0.0042   YZ=    -0.0016   ZZ=    25.6624
   Eigenvalues:    25.6624    27.2571    37.2266
     23  H    Isotropic =    29.6962   Anisotropy =     7.2854
   XX=    31.5709   YX=    -3.6925   ZX=    -0.0026
   XY=    -2.3348   YY=    31.5077   ZY=     0.0022
   XZ=    -0.0031   YZ=     0.0027   ZZ=    26.0100
   Eigenvalues:    26.0100    28.5255    34.5531
     24  H    Isotropic =    30.1838   Anisotropy =     8.3363
   XX=    27.9479   YX=     0.0341   ZX=    -0.8400
   XY=     0.6411   YY=    27.7819   ZY=     1.3065
   XZ=    -2.3528   YZ=     3.1723   ZZ=    34.8215
   Eigenvalues:    26.5983    28.2117    35.7413
     25  H    Isotropic =    29.0686   Anisotropy =     5.6475
   XX=    28.0240   YX=     1.1648   ZX=    -0.6092
   XY=     0.0426   YY=    30.3106   ZY=    -1.7983
   XZ=    -1.5426   YZ=    -3.9675   ZZ=    28.8713
   Eigenvalues:    26.4527    27.9195    32.8337
 End of Minotr F.D. properties file   721 does not exist.
 End of Minotr F.D. properties file   722 does not exist.
 End of Minotr F.D. properties file   788 does not exist.

 **********************************************************************

            Population analysis using the SCF Density.

 **********************************************************************

 Orbital symmetries:
       Occupied  (A) (A) (A) (A) (A) (A) (A) (A) (A) (A) (A) (A)
                 (A) (A) (A) (A) (A) (A) (A) (A) (A) (A) (A) (A)
                 (A) (A) (A) (A) (A) (A) (A) (A) (A) (A) (A) (A)
                 (A) (A) (A) (A) (A) (A) (A) (A) (A) (A) (A) (A)
                 (A) (A) (A) (A) (A) (A) (A) (A) (A) (A) (A) (A)
                 (A) (A) (A)
       Virtual   (A) (A) (A) (A) (A) (A) (A) (A) (A) (A) (A) (A)
                 (A) (A) (A) (A) (A) (A) (A) (A) (A) (A) (A) (A)
                 (A) (A) (A) (A) (A) (A) (A) (A) (A) (A) (A) (A)
                 (A) (A) (A) (A) (A) (A) (A) (A) (A) (A) (A) (A)
                 (A) (A) (A) (A) (A) (A) (A) (A) (A) (A) (A) (A)
                 (A) (A) (A) (A) (A) (A) (A) (A) (A) (A) (A) (A)
                 (A) (A) (A) (A) (A) (A) (A) (A) (A) (A) (A) (A)
                 (A) (A) (A) (A) (A) (A) (A) (A) (A) (A) (A) (A)
                 (A) (A) (A) (A) (A) (A) (A) (A) (A) (A) (A) (A)
                 (A) (A) (A) (A) (A) (A) (A) (A) (A) (A) (A) (A)
                 (A) (A) (A) (A) (A) (A) (A) (A) (A) (A) (A) (A)
                 (A) (A) (A) (A) (A) (A) (A) (A) (A) (A) (A) (A)
                 (A) (A) (A) (A) (A) (A) (A) (A) (A) (A) (A) (A)
                 (A) (A) (A) (A) (A) (A) (A) (A) (A) (A) (A) (A)
                 (A) (A) (A) (A) (A) (A) (A) (A) (A) (A) (A) (A)
                 (A) (A) (A) (A) (A) (A) (A) (A) (A) (A) (A) (A)
                 (A) (A) (A) (A) (A) (A) (A) (A) (A) (A) (A) (A)
                 (A) (A) (A) (A) (A) (A) (A) (A) (A) (A) (A) (A)
                 (A) (A) (A) (A) (A) (A) (A) (A) (A) (A) (A) (A)
                 (A) (A) (A) (A) (A) (A) (A) (A) (A) (A) (A) (A)
                 (A) (A) (A) (A) (A) (A) (A) (A) (A) (A) (A) (A)
                 (A) (A) (A) (A) (A) (A) (A) (A) (A) (A) (A) (A)
                 (A) (A) (A) (A) (A) (A) (A) (A) (A) (A) (A) (A)
                 (A) (A) (A) (A) (A) (A) (A) (A) (A) (A) (A) (A)
                 (A) (A) (A) (A) (A) (A) (A) (A) (A) (A) (A) (A)
                 (A) (A) (A) (A) (A) (A) (A) (A) (A) (A) (A) (A)
                 (A) (A) (A) (A) (A) (A) (A) (A) (A) (A) (A) (A)
                 (A) (A) (A) (A) (A) (A) (A) (A) (A) (A) (A) (A)
                 (A) (A) (A) (A) (A) (A) (A) (A) (A) (A) (A) (A)
                 (A) (A) (A) (A) (A) (A) (A) (A) (A) (A) (A) (A)
                 (A) (A) (A) (A) (A) (A) (A) (A) (A) (A) (A) (A)
                 (A) (A) (A) (A) (A) (A) (A) (A) (A) (A) (A) (A)
                 (A) (A) (A) (A) (A) (A) (A) (A) (A) (A) (A) (A)
                 (A) (A) (A) (A) (A) (A) (A) (A) (A) (A) (A) (A)
                 (A) (A) (A) (A) (A) (A) (A) (A) (A) (A) (A) (A)
                 (A) (A) (A) (A) (A) (A) (A) (A) (A) (A) (A) (A)
                 (A) (A) (A) (A) (A) (A) (A) (A) (A) (A) (A) (A)
                 (A) (A) (A) (A) (A) (A) (A) (A) (A) (A)
 The electronic state is 1-A.
 Alpha  occ. eigenvalues -- -483.34998 -62.68098 -56.46126 -56.45782 -56.45772
 Alpha  occ. eigenvalues --  -19.21054 -10.32120 -10.30923 -10.26924 -10.26896
 Alpha  occ. eigenvalues --  -10.26505 -10.26234 -10.25970 -10.25601 -10.25531
 Alpha  occ. eigenvalues --  -10.24170 -10.24169 -10.23783  -8.78503  -6.59778
 Alpha  occ. eigenvalues --   -6.58678  -6.58644  -2.68440  -2.68115  -2.68090
 Alpha  occ. eigenvalues --   -2.67190  -2.67190  -1.07800  -0.93133  -0.89790
 Alpha  occ. eigenvalues --   -0.85663  -0.81223  -0.79371  -0.72870  -0.70871
 Alpha  occ. eigenvalues --   -0.69272  -0.65752  -0.62474  -0.59192  -0.55435
 Alpha  occ. eigenvalues --   -0.52097  -0.51539  -0.50992  -0.48356  -0.48322
 Alpha  occ. eigenvalues --   -0.47334  -0.46144  -0.43473  -0.43136  -0.41372
 Alpha  occ. eigenvalues --   -0.41328  -0.39788  -0.39546  -0.37503  -0.36494
 Alpha  occ. eigenvalues --   -0.35070  -0.33490  -0.33358  -0.32270  -0.31069
 Alpha  occ. eigenvalues --   -0.29249  -0.26570  -0.26432
 Alpha virt. eigenvalues --   -0.06945  -0.02959   0.00124   0.02734   0.03817
 Alpha virt. eigenvalues --    0.05756   0.06982   0.07517   0.08309   0.08477
 Alpha virt. eigenvalues --    0.09466   0.10550   0.11639   0.12390   0.13344
 Alpha virt. eigenvalues --    0.14279   0.14294   0.15611   0.16517   0.16569
 Alpha virt. eigenvalues --    0.18072   0.18285   0.18828   0.19308   0.20345
 Alpha virt. eigenvalues --    0.20612   0.20869   0.21937   0.22609   0.23010
 Alpha virt. eigenvalues --    0.23533   0.24350   0.24579   0.26006   0.26312
 Alpha virt. eigenvalues --    0.26935   0.27737   0.28416   0.28908   0.29471
 Alpha virt. eigenvalues --    0.30364   0.31487   0.31604   0.32713   0.33069
 Alpha virt. eigenvalues --    0.34492   0.35160   0.35410   0.35795   0.36391
 Alpha virt. eigenvalues --    0.37380   0.37535   0.38155   0.38801   0.38875
 Alpha virt. eigenvalues --    0.40805   0.41237   0.41718   0.42101   0.43160
 Alpha virt. eigenvalues --    0.43913   0.43915   0.44528   0.44900   0.45184
 Alpha virt. eigenvalues --    0.46149   0.46225   0.46413   0.48110   0.48690
 Alpha virt. eigenvalues --    0.49528   0.49690   0.50364   0.51000   0.51276
 Alpha virt. eigenvalues --    0.52120   0.53783   0.55278   0.55500   0.56606
 Alpha virt. eigenvalues --    0.57801   0.57873   0.58393   0.60800   0.61983
 Alpha virt. eigenvalues --    0.62476   0.64467   0.65781   0.67172   0.67198
 Alpha virt. eigenvalues --    0.67697   0.68610   0.69572   0.71125   0.71179
 Alpha virt. eigenvalues --    0.72193   0.73320   0.76354   0.77425   0.77598
 Alpha virt. eigenvalues --    0.78415   0.80659   0.81636   0.81657   0.83191
 Alpha virt. eigenvalues --    0.83369   0.86084   0.87068   0.88772   0.90497
 Alpha virt. eigenvalues --    0.90689   0.92723   0.93744   0.93769   0.94118
 Alpha virt. eigenvalues --    0.94751   0.96405   0.97603   0.98317   0.99133
 Alpha virt. eigenvalues --    0.99806   1.00385   1.02476   1.02618   1.04310
 Alpha virt. eigenvalues --    1.05250   1.06747   1.08405   1.08507   1.09227
 Alpha virt. eigenvalues --    1.11581   1.11631   1.13282   1.14197   1.14500
 Alpha virt. eigenvalues --    1.15958   1.18754   1.19043   1.19371   1.20119
 Alpha virt. eigenvalues --    1.20617   1.21247   1.22763   1.23277   1.26514
 Alpha virt. eigenvalues --    1.27029   1.27183   1.29652   1.30304   1.31864
 Alpha virt. eigenvalues --    1.32743   1.35644   1.36249   1.36385   1.37718
 Alpha virt. eigenvalues --    1.38188   1.38858   1.39009   1.42368   1.43655
 Alpha virt. eigenvalues --    1.43879   1.44410   1.47088   1.47216   1.49497
 Alpha virt. eigenvalues --    1.49903   1.51099   1.52600   1.53823   1.55196
 Alpha virt. eigenvalues --    1.55221   1.55975   1.56450   1.57852   1.58540
 Alpha virt. eigenvalues --    1.60969   1.61058   1.61595   1.62828   1.63287
 Alpha virt. eigenvalues --    1.64740   1.65268   1.66142   1.67814   1.68082
 Alpha virt. eigenvalues --    1.69577   1.70738   1.72073   1.72649   1.72663
 Alpha virt. eigenvalues --    1.74638   1.76032   1.76150   1.77785   1.79497
 Alpha virt. eigenvalues --    1.80325   1.80725   1.81072   1.82210   1.84520
 Alpha virt. eigenvalues --    1.87211   1.87702   1.88911   1.89446   1.91530
 Alpha virt. eigenvalues --    1.92128   1.92154   1.94865   1.96795   1.97154
 Alpha virt. eigenvalues --    1.99678   2.01279   2.03624   2.04607   2.07426
 Alpha virt. eigenvalues --    2.07486   2.08782   2.13294   2.14328   2.15344
 Alpha virt. eigenvalues --    2.15404   2.17001   2.18054   2.20215   2.21275
 Alpha virt. eigenvalues --    2.21854   2.22123   2.28380   2.29938   2.30181
 Alpha virt. eigenvalues --    2.31955   2.33275   2.34364   2.35727   2.37562
 Alpha virt. eigenvalues --    2.37841   2.41461   2.42487   2.42787   2.43079
 Alpha virt. eigenvalues --    2.46524   2.49219   2.49804   2.50138   2.51160
 Alpha virt. eigenvalues --    2.53050   2.54488   2.55952   2.57177   2.59185
 Alpha virt. eigenvalues --    2.59498   2.60164   2.61824   2.62803   2.63475
 Alpha virt. eigenvalues --    2.63696   2.64097   2.66071   2.66769   2.67360
 Alpha virt. eigenvalues --    2.69074   2.70483   2.71091   2.72008   2.73697
 Alpha virt. eigenvalues --    2.73915   2.75536   2.77282   2.77543   2.79709
 Alpha virt. eigenvalues --    2.79730   2.80697   2.81223   2.83532   2.85073
 Alpha virt. eigenvalues --    2.85239   2.86705   2.87630   2.88778   2.90343
 Alpha virt. eigenvalues --    2.91145   2.93570   2.93896   2.95903   2.96128
 Alpha virt. eigenvalues --    2.96426   2.99995   3.00799   3.00930   3.01586
 Alpha virt. eigenvalues --    3.02533   3.03044   3.05685   3.05817   3.08091
 Alpha virt. eigenvalues --    3.08581   3.09302   3.12211   3.15087   3.15495
 Alpha virt. eigenvalues --    3.15595   3.16592   3.17388   3.18297   3.18779
 Alpha virt. eigenvalues --    3.20753   3.21712   3.22158   3.23610   3.25741
 Alpha virt. eigenvalues --    3.26274   3.26810   3.27519   3.28520   3.29983
 Alpha virt. eigenvalues --    3.31460   3.32063   3.33786   3.33849   3.34907
 Alpha virt. eigenvalues --    3.36483   3.38337   3.38582   3.39002   3.39271
 Alpha virt. eigenvalues --    3.42771   3.43691   3.44182   3.44758   3.46122
 Alpha virt. eigenvalues --    3.46762   3.47590   3.48954   3.50100   3.51182
 Alpha virt. eigenvalues --    3.54264   3.55151   3.56752   3.57350   3.57914
 Alpha virt. eigenvalues --    3.58798   3.59325   3.63845   3.63956   3.64828
 Alpha virt. eigenvalues --    3.67995   3.69583   3.70096   3.72535   3.75478
 Alpha virt. eigenvalues --    3.76770   3.77529   3.78945   3.80343   3.81988
 Alpha virt. eigenvalues --    3.83755   3.85905   3.85949   3.87061   3.90014
 Alpha virt. eigenvalues --    3.90848   3.92069   3.98412   4.01779   4.02161
 Alpha virt. eigenvalues --    4.02876   4.02975   4.05282   4.06956   4.07445
 Alpha virt. eigenvalues --    4.08525   4.09283   4.12337   4.12976   4.14027
 Alpha virt. eigenvalues --    4.15321   4.18510   4.18570   4.19612   4.21710
 Alpha virt. eigenvalues --    4.23508   4.23986   4.24652   4.25757   4.27240
 Alpha virt. eigenvalues --    4.29736   4.31948   4.32732   4.34424   4.35512
 Alpha virt. eigenvalues --    4.36582   4.37810   4.39391   4.44674   4.44993
 Alpha virt. eigenvalues --    4.47657   4.49846   4.51385   4.51954   4.55226
 Alpha virt. eigenvalues --    4.56618   4.61120   4.62407   4.65023   4.69319
 Alpha virt. eigenvalues --    4.72088   4.73083   4.75694   4.76179   4.79343
 Alpha virt. eigenvalues --    4.84189   4.87070   4.88133   4.92679   4.95074
 Alpha virt. eigenvalues --    4.97510   5.02052   5.07066   5.09957   5.17621
 Alpha virt. eigenvalues --    5.18823   5.22207   5.22611   5.28995   5.32613
 Alpha virt. eigenvalues --    5.35557   5.45128   5.51788   5.58467   5.66156
 Alpha virt. eigenvalues --    5.74453   5.86336   6.21407   6.42725   6.51663
 Alpha virt. eigenvalues --    6.65190   6.78257   6.85756   7.12426   7.16636
 Alpha virt. eigenvalues --    7.79186  22.17104  22.46193  22.56797  22.63716
 Alpha virt. eigenvalues --   22.66152  22.74365  22.80490  22.86205  23.00969
 Alpha virt. eigenvalues --   23.06070  23.54496  23.70111  44.10559
          Condensed to atoms (all electrons):
               1          2          3          4          5          6
     1  O    7.773517   0.722331  -0.180350   0.048832   0.001625   0.000039
     2  C    0.722331   5.068673  -0.050149  -0.042603   0.006343  -0.001130
     3  C   -0.180350  -0.050149   5.838286   0.126731   0.059304   0.010835
     4  C    0.048832  -0.042603   0.126731   5.552218   0.324315  -0.075768
     5  C    0.001625   0.006343   0.059304   0.324315   4.890224   0.325267
     6  Br   0.000039  -0.001130   0.010835  -0.075768   0.325267  34.888201
     7  C    0.000192  -0.000671  -0.119481   0.060018   0.345095  -0.072126
     8  C    0.000113   0.017405   0.005296  -0.104339   0.092295   0.017711
     9  C    0.000111  -0.016865   0.472342  -0.118512  -0.090226  -0.001093
    10  C    0.010404  -0.064432  -0.101981  -0.004140  -0.000616   0.000026
    11  C   -0.118061   0.265860  -0.129120   0.071883  -0.003954   0.000022
    12  C    0.003060  -0.013513   0.028436  -0.003454   0.000247  -0.000001
    13  C   -0.003915   0.008254  -0.007565   0.000751  -0.000036   0.000000
    14  C    0.003051  -0.013804   0.028491  -0.003449   0.000247  -0.000001
    15  H    0.011230   0.000222  -0.089802   0.477232  -0.074040  -0.002230
    16  H   -0.000001   0.000167  -0.003623   0.016359  -0.066327  -0.002646
    17  H    0.000011   0.000794   0.016279  -0.002186   0.010945  -0.000424
    18  H   -0.000259   0.001032  -0.000859   0.001182  -0.000066  -0.000001
    19  H   -0.000258   0.001171  -0.000976   0.001177  -0.000065  -0.000001
    20  H    0.000354   0.000765   0.003029   0.000048  -0.000000   0.000000
    21  H    0.013811  -0.017285   0.001693  -0.000775  -0.000017  -0.000000
    22  H    0.000290   0.000921   0.000407  -0.000011   0.000000  -0.000000
    23  H   -0.000020  -0.001408  -0.000464  -0.000005   0.000001  -0.000000
    24  H    0.000355   0.000823   0.003021   0.000047  -0.000000   0.000000
    25  H    0.013835  -0.017299   0.001680  -0.000776  -0.000017  -0.000000
               7          8          9         10         11         12
     1  O    0.000192   0.000113   0.000111   0.010404  -0.118061   0.003060
     2  C   -0.000671   0.017405  -0.016865  -0.064432   0.265860  -0.013513
     3  C   -0.119481   0.005296   0.472342  -0.101981  -0.129120   0.028436
     4  C    0.060018  -0.104339  -0.118512  -0.004140   0.071883  -0.003454
     5  C    0.345095   0.092295  -0.090226  -0.000616  -0.003954   0.000247
     6  Br  -0.072126   0.017711  -0.001093   0.000026   0.000022  -0.000001
     7  C    5.087187   0.345993   0.053480   0.011309   0.001292   0.000004
     8  C    0.345993   5.230697   0.349113  -0.095730   0.000054  -0.000161
     9  C    0.053480   0.349113   5.113697   0.392143  -0.111354  -0.010158
    10  C    0.011309  -0.095730   0.392143   5.121698   0.276200   0.010481
    11  C    0.001292   0.000054  -0.111354   0.276200   5.162941   0.259278
    12  C    0.000004  -0.000161  -0.010158   0.010481   0.259278   5.009452
    13  C    0.000009  -0.000136   0.001500   0.000283  -0.096031   0.344189
    14  C    0.000004  -0.000159  -0.010201   0.010404   0.259738  -0.107458
    15  H    0.015345  -0.003488   0.008097  -0.001408   0.003407  -0.000171
    16  H    0.452652  -0.073128   0.015019  -0.000354   0.000045  -0.000002
    17  H   -0.065950   0.463355  -0.077506  -0.012404   0.000822  -0.000116
    18  H   -0.000321   0.001414  -0.008424   0.333520  -0.001126  -0.010494
    19  H   -0.000319   0.001431  -0.008439   0.333740  -0.001336   0.001593
    20  H   -0.000002  -0.000236  -0.003413  -0.006122  -0.043141   0.399734
    21  H    0.000006   0.000090   0.001472   0.007168  -0.009440   0.368040
    22  H    0.000000  -0.000005  -0.000183  -0.000367  -0.001812  -0.009267
    23  H   -0.000003   0.000072   0.002035  -0.001236   0.013365  -0.027288
    24  H   -0.000002  -0.000236  -0.003412  -0.006088  -0.043244   0.021746
    25  H    0.000006   0.000090   0.001475   0.007169  -0.009375  -0.001588
              13         14         15         16         17         18
     1  O   -0.003915   0.003051   0.011230  -0.000001   0.000011  -0.000259
     2  C    0.008254  -0.013804   0.000222   0.000167   0.000794   0.001032
     3  C   -0.007565   0.028491  -0.089802  -0.003623   0.016279  -0.000859
     4  C    0.000751  -0.003449   0.477232   0.016359  -0.002186   0.001182
     5  C   -0.000036   0.000247  -0.074040  -0.066327   0.010945  -0.000066
     6  Br   0.000000  -0.000001  -0.002230  -0.002646  -0.000424  -0.000001
     7  C    0.000009   0.000004   0.015345   0.452652  -0.065950  -0.000321
     8  C   -0.000136  -0.000159  -0.003488  -0.073128   0.463355   0.001414
     9  C    0.001500  -0.010201   0.008097   0.015019  -0.077506  -0.008424
    10  C    0.000283   0.010404  -0.001408  -0.000354  -0.012404   0.333520
    11  C   -0.096031   0.259738   0.003407   0.000045   0.000822  -0.001126
    12  C    0.344189  -0.107458  -0.000171  -0.000002  -0.000116  -0.010494
    13  C    4.891657   0.344309   0.000023   0.000000   0.000011   0.000043
    14  C    0.344309   5.009146  -0.000171  -0.000002  -0.000116   0.001588
    15  H    0.000023  -0.000171   0.511646  -0.000020   0.000106   0.000057
    16  H    0.000000  -0.000002  -0.000020   0.535827  -0.008876  -0.000007
    17  H    0.000011  -0.000116   0.000106  -0.008876   0.558578   0.002256
    18  H    0.000043   0.001588   0.000057  -0.000007   0.002256   0.586491
    19  H    0.000025  -0.010451   0.000057  -0.000007   0.002252  -0.025625
    20  H   -0.033124   0.021733   0.000000  -0.000000  -0.000002   0.003516
    21  H   -0.016256  -0.001587  -0.000046   0.000000  -0.000003   0.000432
    22  H    0.380468  -0.009279  -0.000000  -0.000000  -0.000000  -0.000054
    23  H    0.388662  -0.027285  -0.000000   0.000000   0.000005  -0.000220
    24  H   -0.033165   0.399784   0.000000  -0.000000  -0.000002   0.000205
    25  H   -0.016255   0.367997  -0.000046   0.000000  -0.000003  -0.000630
              19         20         21         22         23         24
     1  O   -0.000258   0.000354   0.013811   0.000290  -0.000020   0.000355
     2  C    0.001171   0.000765  -0.017285   0.000921  -0.001408   0.000823
     3  C   -0.000976   0.003029   0.001693   0.000407  -0.000464   0.003021
     4  C    0.001177   0.000048  -0.000775  -0.000011  -0.000005   0.000047
     5  C   -0.000065  -0.000000  -0.000017   0.000000   0.000001  -0.000000
     6  Br  -0.000001   0.000000  -0.000000  -0.000000  -0.000000   0.000000
     7  C   -0.000319  -0.000002   0.000006   0.000000  -0.000003  -0.000002
     8  C    0.001431  -0.000236   0.000090  -0.000005   0.000072  -0.000236
     9  C   -0.008439  -0.003413   0.001472  -0.000183   0.002035  -0.003412
    10  C    0.333740  -0.006122   0.007168  -0.000367  -0.001236  -0.006088
    11  C   -0.001336  -0.043141  -0.009440  -0.001812   0.013365  -0.043244
    12  C    0.001593   0.399734   0.368040  -0.009267  -0.027288   0.021746
    13  C    0.000025  -0.033124  -0.016256   0.380468   0.388662  -0.033165
    14  C   -0.010451   0.021733  -0.001587  -0.009279  -0.027285   0.399784
    15  H    0.000057   0.000000  -0.000046  -0.000000  -0.000000   0.000000
    16  H   -0.000007  -0.000000   0.000000  -0.000000   0.000000  -0.000000
    17  H    0.002252  -0.000002  -0.000003  -0.000000   0.000005  -0.000002
    18  H   -0.025625   0.003516   0.000432  -0.000054  -0.000220   0.000205
    19  H    0.586412   0.000206  -0.000630  -0.000054  -0.000219   0.003504
    20  H    0.000206   0.584202  -0.022824   0.002783  -0.009467  -0.000905
    21  H   -0.000630  -0.022824   0.560195  -0.009593   0.005394  -0.001010
    22  H   -0.000054   0.002783  -0.009593   0.580731  -0.028335   0.002784
    23  H   -0.000219  -0.009467   0.005394  -0.028335   0.598769  -0.009466
    24  H    0.003504  -0.000905  -0.001010   0.002784  -0.009466   0.584189
    25  H    0.000432  -0.001010   0.004566  -0.009591   0.005393  -0.022819
              25
     1  O    0.013835
     2  C   -0.017299
     3  C    0.001680
     4  C   -0.000776
     5  C   -0.000017
     6  Br  -0.000000
     7  C    0.000006
     8  C    0.000090
     9  C    0.001475
    10  C    0.007169
    11  C   -0.009375
    12  C   -0.001588
    13  C   -0.016255
    14  C    0.367997
    15  H   -0.000046
    16  H    0.000000
    17  H   -0.000003
    18  H   -0.000630
    19  H    0.000432
    20  H   -0.001010
    21  H    0.004566
    22  H   -0.009591
    23  H    0.005393
    24  H   -0.022819
    25  H    0.560160
 Mulliken charges:
               1
     1  O   -0.300296
     2  C    0.144399
     3  C    0.088539
     4  C   -0.324775
     5  C    0.179456
     6  Br  -0.086680
     7  C   -0.113718
     8  C   -0.247510
     9  C    0.049302
    10  C   -0.219668
    11  C    0.253086
    12  C   -0.262590
    13  C   -0.153701
    14  C   -0.262531
    15  H    0.143999
    16  H    0.134922
    17  H    0.112179
    18  H    0.116351
    19  H    0.116382
    20  H    0.103874
    21  H    0.116598
    22  H    0.100167
    23  H    0.091723
    24  H    0.103887
    25  H    0.116607
 Sum of Mulliken charges =  -0.00000
 Mulliken charges with hydrogens summed into heavy atoms:
               1
     1  O   -0.300296
     2  C    0.144399
     3  C    0.088539
     4  C   -0.180776
     5  C    0.179456
     6  Br  -0.086680
     7  C    0.021203
     8  C   -0.135332
     9  C    0.049302
    10  C    0.013065
    11  C    0.253086
    12  C   -0.042118
    13  C    0.038189
    14  C   -0.042037
 Electronic spatial extent (au):  <R**2>=           4844.0926
 Charge=             -0.0000 electrons
 Dipole moment (field-independent basis, Debye):
    X=             -1.4792    Y=              3.7309    Z=             -0.0004  Tot=              4.0134
 Quadrupole moment (field-independent basis, Debye-Ang):
   XX=            -91.4495   YY=            -94.3495   ZZ=            -94.8223
   XY=             -4.0862   XZ=              0.0004   YZ=              0.0017
 Traceless Quadrupole moment (field-independent basis, Debye-Ang):
   XX=              2.0910   YY=             -0.8091   ZZ=             -1.2819
   XY=             -4.0862   XZ=              0.0004   YZ=              0.0017
 Octapole moment (field-independent basis, Debye-Ang**2):
  XXX=             87.5166  YYY=             12.9576  ZZZ=              0.0069  XYY=             51.5916
  XXY=              1.9513  XXZ=              0.0058  XZZ=             30.9853  YZZ=             -7.8175
  YYZ=              0.0040  XYZ=              0.0011
 Hexadecapole moment (field-independent basis, Debye-Ang**3):
 XXXX=          -4669.9031 YYYY=           -764.3902 ZZZZ=           -233.0188 XXXY=            -30.4441
 XXXZ=              0.0103 YYYX=            -57.9616 YYYZ=              0.0015 ZZZX=              0.0179
 ZZZY=              0.0009 XXYY=           -905.9381 XXZZ=           -839.1593 YYZZ=           -168.0359
 XXYZ=             -0.0009 YYXZ=              0.0062 ZZXY=            -15.2423
 N-N= 1.115883190781D+03 E-N=-9.637654301961D+03  KE= 3.107282355443D+03
 Unable to Open any file for archive entry.
 1\1\GINC-DYNAMO\SP\RmPW1PW91\def2TZVP\C12H11Br1O1\RPATON\23-Sep-2024\0
 \\# nmr=giao mpw1pw91/def2tzvp\\arbr39_wb97xd_nmrcreated by GaussianPr
 ep\\0,1\O,0,1.720941,-2.192944,0.000132\C,0,1.611331,-0.993249,0.00100
 6\C,0,0.351364,-0.218033,0.000468\C,0,-0.948663,-0.704047,0.000275\C,0
 ,-1.971272,0.222022,0.000026\Br,0,-3.772177,-0.366488,-0.000154\C,0,-1
 .707982,1.591534,-0.000054\C,0,-0.402866,2.053964,0.000067\C,0,0.63804
 9,1.136408,0.000292\C,0,2.122149,1.39311,0.000193\C,0,2.76888,-0.00364
 8,0.00018\C,0,3.867979,-0.2447,1.070207\C,0,4.940841,0.028426,-0.00078
 1\C,0,3.867042,-0.24516,-1.070709\H,0,-1.137236,-1.769394,0.000418\H,0
 ,-2.53261,2.291633,-0.000259\H,0,-0.209725,3.119816,-0.000093\H,0,2.41
 2607,1.976191,0.877301\H,0,2.412443,1.976061,-0.877057\H,0,3.840998,0.
 396383,1.951219\H,0,3.865614,-1.29024,1.379328\H,0,5.825074,-0.6067,-0
 .001027\H,0,5.25669,1.072396,-0.001147\H,0,3.8393,0.395537,-1.951978\H
 ,0,3.864416,-1.290836,-1.379372\\Version=ES64L-G16RevC.01\State=1-A\HF
 =-3113.5246232\RMSD=4.633e-09\Dipole=0.5819684,1.4678303,0.0001432\Qua
 drupole=1.5545716,-0.6015358,-0.9530359,3.0379886,0.0003127,-0.001277\
 PG=C01 [X(C12H11Br1O1)]\\@
 The archive entry for this job was punched.


 A SCIENTIST IS SOMEONE WHOSE CURIOSITY SURVIVES
 EDUCATION'S ASSAULTS ON IT.
                          - SIR HERMANN BONDI
 Job cpu time:       0 days  1 hours 18 minutes  8.1 seconds.
 Elapsed time:       0 days  0 hours  3 minutes 24.7 seconds.
 File lengths (MBytes):  RWF=    162 Int=      0 D2E=      0 Chk=     22 Scr=      1
 Normal termination of Gaussian 16 at Mon Sep 23 23:50:28 2024.
