 Entering Gaussian System, Link 0=/usr/local/Gaussian/G16C/g16/g16
 Input=arbr32_wb97xd_nmr.com
 Output=arbr32_wb97xd_nmr.log
 Initial command:
 /usr/local/Gaussian/G16C/g16/l1.exe "/home/rpaton/opt/tzvp/nmr/Gau-3119900.inp" -scrdir="/home/rpaton/opt/tzvp/nmr/"
 Entering Link 1 = /usr/local/Gaussian/G16C/g16/l1.exe PID=   3119901.
  
 Copyright (c) 1988-2019, Gaussian, Inc.  All Rights Reserved.
  
 This is part of the Gaussian(R) 16 program.  It is based on
 the Gaussian(R) 09 system (copyright 2009, Gaussian, Inc.),
 the Gaussian(R) 03 system (copyright 2003, Gaussian, Inc.),
 the Gaussian(R) 98 system (copyright 1998, Gaussian, Inc.),
 the Gaussian(R) 94 system (copyright 1995, Gaussian, Inc.),
 the Gaussian 92(TM) system (copyright 1992, Gaussian, Inc.),
 the Gaussian 90(TM) system (copyright 1990, Gaussian, Inc.),
 the Gaussian 88(TM) system (copyright 1988, Gaussian, Inc.),
 the Gaussian 86(TM) system (copyright 1986, Carnegie Mellon
 University), and the Gaussian 82(TM) system (copyright 1983,
 Carnegie Mellon University). Gaussian is a federally registered
 trademark of Gaussian, Inc.
  
 This software contains proprietary and confidential information,
 including trade secrets, belonging to Gaussian, Inc.
  
 This software is provided under written license and may be
 used, copied, transmitted, or stored only in accord with that
 written license.
  
 The following legend is applicable only to US Government
 contracts under FAR:
  
                    RESTRICTED RIGHTS LEGEND
  
 Use, reproduction and disclosure by the US Government is
 subject to restrictions as set forth in subparagraphs (a)
 and (c) of the Commercial Computer Software - Restricted
 Rights clause in FAR 52.227-19.
  
 Gaussian, Inc.
 340 Quinnipiac St., Bldg. 40, Wallingford CT 06492
  
  
 ---------------------------------------------------------------
 Warning -- This program may not be used in any manner that
 competes with the business of Gaussian, Inc. or will provide
 assistance to any competitor of Gaussian, Inc.  The licensee
 of this program is prohibited from giving any competitor of
 Gaussian, Inc. access to this program.  By using this program,
 the user acknowledges that Gaussian, Inc. is engaged in the
 business of creating and licensing software in the field of
 computational chemistry and represents and warrants to the
 licensee that it is not a competitor of Gaussian, Inc. and that
 it will not use this program in any manner prohibited above.
 ---------------------------------------------------------------
  

 Cite this work as:
 Gaussian 16, Revision C.01,
 M. J. Frisch, G. W. Trucks, H. B. Schlegel, G. E. Scuseria, 
 M. A. Robb, J. R. Cheeseman, G. Scalmani, V. Barone, 
 G. A. Petersson, H. Nakatsuji, X. Li, M. Caricato, A. V. Marenich, 
 J. Bloino, B. G. Janesko, R. Gomperts, B. Mennucci, H. P. Hratchian, 
 J. V. Ortiz, A. F. Izmaylov, J. L. Sonnenberg, D. Williams-Young, 
 F. Ding, F. Lipparini, F. Egidi, J. Goings, B. Peng, A. Petrone, 
 T. Henderson, D. Ranasinghe, V. G. Zakrzewski, J. Gao, N. Rega, 
 G. Zheng, W. Liang, M. Hada, M. Ehara, K. Toyota, R. Fukuda, 
 J. Hasegawa, M. Ishida, T. Nakajima, Y. Honda, O. Kitao, H. Nakai, 
 T. Vreven, K. Throssell, J. A. Montgomery, Jr., J. E. Peralta, 
 F. Ogliaro, M. J. Bearpark, J. J. Heyd, E. N. Brothers, K. N. Kudin, 
 V. N. Staroverov, T. A. Keith, R. Kobayashi, J. Normand, 
 K. Raghavachari, A. P. Rendell, J. C. Burant, S. S. Iyengar, 
 J. Tomasi, M. Cossi, J. M. Millam, M. Klene, C. Adamo, R. Cammi, 
 J. W. Ochterski, R. L. Martin, K. Morokuma, O. Farkas, 
 J. B. Foresman, and D. J. Fox, Gaussian, Inc., Wallingford CT, 2019.
 
 ******************************************
 Gaussian 16:  ES64L-G16RevC.01  3-Jul-2019
                23-Sep-2024 
 ******************************************
 %chk=arbr32_wb97xd_nmr.chk
 %mem=48GB
 %nprocshared=24
 Will use up to   24 processors via shared memory.
 ----------------------------
 # nmr=giao mpw1pw91/def2tzvp
 ----------------------------
 1/38=1,172=1/1;
 2/12=2,17=6,18=5,40=1/2;
 3/5=44,7=101,11=2,25=1,30=1,74=-7/1,2,3,8;
 4//1;
 5/5=2,38=5/2;
 8/6=1,10=90,11=11/1;
 10/13=100,45=16/2;
 6/7=2,8=2,9=2,10=2,28=1/1;
 99/9=1/99;
 ----------------------------------------
 arbr32_wb97xd_nmrcreated by GaussianPrep
 ----------------------------------------
 Symbolic Z-matrix:
 Charge =  0 Multiplicity = 1
 O                    -3.3319    1.88523  -0.22502 
 C                    -2.85478   0.79794  -0.06833 
 O                    -3.663    -0.274     0.02862 
 C                    -3.12014  -1.52172   0.4598 
 C                    -1.85205  -1.8707   -0.28889 
 C                    -0.87494  -0.74172  -0.14178 
 C                     0.49865  -0.93639  -0.1395 
 C                     1.34076   0.1532   -0.00105 
 Br                    3.21181  -0.12343   0.01224 
 C                     0.8428    1.44165   0.13128 
 C                    -0.52536   1.63198   0.12018 
 C                    -1.38492   0.54799  -0.01156 
 H                    -3.90753  -2.25197   0.2854 
 H                    -2.92654  -1.46937   1.5357 
 H                    -1.43798  -2.80148   0.10167 
 H                    -2.08039  -2.03197  -1.34672 
 H                     0.90848  -1.93292  -0.23986 
 H                     1.51669   2.27996   0.23794 
 H                    -0.94701   2.62447   0.20777 
 
                          Input orientation:                          
 ---------------------------------------------------------------------
 Center     Atomic      Atomic             Coordinates (Angstroms)
 Number     Number       Type             X           Y           Z
 ---------------------------------------------------------------------
      1          8           0       -3.331901    1.885234   -0.225017
      2          6           0       -2.854776    0.797941   -0.068330
      3          8           0       -3.662999   -0.273997    0.028617
      4          6           0       -3.120143   -1.521715    0.459800
      5          6           0       -1.852047   -1.870697   -0.288894
      6          6           0       -0.874939   -0.741721   -0.141779
      7          6           0        0.498647   -0.936394   -0.139498
      8          6           0        1.340758    0.153195   -0.001053
      9         35           0        3.211811   -0.123427    0.012241
     10          6           0        0.842795    1.441648    0.131283
     11          6           0       -0.525361    1.631977    0.120176
     12          6           0       -1.384917    0.547987   -0.011561
     13          1           0       -3.907533   -2.251965    0.285399
     14          1           0       -2.926537   -1.469372    1.535704
     15          1           0       -1.437976   -2.801481    0.101666
     16          1           0       -2.080394   -2.031969   -1.346719
     17          1           0        0.908478   -1.932916   -0.239860
     18          1           0        1.516693    2.279957    0.237939
     19          1           0       -0.947006    2.624467    0.207773
 ---------------------------------------------------------------------
                    Distance matrix (angstroms):
                    1          2          3          4          5
     1  O    0.000000
     2  C    1.197667   0.000000
     3  O    2.199144   1.345984   0.000000
     4  C    3.481539   2.393772   1.427379   0.000000
     5  C    4.037458   2.859326   2.435120   1.513406   0.000000
     6  C    3.597844   2.509125   2.832151   2.451781   1.500323
     7  C    4.758361   3.776033   4.217384   3.714485   2.533970
     8  C    4.988373   4.245318   5.022047   4.787207   3.791173
     9  Br   6.849173   6.136684   6.876478   6.499935   5.365286
    10  C    4.213289   3.758488   4.822464   4.959266   4.290729
    11  C    2.839008   2.481396   3.672314   4.098050   3.767779
    12  C    2.371611   1.492041   2.422175   2.741689   2.478943
    13  H    4.208122   3.245820   2.009500   1.087963   2.167995
    14  H    3.810228   2.778270   2.059759   1.094437   2.155168
    15  H    5.065469   3.871958   3.368121   2.143769   1.091032
    16  H    4.262507   3.200365   2.736175   2.145914   1.094141
    17  H    5.706076   4.652858   4.870574   4.109550   2.761661
    18  H    4.886614   4.626004   5.778902   6.000182   5.371582
    19  H    2.534067   2.655563   3.976155   4.687949   4.612188
                    6          7          8          9         10
     6  C    0.000000
     7  C    1.387314   0.000000
     8  C    2.393740   1.384024   0.000000
     9  Br   4.136126   2.836406   1.891437   0.000000
    10  C    2.791464   2.418025   1.387657   2.841807   0.000000
    11  C    2.413559   2.777148   2.384092   4.130321   1.381376
    12  C    1.392976   2.401576   2.754138   4.645565   2.404524
    13  H    3.414666   4.617974   5.780260   7.435748   6.019314
    14  H    2.748177   3.849968   4.817069   6.466206   4.965310
    15  H    2.149160   2.699485   4.057342   5.366609   4.817358
    16  H    2.137696   3.051085   4.276686   5.787637   4.774467
    17  H    2.146891   1.082169   2.143771   2.939923   3.395548
    18  H    3.872290   3.394671   2.147367   2.949681   1.080868
    19  H    3.385056   3.858787   3.374116   4.988478   2.146695
                   11         12         13         14         15
    11  C    0.000000
    12  C    1.389685   0.000000
    13  H    5.152804   3.780411   0.000000
    14  H    4.169860   2.973274   1.771459   0.000000
    15  H    4.526451   3.351801   2.536619   2.459023   0.000000
    16  H    4.241982   2.987057   2.459806   3.056278   1.761439
    17  H    3.859272   3.386246   4.855064   4.251452   2.525251
    18  H    2.145631   3.388408   7.068437   5.956841   5.879596
    19  H    1.081894   2.133458   5.705290   4.737242   5.449149
                   16         17         18         19
    16  H    0.000000
    17  H    3.188778   0.000000
    18  H    5.834628   4.283283   0.000000
    19  H    5.038195   4.940945   2.487852   0.000000
 Stoichiometry    C9H7BrO2
 Framework group  C1[X(C9H7BrO2)]
 Deg. of freedom    51
 Full point group                 C1      NOp   1
 Largest Abelian subgroup         C1      NOp   1
 Largest concise Abelian subgroup C1      NOp   1
                         Standard orientation:                         
 ---------------------------------------------------------------------
 Center     Atomic      Atomic             Coordinates (Angstroms)
 Number     Number       Type             X           Y           Z
 ---------------------------------------------------------------------
      1          8           0       -3.331901    1.885234   -0.225017
      2          6           0       -2.854776    0.797941   -0.068330
      3          8           0       -3.662999   -0.273997    0.028617
      4          6           0       -3.120143   -1.521715    0.459800
      5          6           0       -1.852047   -1.870697   -0.288894
      6          6           0       -0.874939   -0.741721   -0.141779
      7          6           0        0.498647   -0.936394   -0.139498
      8          6           0        1.340758    0.153195   -0.001053
      9         35           0        3.211811   -0.123427    0.012241
     10          6           0        0.842795    1.441648    0.131283
     11          6           0       -0.525361    1.631977    0.120176
     12          6           0       -1.384917    0.547987   -0.011561
     13          1           0       -3.907533   -2.251965    0.285399
     14          1           0       -2.926537   -1.469372    1.535704
     15          1           0       -1.437976   -2.801481    0.101666
     16          1           0       -2.080394   -2.031969   -1.346719
     17          1           0        0.908478   -1.932916   -0.239860
     18          1           0        1.516693    2.279957    0.237939
     19          1           0       -0.947006    2.624467    0.207773
 ---------------------------------------------------------------------
 Rotational constants (GHZ):           1.9507678           0.3220704           0.2794050
 Standard basis: def2TZVP (5D, 7F)
 There are   493 symmetry adapted cartesian basis functions of A   symmetry.
 There are   431 symmetry adapted basis functions of A   symmetry.
   431 basis functions,   731 primitive gaussians,   493 cartesian basis functions
    56 alpha electrons       56 beta electrons
       nuclear repulsion energy       915.5128193526 Hartrees.
 NAtoms=   19 NActive=   19 NUniq=   19 SFac= 1.00D+00 NAtFMM=   60 NAOKFM=F Big=F
 Integral buffers will be    131072 words long.
 Raffenetti 2 integral format.
 Two-electron integral symmetry is turned on.
 One-electron integrals computed using PRISM.
   1 Symmetry operations used in ECPInt.
 ECPInt:  NShTT=   13695 NPrTT=   45780 LenC2=   12912 LenP2D=   32161.
 LDataN:  DoStor=T MaxTD1= 6 Len=  172
 NBasis=   431 RedAO= T EigKep=  5.79D-06  NBF=   431
 NBsUse=   431 1.00D-06 EigRej= -1.00D+00 NBFU=   431
 ExpMin= 9.52D-02 ExpMax= 5.65D+05 ExpMxC= 5.46D+03 IAcc=3 IRadAn=         5 AccDes= 0.00D+00
 Harris functional with IExCor=  908 and IRadAn=       5 diagonalized for initial guess.
 HarFok:  IExCor=  908 AccDes= 0.00D+00 IRadAn=         5 IDoV= 1 UseB2=F ITyADJ=14
 ICtDFT=  3500011 ScaDFX=  1.000000  1.000000  1.000000  1.000000
 FoFCou: FMM=F IPFlag=           0 FMFlag=      100000 FMFlg1=           0
         NFxFlg=           0 DoJE=T BraDBF=F KetDBF=T FulRan=T
         wScrn=  0.000000 ICntrl=       500 IOpCl=  0 I1Cent=   200000004 NGrid=           0
         NMat0=    1 NMatS0=      1 NMatT0=    0 NMatD0=    1 NMtDS0=    0 NMtDT0=    0
 Petite list used in FoFCou.
 Requested convergence on RMS density matrix=1.00D-08 within 128 cycles.
 Requested convergence on MAX density matrix=1.00D-06.
 Requested convergence on             energy=1.00D-06.
 No special actions if energy rises.
 Integral accuracy reduced to 1.0D-05 until final iterations.
 Initial convergence to 1.0D-05 achieved.  Increase integral accuracy.
 SCF Done:  E(RmPW1PW91) =  -3072.04966828     A.U. after   15 cycles
            NFock= 15  Conv=0.41D-08     -V/T= 2.0019
 DoSCS=F DFT=T ScalE2(SS,OS)=  1.000000  1.000000
 Range of M.O.s used for correlation:     1   431
 NBasis=   431 NAE=    56 NBE=    56 NFC=     0 NFV=     0
 NROrb=    431 NOA=    56 NOB=    56 NVA=   375 NVB=   375

 **** Warning!!: The largest alpha MO coefficient is  0.70595907D+02

          Differentiating once with respect to magnetic field using GIAOs.
          Electric field/nuclear overlap derivatives assumed to be zero.
 FoFCou: FMM=F IPFlag=           0 FMFlag=      100000 FMFlg1=           0
         NFxFlg=           0 DoJE=F BraDBF=F KetDBF=T FulRan=T
         wScrn=  0.000000 ICntrl=      6100 IOpCl=  0 I1Cent=           7 NGrid=          19
         NMat0=    1 NMatS0=      1 NMatT0=    0 NMatD0=    1 NMtDS0=    0 NMtDT0=    0
 Symmetry not used in FoFCou.
   1 Symmetry operations used in ECPInt.
 ECPInt:  NShTT=   13695 NPrTT=   45780 LenC2=   13696 LenP2D=   45780.
 LDataN:  DoStor=T MaxTD1= 7 Len=  274
 FoFJK:  IHMeth= 1 ICntrl=    6127 DoSepK=F KAlg= 0 I1Cent=           0 FoldK=F
 IRaf=         1 NMat=       1 IRICut=       1 DoRegI=T DoRafI=F ISym2E= 0 IDoP0=0 IntGTp=1.
          There are     3 degrees of freedom in the 1st order CPHF.  IDoFFX=0 NUNeed=     3.
      3 vectors produced by pass  0 Test12= 7.00D-13 3.33D-08 XBig12= 2.52D+01 1.03D+00.
 AX will form     3 AO Fock derivatives at one time.
      3 vectors produced by pass  1 Test12= 7.00D-13 3.33D-08 XBig12= 6.05D-02 1.17D-01.
      3 vectors produced by pass  2 Test12= 7.00D-13 3.33D-08 XBig12= 3.03D-04 6.13D-03.
      3 vectors produced by pass  3 Test12= 7.00D-13 3.33D-08 XBig12= 1.18D-06 2.85D-04.
      3 vectors produced by pass  4 Test12= 7.00D-13 3.33D-08 XBig12= 5.05D-09 2.56D-05.
      3 vectors produced by pass  5 Test12= 7.00D-13 3.33D-08 XBig12= 2.22D-11 1.77D-06.
      3 vectors produced by pass  6 Test12= 7.00D-13 3.33D-08 XBig12= 1.17D-13 1.24D-07.
 InvSVY:  IOpt=1 It=  1 EMax= 1.33D-15
 Solved reduced A of dimension    21 with     3 vectors.
 Calculating GIAO nuclear magnetic shielding tensors.
 SCF GIAO Magnetic shielding tensor (ppm):
      1  O    Isotropic =   -86.3699   Anisotropy =   598.6492
   XX=  -203.1401   YX=   -22.8172   ZX=    -9.5501
   XY=    -1.2266   YY=  -357.0549   ZY=    94.6148
   XZ=   -10.4362   YZ=    80.0340   ZZ=   301.0853
   Eigenvalues:  -369.1257  -202.7136   312.7296
      2  C    Isotropic =    21.4111   Anisotropy =    81.3515
   XX=   -43.8255   YX=   -47.4437   ZX=     5.6690
   XY=   -60.7938   YY=    32.8884   ZY=     3.7572
   XZ=     8.1815   YZ=     4.8360   ZZ=    75.1703
   Eigenvalues:   -72.2496    60.8374    75.6454
      3  O    Isotropic =   143.5672   Anisotropy =   152.6459
   XX=   161.8638   YX=   105.6320   ZX=   -29.9826
   XY=   118.6271   YY=    31.7946   ZY=    56.0655
   XZ=   -16.3213   YZ=    27.8072   ZZ=   237.0433
   Eigenvalues:   -41.0444   226.4149   245.3312
      4  C    Isotropic =   119.4145   Anisotropy =    60.7301
   XX=   112.1230   YX=   -16.4956   ZX=     0.8351
   XY=   -20.8545   YY=   146.1119   ZY=   -21.0867
   XZ=    -1.5747   YZ=   -18.6319   ZZ=   100.0085
   Eigenvalues:    89.9429   108.3993   159.9012
      5  C    Isotropic =   156.2888   Anisotropy =    10.3752
   XX=   161.5678   YX=    -0.8352   ZX=    -4.3967
   XY=     7.5417   YY=   155.7675   ZY=    -3.8504
   XZ=     5.0039   YZ=    -2.5521   ZZ=   151.5311
   Eigenvalues:   149.5002   156.1606   163.2056
      6  C    Isotropic =    40.6786   Anisotropy =   192.3154
   XX=   -19.2428   YX=   -31.2093   ZX=    -8.8434
   XY=   -16.0177   YY=   -25.7817   ZY=   -21.3215
   XZ=   -10.3772   YZ=   -13.1191   ZZ=   167.0602
   Eigenvalues:   -48.0845     1.2314   168.8888
      7  C    Isotropic =    53.1887   Anisotropy =   137.7140
   XX=    41.6665   YX=    32.7605   ZX=     0.5446
   XY=    33.8022   YY=   -24.6702   ZY=   -18.7680
   XZ=    -4.0867   YZ=   -19.1372   ZZ=   142.5698
   Eigenvalues:   -40.0461    54.6141   144.9980
      8  C    Isotropic =    36.2372   Anisotropy =   132.9189
   XX=   -54.8868   YX=    14.3582   ZX=    -2.5803
   XY=    14.1932   YY=    39.9969   ZY=    -9.3961
   XZ=     1.8968   YZ=   -10.9898   ZZ=   123.6016
   Eigenvalues:   -56.9954    40.8573   124.8498
      9  Br   Isotropic =  2048.2751   Anisotropy =  1266.9588
   XX=  2864.8834   YX=  -189.9063   ZX=     7.0584
   XY=  -181.4527   YY=  1660.8369   ZY=    -0.7261
   XZ=     6.7096   YZ=   -11.8727   ZZ=  1619.1049
   Eigenvalues:  1617.3155  1634.5955  2892.9143
     10  C    Isotropic =    51.7807   Anisotropy =   155.7742
   XX=    14.4509   YX=   -42.6339   ZX=    -7.4904
   XY=   -45.8709   YY=   -12.1219   ZY=   -19.5310
   XZ=    -6.7927   YZ=   -22.2088   ZZ=   153.0131
   Eigenvalues:   -47.2484    46.9603   155.6301
     11  C    Isotropic =    49.6490   Anisotropy =   192.2983
   XX=    17.1417   YX=    30.0073   ZX=    -0.5942
   XY=    23.4491   YY=   -43.8772   ZY=   -22.7620
   XZ=    -4.3759   YZ=   -19.4051   ZZ=   175.6826
   Eigenvalues:   -55.4755    26.5747   177.8479
     12  C    Isotropic =    57.1919   Anisotropy =   165.0882
   XX=   -35.2231   YX=    10.4658   ZX=    -5.5534
   XY=    15.4922   YY=    40.9775   ZY=   -12.1694
   XZ=    -9.6673   YZ=   -10.8068   ZZ=   165.8213
   Eigenvalues:   -37.5306    41.8556   167.2507
     13  H    Isotropic =    27.4049   Anisotropy =     7.4680
   XX=    29.7374   YX=     1.5207   ZX=    -0.7312
   XY=     3.0978   YY=    29.9120   ZY=    -0.6276
   XZ=    -1.3456   YZ=    -1.7042   ZZ=    22.5653
   Eigenvalues:    22.3167    27.5144    32.3835
     14  H    Isotropic =    27.5227   Anisotropy =     6.7710
   XX=    25.8194   YX=    -1.3142   ZX=    -0.6415
   XY=    -1.4112   YY=    27.0869   ZY=    -3.3674
   XZ=    -3.0637   YZ=    -3.2683   ZZ=    29.6618
   Eigenvalues:    23.0638    27.4676    32.0367
     15  H    Isotropic =    29.3103   Anisotropy =     7.5454
   XX=    30.4031   YX=    -1.2779   ZX=     0.4091
   XY=    -2.6230   YY=    32.9723   ZY=    -0.9394
   XZ=     0.5177   YZ=    -2.5578   ZZ=    24.5556
   Eigenvalues:    24.2058    29.3845    34.3406
     16  H    Isotropic =    28.6262   Anisotropy =     7.7318
   XX=    28.2026   YX=     1.3298   ZX=     0.5962
   XY=     1.0537   YY=    26.9970   ZY=     2.9224
   XZ=     2.4868   YZ=     4.7785   ZZ=    30.6789
   Eigenvalues:    24.5592    27.5386    33.7807
     17  H    Isotropic =    24.3014   Anisotropy =    11.1433
   XX=    30.0341   YX=     3.8006   ZX=     0.5773
   XY=     3.5789   YY=    23.4236   ZY=     0.5900
   XZ=     0.5659   YZ=     0.6044   ZZ=    19.4466
   Eigenvalues:    19.3587    21.8152    31.7302
     18  H    Isotropic =    24.1330   Anisotropy =     9.2147
   XX=    26.6830   YX=    -4.0542   ZX=    -0.3098
   XY=    -3.5147   YY=    26.2275   ZY=     0.5950
   XZ=    -0.2519   YZ=     0.4572   ZZ=    19.4886
   Eigenvalues:    19.4477    22.6752    30.2762
     19  H    Isotropic =    23.3822   Anisotropy =     7.0967
   XX=    27.6736   YX=     1.6438   ZX=     0.4670
   XY=     1.1713   YY=    22.9711   ZY=     0.1666
   XZ=     0.7220   YZ=     0.4863   ZZ=    19.5019
   Eigenvalues:    19.4436    22.5897    28.1134
 End of Minotr F.D. properties file   721 does not exist.
 End of Minotr F.D. properties file   722 does not exist.
 End of Minotr F.D. properties file   788 does not exist.

 **********************************************************************

            Population analysis using the SCF Density.

 **********************************************************************

 Orbital symmetries:
       Occupied  (A) (A) (A) (A) (A) (A) (A) (A) (A) (A) (A) (A)
                 (A) (A) (A) (A) (A) (A) (A) (A) (A) (A) (A) (A)
                 (A) (A) (A) (A) (A) (A) (A) (A) (A) (A) (A) (A)
                 (A) (A) (A) (A) (A) (A) (A) (A) (A) (A) (A) (A)
                 (A) (A) (A) (A) (A) (A) (A) (A)
       Virtual   (A) (A) (A) (A) (A) (A) (A) (A) (A) (A) (A) (A)
                 (A) (A) (A) (A) (A) (A) (A) (A) (A) (A) (A) (A)
                 (A) (A) (A) (A) (A) (A) (A) (A) (A) (A) (A) (A)
                 (A) (A) (A) (A) (A) (A) (A) (A) (A) (A) (A) (A)
                 (A) (A) (A) (A) (A) (A) (A) (A) (A) (A) (A) (A)
                 (A) (A) (A) (A) (A) (A) (A) (A) (A) (A) (A) (A)
                 (A) (A) (A) (A) (A) (A) (A) (A) (A) (A) (A) (A)
                 (A) (A) (A) (A) (A) (A) (A) (A) (A) (A) (A) (A)
                 (A) (A) (A) (A) (A) (A) (A) (A) (A) (A) (A) (A)
                 (A) (A) (A) (A) (A) (A) (A) (A) (A) (A) (A) (A)
                 (A) (A) (A) (A) (A) (A) (A) (A) (A) (A) (A) (A)
                 (A) (A) (A) (A) (A) (A) (A) (A) (A) (A) (A) (A)
                 (A) (A) (A) (A) (A) (A) (A) (A) (A) (A) (A) (A)
                 (A) (A) (A) (A) (A) (A) (A) (A) (A) (A) (A) (A)
                 (A) (A) (A) (A) (A) (A) (A) (A) (A) (A) (A) (A)
                 (A) (A) (A) (A) (A) (A) (A) (A) (A) (A) (A) (A)
                 (A) (A) (A) (A) (A) (A) (A) (A) (A) (A) (A) (A)
                 (A) (A) (A) (A) (A) (A) (A) (A) (A) (A) (A) (A)
                 (A) (A) (A) (A) (A) (A) (A) (A) (A) (A) (A) (A)
                 (A) (A) (A) (A) (A) (A) (A) (A) (A) (A) (A) (A)
                 (A) (A) (A) (A) (A) (A) (A) (A) (A) (A) (A) (A)
                 (A) (A) (A) (A) (A) (A) (A) (A) (A) (A) (A) (A)
                 (A) (A) (A) (A) (A) (A) (A) (A) (A) (A) (A) (A)
                 (A) (A) (A) (A) (A) (A) (A) (A) (A) (A) (A) (A)
                 (A) (A) (A) (A) (A) (A) (A) (A) (A) (A) (A) (A)
                 (A) (A) (A) (A) (A) (A) (A) (A) (A) (A) (A) (A)
                 (A) (A) (A) (A) (A) (A) (A) (A) (A) (A) (A) (A)
                 (A) (A) (A) (A) (A) (A) (A) (A) (A) (A) (A) (A)
                 (A) (A) (A) (A) (A) (A) (A) (A) (A) (A) (A) (A)
                 (A) (A) (A) (A) (A) (A) (A) (A) (A) (A) (A) (A)
                 (A) (A) (A) (A) (A) (A) (A) (A) (A) (A) (A) (A)
                 (A) (A) (A)
 The electronic state is 1-A.
 Alpha  occ. eigenvalues -- -483.35827 -62.68927 -56.46953 -56.46615 -56.46599
 Alpha  occ. eigenvalues --  -19.27039 -19.20353 -10.36828 -10.31873 -10.31178
 Alpha  occ. eigenvalues --  -10.28227 -10.26983 -10.26798 -10.26769 -10.26643
 Alpha  occ. eigenvalues --  -10.26545  -8.79332  -6.60603  -6.59518  -6.59467
 Alpha  occ. eigenvalues --   -2.69267  -2.68950  -2.68911  -2.68022  -2.68022
 Alpha  occ. eigenvalues --   -1.14361  -1.05868  -0.93148  -0.86458  -0.83466
 Alpha  occ. eigenvalues --   -0.79042  -0.78023  -0.70739  -0.66541  -0.64307
 Alpha  occ. eigenvalues --   -0.58476  -0.57366  -0.53516  -0.52328  -0.49472
 Alpha  occ. eigenvalues --   -0.47865  -0.47319  -0.46255  -0.45355  -0.44608
 Alpha  occ. eigenvalues --   -0.43120  -0.40815  -0.40600  -0.38279  -0.35907
 Alpha  occ. eigenvalues --   -0.34331  -0.32280  -0.31774  -0.29711  -0.29168
 Alpha  occ. eigenvalues --   -0.27421
 Alpha virt. eigenvalues --   -0.06344  -0.03507  -0.00569   0.03184   0.04543
 Alpha virt. eigenvalues --    0.06963   0.07494   0.08098   0.09177   0.09962
 Alpha virt. eigenvalues --    0.10665   0.12212   0.13247   0.14604   0.15149
 Alpha virt. eigenvalues --    0.16185   0.17215   0.18532   0.19191   0.20398
 Alpha virt. eigenvalues --    0.20752   0.21601   0.22373   0.22955   0.23100
 Alpha virt. eigenvalues --    0.24549   0.24972   0.25469   0.26487   0.27595
 Alpha virt. eigenvalues --    0.28210   0.28762   0.28970   0.30419   0.30512
 Alpha virt. eigenvalues --    0.31484   0.32344   0.32782   0.33991   0.35183
 Alpha virt. eigenvalues --    0.36386   0.36911   0.37178   0.38274   0.38833
 Alpha virt. eigenvalues --    0.40245   0.40507   0.41318   0.42220   0.42616
 Alpha virt. eigenvalues --    0.43585   0.43852   0.44781   0.45500   0.46727
 Alpha virt. eigenvalues --    0.48137   0.50979   0.51106   0.51446   0.51800
 Alpha virt. eigenvalues --    0.52637   0.54236   0.54935   0.55446   0.56446
 Alpha virt. eigenvalues --    0.59152   0.59377   0.61831   0.63067   0.65884
 Alpha virt. eigenvalues --    0.66409   0.66562   0.68045   0.68953   0.69616
 Alpha virt. eigenvalues --    0.69846   0.70630   0.72246   0.73961   0.75440
 Alpha virt. eigenvalues --    0.76223   0.77412   0.78466   0.80205   0.80885
 Alpha virt. eigenvalues --    0.82086   0.82491   0.84885   0.85227   0.86234
 Alpha virt. eigenvalues --    0.88929   0.89309   0.89999   0.90948   0.92420
 Alpha virt. eigenvalues --    0.94592   0.96401   0.96830   0.98968   0.99910
 Alpha virt. eigenvalues --    1.01870   1.02824   1.05113   1.08087   1.08270
 Alpha virt. eigenvalues --    1.10815   1.11370   1.13942   1.14861   1.15961
 Alpha virt. eigenvalues --    1.17318   1.19090   1.20605   1.21828   1.22571
 Alpha virt. eigenvalues --    1.24267   1.25121   1.28335   1.29556   1.31153
 Alpha virt. eigenvalues --    1.32908   1.35017   1.35416   1.36814   1.37716
 Alpha virt. eigenvalues --    1.38447   1.41534   1.42899   1.43311   1.45365
 Alpha virt. eigenvalues --    1.45776   1.47528   1.48879   1.49397   1.50981
 Alpha virt. eigenvalues --    1.53081   1.53491   1.54077   1.54923   1.55345
 Alpha virt. eigenvalues --    1.56066   1.57730   1.59665   1.60808   1.61011
 Alpha virt. eigenvalues --    1.61940   1.62514   1.64131   1.65413   1.67121
 Alpha virt. eigenvalues --    1.69865   1.70835   1.71274   1.71876   1.73161
 Alpha virt. eigenvalues --    1.74664   1.76292   1.78736   1.80173   1.81690
 Alpha virt. eigenvalues --    1.84242   1.85552   1.86286   1.87505   1.88764
 Alpha virt. eigenvalues --    1.90646   1.91827   1.92619   1.93384   1.97286
 Alpha virt. eigenvalues --    1.98029   1.99786   2.02239   2.04344   2.05262
 Alpha virt. eigenvalues --    2.07890   2.08928   2.13375   2.14085   2.14614
 Alpha virt. eigenvalues --    2.16817   2.18108   2.19314   2.20804   2.23066
 Alpha virt. eigenvalues --    2.27099   2.28491   2.29820   2.33001   2.34841
 Alpha virt. eigenvalues --    2.34987   2.36667   2.38740   2.42034   2.44712
 Alpha virt. eigenvalues --    2.45639   2.48608   2.49199   2.50866   2.53185
 Alpha virt. eigenvalues --    2.55666   2.58257   2.58612   2.60634   2.62133
 Alpha virt. eigenvalues --    2.62688   2.63560   2.64938   2.66513   2.69247
 Alpha virt. eigenvalues --    2.69548   2.71331   2.71705   2.73505   2.74603
 Alpha virt. eigenvalues --    2.77279   2.78393   2.80664   2.81543   2.83629
 Alpha virt. eigenvalues --    2.84298   2.85927   2.86589   2.87000   2.89015
 Alpha virt. eigenvalues --    2.89852   2.90791   2.93941   2.94708   2.96965
 Alpha virt. eigenvalues --    2.97641   3.00559   3.02763   3.03662   3.04088
 Alpha virt. eigenvalues --    3.05209   3.06709   3.08942   3.09902   3.11591
 Alpha virt. eigenvalues --    3.12520   3.14647   3.15770   3.17692   3.18522
 Alpha virt. eigenvalues --    3.19210   3.19775   3.20726   3.21703   3.22975
 Alpha virt. eigenvalues --    3.24599   3.26992   3.28381   3.29274   3.30811
 Alpha virt. eigenvalues --    3.32317   3.33387   3.34350   3.35597   3.35973
 Alpha virt. eigenvalues --    3.37606   3.38678   3.40924   3.42723   3.43472
 Alpha virt. eigenvalues --    3.44220   3.46035   3.46927   3.48711   3.51437
 Alpha virt. eigenvalues --    3.52388   3.53682   3.55216   3.55688   3.56574
 Alpha virt. eigenvalues --    3.57769   3.60007   3.61904   3.64039   3.67639
 Alpha virt. eigenvalues --    3.69239   3.72158   3.73541   3.77979   3.80726
 Alpha virt. eigenvalues --    3.81016   3.83408   3.84368   3.88281   3.89615
 Alpha virt. eigenvalues --    3.96339   3.96440   3.99240   4.02046   4.02401
 Alpha virt. eigenvalues --    4.04282   4.05532   4.07041   4.08987   4.12543
 Alpha virt. eigenvalues --    4.16066   4.17312   4.18838   4.20565   4.22907
 Alpha virt. eigenvalues --    4.24105   4.24447   4.26253   4.29599   4.32338
 Alpha virt. eigenvalues --    4.35426   4.36649   4.39531   4.40876   4.42917
 Alpha virt. eigenvalues --    4.46876   4.48748   4.49346   4.58314   4.59314
 Alpha virt. eigenvalues --    4.61284   4.66700   4.68118   4.69740   4.73412
 Alpha virt. eigenvalues --    4.77055   4.79550   4.84999   4.87179   4.95233
 Alpha virt. eigenvalues --    4.97122   5.04751   5.14747   5.20115   5.20440
 Alpha virt. eigenvalues --    5.23407   5.25633   5.29696   5.40238   5.43388
 Alpha virt. eigenvalues --    5.47705   5.51400   5.55695   5.62164   5.74340
 Alpha virt. eigenvalues --    5.86148   5.91671   5.94565   6.07354   6.24134
 Alpha virt. eigenvalues --    6.35322   6.41410   6.47171   6.57565   6.67331
 Alpha virt. eigenvalues --    6.81096   6.85574   6.90543   6.96917   7.10121
 Alpha virt. eigenvalues --    7.21249   7.24266   7.44594   7.78609  22.10266
 Alpha virt. eigenvalues --   22.51372  22.61171  22.75106  22.82760  22.90925
 Alpha virt. eigenvalues --   23.01257  23.45177  23.64651  44.01421  44.29695
          Condensed to atoms (all electrons):
               1          2          3          4          5          6
     1  O    7.769737   0.742578  -0.087233   0.002697  -0.003153  -0.003331
     2  C    0.742578   4.559486   0.429947  -0.024135  -0.047762  -0.060297
     3  O   -0.087233   0.429947   7.841970   0.256843  -0.044074  -0.025111
     4  C    0.002697  -0.024135   0.256843   4.724369   0.361878  -0.019450
     5  C   -0.003153  -0.047762  -0.044074   0.361878   5.037895   0.315573
     6  C   -0.003331  -0.060297  -0.025111  -0.019450   0.315573   5.229029
     7  C    0.000344   0.009846   0.000499  -0.000431  -0.055653   0.306445
     8  C    0.000008  -0.007592  -0.000274  -0.000014   0.013866   0.092861
     9  Br  -0.000000  -0.000023  -0.000001   0.000044  -0.001191   0.015054
    10  C    0.003288   0.019559   0.000066  -0.000943  -0.001397  -0.125764
    11  C    0.042526  -0.054643   0.016336   0.000237   0.014437  -0.002976
    12  C   -0.193026   0.150424  -0.131270  -0.012061  -0.087572   0.312942
    13  H   -0.000131   0.004305  -0.035462   0.410664  -0.041564   0.008406
    14  H    0.000749  -0.003873  -0.039901   0.400951  -0.034362   0.001562
    15  H    0.000033   0.003041   0.004288  -0.020588   0.393642  -0.044217
    16  H   -0.000049  -0.001530   0.003861  -0.023729   0.369446  -0.020670
    17  H    0.000015   0.000755   0.000043   0.000344  -0.012746  -0.083050
    18  H   -0.000089  -0.000125   0.000002  -0.000008   0.000138  -0.003885
    19  H    0.018819  -0.007984   0.000818  -0.000061  -0.000234   0.014269
               7          8          9         10         11         12
     1  O    0.000344   0.000008  -0.000000   0.003288   0.042526  -0.193026
     2  C    0.009846  -0.007592  -0.000023   0.019559  -0.054643   0.150424
     3  O    0.000499  -0.000274  -0.000001   0.000066   0.016336  -0.131270
     4  C   -0.000431  -0.000014   0.000044  -0.000943   0.000237  -0.012061
     5  C   -0.055653   0.013866  -0.001191  -0.001397   0.014437  -0.087572
     6  C    0.306445   0.092861   0.015054  -0.125764  -0.002976   0.312942
     7  C    5.353884   0.353821  -0.069379   0.052997  -0.128408   0.003470
     8  C    0.353821   4.844691   0.323990   0.340039   0.111011  -0.132997
     9  Br  -0.069379   0.323990  34.872804  -0.073690   0.016716  -0.001396
    10  C    0.052997   0.340039  -0.073690   5.186741   0.286195   0.069240
    11  C   -0.128408   0.111011   0.016716   0.286195   5.257442   0.228595
    12  C    0.003470  -0.132997  -0.001396   0.069240   0.228595   5.868806
    13  H   -0.001419  -0.000021  -0.000001   0.000013   0.000127   0.004368
    14  H    0.004585   0.000029   0.000001  -0.000183   0.001273  -0.016548
    15  H    0.001124   0.000217  -0.000034   0.000294  -0.000728   0.006137
    16  H    0.011317  -0.000658   0.000019   0.000035   0.000651  -0.017551
    17  H    0.461459  -0.067628  -0.002393   0.017549  -0.006348   0.021956
    18  H    0.016004  -0.064847  -0.004816   0.454589  -0.070060   0.013670
    19  H   -0.002646   0.011971  -0.000354  -0.067250   0.445695  -0.058504
              13         14         15         16         17         18
     1  O   -0.000131   0.000749   0.000033  -0.000049   0.000015  -0.000089
     2  C    0.004305  -0.003873   0.003041  -0.001530   0.000755  -0.000125
     3  O   -0.035462  -0.039901   0.004288   0.003861   0.000043   0.000002
     4  C    0.410664   0.400951  -0.020588  -0.023729   0.000344  -0.000008
     5  C   -0.041564  -0.034362   0.393642   0.369446  -0.012746   0.000138
     6  C    0.008406   0.001562  -0.044217  -0.020670  -0.083050  -0.003885
     7  C   -0.001419   0.004585   0.001124   0.011317   0.461459   0.016004
     8  C   -0.000021   0.000029   0.000217  -0.000658  -0.067628  -0.064847
     9  Br  -0.000001   0.000001  -0.000034   0.000019  -0.002393  -0.004816
    10  C    0.000013  -0.000183   0.000294   0.000035   0.017549   0.454589
    11  C    0.000127   0.001273  -0.000728   0.000651  -0.006348  -0.070060
    12  C    0.004368  -0.016548   0.006137  -0.017551   0.021956   0.013670
    13  H    0.571567  -0.039815  -0.000344  -0.008526   0.000022   0.000000
    14  H   -0.039815   0.608577  -0.003367   0.009633  -0.000132  -0.000001
    15  H   -0.000344  -0.003367   0.557860  -0.026628   0.003173  -0.000000
    16  H   -0.008526   0.009633  -0.026628   0.582959   0.000366  -0.000003
    17  H    0.000022  -0.000132   0.003173   0.000366   0.542154  -0.000054
    18  H    0.000000  -0.000001  -0.000000  -0.000003  -0.000054   0.529540
    19  H   -0.000006   0.000081   0.000016   0.000036   0.000051  -0.007651
              19
     1  O    0.018819
     2  C   -0.007984
     3  O    0.000818
     4  C   -0.000061
     5  C   -0.000234
     6  C    0.014269
     7  C   -0.002646
     8  C    0.011971
     9  Br  -0.000354
    10  C   -0.067250
    11  C    0.445695
    12  C   -0.058504
    13  H   -0.000006
    14  H    0.000081
    15  H    0.000016
    16  H    0.000036
    17  H    0.000051
    18  H   -0.007651
    19  H    0.502574
 Mulliken charges:
               1
     1  O   -0.293779
     2  C    0.288026
     3  O   -0.191347
     4  C   -0.056608
     5  C   -0.177166
     6  C    0.092611
     7  C   -0.317859
     8  C    0.181530
     9  Br  -0.075351
    10  C   -0.161380
    11  C   -0.158079
    12  C   -0.028683
    13  H    0.127817
    14  H    0.110742
    15  H    0.126081
    16  H    0.121022
    17  H    0.124467
    18  H    0.137596
    19  H    0.150362
 Sum of Mulliken charges =  -0.00000
 Mulliken charges with hydrogens summed into heavy atoms:
               1
     1  O   -0.293779
     2  C    0.288026
     3  O   -0.191347
     4  C    0.181950
     5  C    0.069938
     6  C    0.092611
     7  C   -0.193392
     8  C    0.181530
     9  Br  -0.075351
    10  C   -0.023784
    11  C   -0.007717
    12  C   -0.028683
 Electronic spatial extent (au):  <R**2>=           3412.0712
 Charge=             -0.0000 electrons
 Dipole moment (field-independent basis, Debye):
    X=              1.5400    Y=             -3.4808    Z=              0.6370  Tot=              3.8592
 Quadrupole moment (field-independent basis, Debye-Ang):
   XX=            -94.9643   YY=            -75.9419   ZZ=            -81.3054
   XY=             14.1192   XZ=             -2.2430   YZ=              1.2596
 Traceless Quadrupole moment (field-independent basis, Debye-Ang):
   XX=            -10.8938   YY=              8.1287   ZZ=              2.7651
   XY=             14.1192   XZ=             -2.2430   YZ=              1.2596
 Octapole moment (field-independent basis, Debye-Ang**2):
  XXX=            138.7863  YYY=            -14.3407  ZZZ=             -0.2281  XYY=             34.0150
  XXY=            -47.8348  XXZ=              8.3271  XZZ=             19.5440  YZZ=             -2.9019
  YYZ=              3.4330  XYZ=             -1.1587
 Hexadecapole moment (field-independent basis, Debye-Ang**3):
 XXXX=          -3196.7781 YYYY=           -711.3391 ZZZZ=           -116.9045 XXXY=            142.4092
 XXXZ=            -24.7791 YYYX=             44.2595 YYYZ=              5.7173 ZZZX=              1.9009
 ZZZY=             -1.6965 XXYY=           -646.1903 XXZZ=           -512.3278 YYZZ=           -146.8823
 XXYZ=              5.3338 YYXZ=             -6.5960 ZZXY=             -3.9638
 N-N= 9.155128193526D+02 E-N=-9.143864033458D+03  KE= 3.066167543973D+03
 Unable to Open any file for archive entry.
 1\1\GINC-DYNAMO\SP\RmPW1PW91\def2TZVP\C9H7Br1O2\RPATON\23-Sep-2024\0\\
 # nmr=giao mpw1pw91/def2tzvp\\arbr32_wb97xd_nmrcreated by GaussianPrep
 \\0,1\O,0,-3.331901,1.885234,-0.225017\C,0,-2.854776,0.797941,-0.06833
 \O,0,-3.662999,-0.273997,0.028617\C,0,-3.120143,-1.521715,0.4598\C,0,-
 1.852047,-1.870697,-0.288894\C,0,-0.874939,-0.741721,-0.141779\C,0,0.4
 98647,-0.936394,-0.139498\C,0,1.340758,0.153195,-0.001053\Br,0,3.21181
 1,-0.123427,0.012241\C,0,0.842795,1.441648,0.131283\C,0,-0.525361,1.63
 1977,0.120176\C,0,-1.384917,0.547987,-0.011561\H,0,-3.907533,-2.251965
 ,0.285399\H,0,-2.926537,-1.469372,1.535704\H,0,-1.437976,-2.801481,0.1
 01666\H,0,-2.080394,-2.031969,-1.346719\H,0,0.908478,-1.932916,-0.2398
 6\H,0,1.516693,2.279957,0.237939\H,0,-0.947006,2.624467,0.207773\\Vers
 ion=ES64L-G16RevC.01\State=1-A\HF=-3072.0496683\RMSD=4.073e-09\Dipole=
 0.6058698,-1.3694633,0.2506146\Quadrupole=-8.0992667,6.043481,2.055785
 7,10.4972446,-1.6676001,0.9364693\PG=C01 [X(C9H7Br1O2)]\\@
 The archive entry for this job was punched.


 MOST BUREAUCRACIES FUNCTION LIKE A SEPTIC TANK.
 THE LARGE CHUNKS RISE TO THE TOP.
 Job cpu time:       0 days  1 hours 12 minutes 24.0 seconds.
 Elapsed time:       0 days  0 hours  3 minutes  8.6 seconds.
 File lengths (MBytes):  RWF=    112 Int=      0 D2E=      0 Chk=     15 Scr=      1
 Normal termination of Gaussian 16 at Mon Sep 23 22:43:14 2024.
