 Entering Gaussian System, Link 0=/usr/local/Gaussian/G16C/g16/g16
 Input=arbr47_wb97xd_nmr.com
 Output=arbr47_wb97xd_nmr.log
 Initial command:
 /usr/local/Gaussian/G16C/g16/l1.exe "/home/rpaton/opt/tzvp/nmr/Gau-3138963.inp" -scrdir="/home/rpaton/opt/tzvp/nmr/"
 Entering Link 1 = /usr/local/Gaussian/G16C/g16/l1.exe PID=   3138964.
  
 Copyright (c) 1988-2019, Gaussian, Inc.  All Rights Reserved.
  
 This is part of the Gaussian(R) 16 program.  It is based on
 the Gaussian(R) 09 system (copyright 2009, Gaussian, Inc.),
 the Gaussian(R) 03 system (copyright 2003, Gaussian, Inc.),
 the Gaussian(R) 98 system (copyright 1998, Gaussian, Inc.),
 the Gaussian(R) 94 system (copyright 1995, Gaussian, Inc.),
 the Gaussian 92(TM) system (copyright 1992, Gaussian, Inc.),
 the Gaussian 90(TM) system (copyright 1990, Gaussian, Inc.),
 the Gaussian 88(TM) system (copyright 1988, Gaussian, Inc.),
 the Gaussian 86(TM) system (copyright 1986, Carnegie Mellon
 University), and the Gaussian 82(TM) system (copyright 1983,
 Carnegie Mellon University). Gaussian is a federally registered
 trademark of Gaussian, Inc.
  
 This software contains proprietary and confidential information,
 including trade secrets, belonging to Gaussian, Inc.
  
 This software is provided under written license and may be
 used, copied, transmitted, or stored only in accord with that
 written license.
  
 The following legend is applicable only to US Government
 contracts under FAR:
  
                    RESTRICTED RIGHTS LEGEND
  
 Use, reproduction and disclosure by the US Government is
 subject to restrictions as set forth in subparagraphs (a)
 and (c) of the Commercial Computer Software - Restricted
 Rights clause in FAR 52.227-19.
  
 Gaussian, Inc.
 340 Quinnipiac St., Bldg. 40, Wallingford CT 06492
  
  
 ---------------------------------------------------------------
 Warning -- This program may not be used in any manner that
 competes with the business of Gaussian, Inc. or will provide
 assistance to any competitor of Gaussian, Inc.  The licensee
 of this program is prohibited from giving any competitor of
 Gaussian, Inc. access to this program.  By using this program,
 the user acknowledges that Gaussian, Inc. is engaged in the
 business of creating and licensing software in the field of
 computational chemistry and represents and warrants to the
 licensee that it is not a competitor of Gaussian, Inc. and that
 it will not use this program in any manner prohibited above.
 ---------------------------------------------------------------
  

 Cite this work as:
 Gaussian 16, Revision C.01,
 M. J. Frisch, G. W. Trucks, H. B. Schlegel, G. E. Scuseria, 
 M. A. Robb, J. R. Cheeseman, G. Scalmani, V. Barone, 
 G. A. Petersson, H. Nakatsuji, X. Li, M. Caricato, A. V. Marenich, 
 J. Bloino, B. G. Janesko, R. Gomperts, B. Mennucci, H. P. Hratchian, 
 J. V. Ortiz, A. F. Izmaylov, J. L. Sonnenberg, D. Williams-Young, 
 F. Ding, F. Lipparini, F. Egidi, J. Goings, B. Peng, A. Petrone, 
 T. Henderson, D. Ranasinghe, V. G. Zakrzewski, J. Gao, N. Rega, 
 G. Zheng, W. Liang, M. Hada, M. Ehara, K. Toyota, R. Fukuda, 
 J. Hasegawa, M. Ishida, T. Nakajima, Y. Honda, O. Kitao, H. Nakai, 
 T. Vreven, K. Throssell, J. A. Montgomery, Jr., J. E. Peralta, 
 F. Ogliaro, M. J. Bearpark, J. J. Heyd, E. N. Brothers, K. N. Kudin, 
 V. N. Staroverov, T. A. Keith, R. Kobayashi, J. Normand, 
 K. Raghavachari, A. P. Rendell, J. C. Burant, S. S. Iyengar, 
 J. Tomasi, M. Cossi, J. M. Millam, M. Klene, C. Adamo, R. Cammi, 
 J. W. Ochterski, R. L. Martin, K. Morokuma, O. Farkas, 
 J. B. Foresman, and D. J. Fox, Gaussian, Inc., Wallingford CT, 2019.
 
 ******************************************
 Gaussian 16:  ES64L-G16RevC.01  3-Jul-2019
                24-Sep-2024 
 ******************************************
 %chk=arbr47_wb97xd_nmr.chk
 %mem=48GB
 %nprocshared=24
 Will use up to   24 processors via shared memory.
 ----------------------------
 # nmr=giao mpw1pw91/def2tzvp
 ----------------------------
 1/38=1,172=1/1;
 2/12=2,17=6,18=5,40=1/2;
 3/5=44,7=101,11=2,25=1,30=1,74=-7/1,2,3,8;
 4//1;
 5/5=2,38=5/2;
 8/6=1,10=90,11=11/1;
 10/13=100,45=16/2;
 6/7=2,8=2,9=2,10=2,28=1/1;
 99/9=1/99;
 ----------------------------------------
 arbr47_wb97xd_nmrcreated by GaussianPrep
 ----------------------------------------
 Symbolic Z-matrix:
 Charge =  0 Multiplicity = 1
 O                    -4.17553  -1.58103   0.48728 
 C                    -3.31794  -0.82264   0.12645 
 C                    -3.43773   0.67027   0.38728 
 O                    -2.49013   1.46664  -0.29675 
 C                    -1.20055   1.03303  -0.19448 
 C                    -0.18853   1.96231  -0.02133 
 C                     1.1267    1.53679   0.05623 
 C                     1.41022   0.18308  -0.02733 
 Br                    3.20565  -0.40706   0.10295 
 C                     0.40045  -0.74658  -0.20725 
 C                    -0.91619  -0.32372  -0.30933 
 C                    -2.05791  -1.25916  -0.5863 
 H                    -4.42541   1.00633   0.07619 
 H                    -3.34903   0.8202    1.47048 
 H                    -0.44002   3.01172   0.05423 
 H                     1.92393   2.25399   0.19351 
 H                     0.636    -1.80034  -0.28287 
 H                    -1.83598  -2.29266  -0.32463 
 H                    -2.29305  -1.23753  -1.65815 
 
                          Input orientation:                          
 ---------------------------------------------------------------------
 Center     Atomic      Atomic             Coordinates (Angstroms)
 Number     Number       Type             X           Y           Z
 ---------------------------------------------------------------------
      1          8           0       -4.175534   -1.581028    0.487284
      2          6           0       -3.317935   -0.822637    0.126449
      3          6           0       -3.437733    0.670273    0.387283
      4          8           0       -2.490127    1.466638   -0.296746
      5          6           0       -1.200551    1.033028   -0.194482
      6          6           0       -0.188530    1.962311   -0.021326
      7          6           0        1.126695    1.536791    0.056234
      8          6           0        1.410215    0.183084   -0.027332
      9         35           0        3.205651   -0.407056    0.102950
     10          6           0        0.400452   -0.746576   -0.207247
     11          6           0       -0.916190   -0.323723   -0.309332
     12          6           0       -2.057913   -1.259155   -0.586299
     13          1           0       -4.425410    1.006333    0.076188
     14          1           0       -3.349032    0.820197    1.470481
     15          1           0       -0.440022    3.011724    0.054228
     16          1           0        1.923928    2.253991    0.193511
     17          1           0        0.636002   -1.800343   -0.282868
     18          1           0       -1.835980   -2.292657   -0.324631
     19          1           0       -2.293051   -1.237529   -1.658147
 ---------------------------------------------------------------------
                    Distance matrix (angstroms):
                    1          2          3          4          5
     1  O    0.000000
     2  C    1.200348   0.000000
     3  C    2.371225   1.520252   0.000000
     4  O    3.569813   2.470858   1.414231   0.000000
     5  C    4.018534   2.833691   2.339877   1.364361   0.000000
     6  C    5.358184   4.191772   3.520461   2.370421   1.384824
     7  C    6.166055   5.032551   4.657730   3.634683   2.394308
     8  C    5.880265   4.836375   4.889975   4.114944   2.750717
     9  Br   7.483837   6.536852   6.736174   6.009357   4.645097
    10  C    4.703013   3.734105   4.134319   3.641672   2.393818
    11  C    3.583118   2.491425   2.798478   2.383868   1.390980
    12  C    2.395934   1.512023   2.564071   2.774995   2.478446
    13  H    2.631706   2.138728   1.088679   2.023927   3.236308
    14  H    2.723172   2.122803   1.097116   2.068501   2.726421
    15  H    5.935904   4.794781   3.818323   2.591024   2.134361
    16  H    7.210902   6.078426   5.594025   4.510450   3.376930
    17  H    4.877716   4.093540   4.811275   4.521730   3.377681
    18  H    2.576652   2.135561   3.442585   3.815886   3.388346
    19  H    2.874823   2.099358   3.022216   3.033937   2.913984
                    6          7          8          9         10
     6  C    0.000000
     7  C    1.384521   0.000000
     8  C    2.392001   1.385601   0.000000
     9  Br   4.141233   2.846539   1.894421   0.000000
    10  C    2.778405   2.410522   1.384290   2.842646   0.000000
    11  C    2.416276   2.787208   2.397611   4.143247   1.386641
    12  C    3.767178   4.286244   3.797421   5.376453   2.539680
    13  H    4.344486   5.577424   5.894317   7.760894   5.142176
    14  H    3.676776   4.748235   5.029890   6.807361   4.396383
    15  H    1.081769   2.151751   3.381011   4.998136   3.859998
    16  H    2.143294   1.081111   2.145071   2.955027   3.388951
    17  H    3.860806   3.390020   2.144455   2.948423   1.082417
    18  H    4.572837   4.856663   4.093344   5.399663   2.721355
    19  H    4.164993   4.725528   4.288575   5.833256   3.098565
                   11         12         13         14         15
    11  C    0.000000
    12  C    1.501757   0.000000
    13  H    3.772572   3.343107   0.000000
    14  H    3.224129   3.197036   1.771239   0.000000
    15  H    3.388823   4.611752   4.461546   3.907800   0.000000
    16  H    3.868298   5.367062   6.471824   5.611642   2.486326
    17  H    2.142524   2.764441   5.798641   5.081531   4.942413
    18  H    2.173235   1.088968   4.212973   3.898925   5.498062
    19  H    2.133094   1.097550   3.548209   3.890713   4.941872
                   16         17         18         19
    16  H    0.000000
    17  H    4.280574   0.000000
    18  H    5.922617   2.520875   0.000000
    19  H    5.779469   3.284433   1.760816   0.000000
 Stoichiometry    C9H7BrO2
 Framework group  C1[X(C9H7BrO2)]
 Deg. of freedom    51
 Full point group                 C1      NOp   1
 Largest Abelian subgroup         C1      NOp   1
 Largest concise Abelian subgroup C1      NOp   1
                         Standard orientation:                         
 ---------------------------------------------------------------------
 Center     Atomic      Atomic             Coordinates (Angstroms)
 Number     Number       Type             X           Y           Z
 ---------------------------------------------------------------------
      1          8           0        4.175534   -1.581028   -0.487284
      2          6           0        3.317935   -0.822637   -0.126449
      3          6           0        3.437733    0.670273   -0.387283
      4          8           0        2.490127    1.466638    0.296746
      5          6           0        1.200551    1.033028    0.194482
      6          6           0        0.188530    1.962311    0.021326
      7          6           0       -1.126695    1.536791   -0.056234
      8          6           0       -1.410215    0.183084    0.027332
      9         35           0       -3.205651   -0.407056   -0.102950
     10          6           0       -0.400452   -0.746576    0.207247
     11          6           0        0.916190   -0.323723    0.309332
     12          6           0        2.057913   -1.259155    0.586299
     13          1           0        4.425410    1.006333   -0.076188
     14          1           0        3.349032    0.820197   -1.470481
     15          1           0        0.440022    3.011724   -0.054228
     16          1           0       -1.923928    2.253991   -0.193511
     17          1           0       -0.636002   -1.800343    0.282868
     18          1           0        1.835980   -2.292657    0.324631
     19          1           0        2.293051   -1.237529    1.658147
 ---------------------------------------------------------------------
 Rotational constants (GHZ):           1.9361063           0.3082250           0.2714253
 Standard basis: def2TZVP (5D, 7F)
 There are   493 symmetry adapted cartesian basis functions of A   symmetry.
 There are   431 symmetry adapted basis functions of A   symmetry.
   431 basis functions,   731 primitive gaussians,   493 cartesian basis functions
    56 alpha electrons       56 beta electrons
       nuclear repulsion energy       908.8638546998 Hartrees.
 NAtoms=   19 NActive=   19 NUniq=   19 SFac= 1.00D+00 NAtFMM=   60 NAOKFM=F Big=F
 Integral buffers will be    131072 words long.
 Raffenetti 2 integral format.
 Two-electron integral symmetry is turned on.
 One-electron integrals computed using PRISM.
   1 Symmetry operations used in ECPInt.
 ECPInt:  NShTT=   13695 NPrTT=   45780 LenC2=   12865 LenP2D=   32001.
 LDataN:  DoStor=T MaxTD1= 6 Len=  172
 NBasis=   431 RedAO= T EigKep=  7.27D-06  NBF=   431
 NBsUse=   431 1.00D-06 EigRej= -1.00D+00 NBFU=   431
 ExpMin= 9.52D-02 ExpMax= 5.65D+05 ExpMxC= 5.46D+03 IAcc=3 IRadAn=         5 AccDes= 0.00D+00
 Harris functional with IExCor=  908 and IRadAn=       5 diagonalized for initial guess.
 HarFok:  IExCor=  908 AccDes= 0.00D+00 IRadAn=         5 IDoV= 1 UseB2=F ITyADJ=14
 ICtDFT=  3500011 ScaDFX=  1.000000  1.000000  1.000000  1.000000
 FoFCou: FMM=F IPFlag=           0 FMFlag=      100000 FMFlg1=           0
         NFxFlg=           0 DoJE=T BraDBF=F KetDBF=T FulRan=T
         wScrn=  0.000000 ICntrl=       500 IOpCl=  0 I1Cent=   200000004 NGrid=           0
         NMat0=    1 NMatS0=      1 NMatT0=    0 NMatD0=    1 NMtDS0=    0 NMtDT0=    0
 Petite list used in FoFCou.
 Requested convergence on RMS density matrix=1.00D-08 within 128 cycles.
 Requested convergence on MAX density matrix=1.00D-06.
 Requested convergence on             energy=1.00D-06.
 No special actions if energy rises.
 Integral accuracy reduced to 1.0D-05 until final iterations.
 Problem detected with inexpensive integrals.
 Switching to full accuracy and repeating last cycle.
 SCF Done:  E(RmPW1PW91) =  -3072.02182610     A.U. after   17 cycles
            NFock= 17  Conv=0.89D-08     -V/T= 2.0019
 DoSCS=F DFT=T ScalE2(SS,OS)=  1.000000  1.000000
 Range of M.O.s used for correlation:     1   431
 NBasis=   431 NAE=    56 NBE=    56 NFC=     0 NFV=     0
 NROrb=    431 NOA=    56 NOB=    56 NVA=   375 NVB=   375

 **** Warning!!: The largest alpha MO coefficient is  0.67802128D+02

          Differentiating once with respect to magnetic field using GIAOs.
          Electric field/nuclear overlap derivatives assumed to be zero.
 FoFCou: FMM=F IPFlag=           0 FMFlag=      100000 FMFlg1=           0
         NFxFlg=           0 DoJE=F BraDBF=F KetDBF=T FulRan=T
         wScrn=  0.000000 ICntrl=      6100 IOpCl=  0 I1Cent=           7 NGrid=          19
         NMat0=    1 NMatS0=      1 NMatT0=    0 NMatD0=    1 NMtDS0=    0 NMtDT0=    0
 Symmetry not used in FoFCou.
   1 Symmetry operations used in ECPInt.
 ECPInt:  NShTT=   13695 NPrTT=   45780 LenC2=   13696 LenP2D=   45780.
 LDataN:  DoStor=T MaxTD1= 7 Len=  274
 FoFJK:  IHMeth= 1 ICntrl=    6127 DoSepK=F KAlg= 0 I1Cent=           0 FoldK=F
 IRaf=         1 NMat=       1 IRICut=       1 DoRegI=T DoRafI=F ISym2E= 0 IDoP0=0 IntGTp=1.
          There are     3 degrees of freedom in the 1st order CPHF.  IDoFFX=0 NUNeed=     3.
      3 vectors produced by pass  0 Test12= 7.00D-13 3.33D-08 XBig12= 2.19D+01 6.80D-01.
 AX will form     3 AO Fock derivatives at one time.
      3 vectors produced by pass  1 Test12= 7.00D-13 3.33D-08 XBig12= 5.21D-02 1.15D-01.
      3 vectors produced by pass  2 Test12= 7.00D-13 3.33D-08 XBig12= 5.43D-04 5.96D-03.
      3 vectors produced by pass  3 Test12= 7.00D-13 3.33D-08 XBig12= 2.72D-06 3.59D-04.
      3 vectors produced by pass  4 Test12= 7.00D-13 3.33D-08 XBig12= 1.22D-08 4.60D-05.
      3 vectors produced by pass  5 Test12= 7.00D-13 3.33D-08 XBig12= 7.56D-11 3.97D-06.
      3 vectors produced by pass  6 Test12= 7.00D-13 3.33D-08 XBig12= 3.81D-13 1.81D-07.
 InvSVY:  IOpt=1 It=  1 EMax= 4.44D-16
 Solved reduced A of dimension    21 with     3 vectors.
 Calculating GIAO nuclear magnetic shielding tensors.
 SCF GIAO Magnetic shielding tensor (ppm):
      1  O    Isotropic =  -299.3690   Anisotropy =   986.1142
   XX=  -453.4449   YX=   237.7155   ZX=   400.5731
   XY=   288.8486   YY=  -589.6377   ZY=   -44.5319
   XZ=   401.6907   YZ=    10.0077   ZZ=   144.9755
   Eigenvalues:  -871.1796  -384.9678   358.0404
      2  C    Isotropic =   -27.3962   Anisotropy =   166.3327
   XX=   -40.3510   YX=   -10.0960   ZX=    64.4350
   XY=    -5.2570   YY=   -86.1760   ZY=    20.5392
   XZ=    70.0491   YZ=    30.0986   ZZ=    44.3383
   Eigenvalues:  -102.4275   -63.2535    83.4922
      3  C    Isotropic =   112.2143   Anisotropy =    46.1573
   XX=   111.7479   YX=   -15.8649   ZX=   -14.2683
   XY=   -24.1065   YY=   118.7368   ZY=    14.6590
   XZ=    -6.4704   YZ=    11.1968   ZZ=   106.1582
   Eigenvalues:    94.9215    98.7356   142.9858
      4  O    Isotropic =   233.6725   Anisotropy =    81.8533
   XX=   223.1506   YX=    46.3651   ZX=    15.3171
   XY=    73.3198   YY=   202.1895   ZY=   -10.5417
   XZ=     8.5192   YZ=    24.5268   ZZ=   275.6775
   Eigenvalues:   151.8730   260.9031   288.2414
      5  C    Isotropic =    27.1109   Anisotropy =   142.3594
   XX=   -50.7689   YX=   -19.8926   ZX=    -7.6623
   XY=   -27.3281   YY=    11.6346   ZY=    10.9091
   XZ=   -16.8956   YZ=     2.7770   ZZ=   120.4670
   Eigenvalues:   -59.1973    18.5128   122.0171
      6  C    Isotropic =    64.1054   Anisotropy =   151.0153
   XX=    47.0262   YX=   -23.6858   ZX=    -6.9082
   XY=   -14.1924   YY=   -16.6497   ZY=    14.4072
   XZ=    -9.4661   YZ=    23.2339   ZZ=   161.9399
   Eigenvalues:   -23.2518    50.7859   164.7823
      7  C    Isotropic =    50.7898   Anisotropy =   155.6482
   XX=    -2.9844   YX=    42.6138   ZX=   -19.0200
   XY=    47.6519   YY=     3.9687   ZY=    17.3850
   XZ=   -16.3020   YZ=    18.3341   ZZ=   151.3852
   Eigenvalues:   -47.9337    45.7478   154.5553
      8  C    Isotropic =    49.8478   Anisotropy =   114.1673
   XX=   -30.7353   YX=   -32.1788   ZX=   -12.8688
   XY=   -31.8534   YY=    55.8788   ZY=     3.0357
   XZ=   -13.1486   YZ=     2.6870   ZZ=   124.3999
   Eigenvalues:   -42.0757    65.6598   125.9593
      9  Br   Isotropic =  2096.5225   Anisotropy =  1294.1324
   XX=  2827.6102   YX=   380.7362   ZX=    88.6310
   XY=   375.3229   YY=  1812.2715   ZY=    21.7584
   XZ=    87.6023   YZ=    27.5804   ZZ=  1649.6859
   Eigenvalues:  1642.8882  1687.4019  2959.2775
     10  C    Isotropic =    50.7182   Anisotropy =   139.3387
   XX=    49.3042   YX=   -21.9283   ZX=    -8.2582
   XY=   -22.6436   YY=   -37.1769   ZY=    15.0413
   XZ=   -14.9083   YZ=    18.4335   ZZ=   140.0272
   Eigenvalues:   -43.5928    52.1367   143.6107
     11  C    Isotropic =    57.7620   Anisotropy =   163.0570
   XX=    -4.9115   YX=    28.8273   ZX=   -21.9996
   XY=    27.3685   YY=    16.8469   ZY=    17.3800
   XZ=   -28.2425   YZ=    19.6961   ZZ=   161.3506
   Eigenvalues:   -29.2704    36.0898   166.4667
     12  C    Isotropic =   142.5402   Anisotropy =    29.8066
   XX=   158.7044   YX=    12.8946   ZX=    -3.6920
   XY=     3.9889   YY=   133.2325   ZY=    -5.5681
   XZ=    -5.6640   YZ=    -1.9207   ZZ=   135.6838
   Eigenvalues:   129.6918   135.5176   162.4113
     13  H    Isotropic =    27.3186   Anisotropy =     6.5387
   XX=    31.4465   YX=    -0.2735   ZX=    -0.7998
   XY=    -1.0090   YY=    26.3858   ZY=     0.6844
   XZ=    -0.9289   YZ=     2.3189   ZZ=    24.1236
   Eigenvalues:    23.3445    26.9336    31.6778
     14  H    Isotropic =    27.8164   Anisotropy =     7.2856
   XX=    27.4962   YX=    -2.2218   ZX=    -3.0156
   XY=    -1.3775   YY=    26.0558   ZY=     0.6964
   XZ=    -4.3838   YZ=    -1.4871   ZZ=    29.8971
   Eigenvalues:    23.6114    27.1642    32.6734
     15  H    Isotropic =    24.5851   Anisotropy =     5.4136
   XX=    27.8912   YX=    -1.1527   ZX=     0.5209
   XY=    -0.5585   YY=    24.6271   ZY=    -0.2838
   XZ=     0.9189   YZ=    -0.5632   ZZ=    21.2370
   Eigenvalues:    21.1277    24.4334    28.1941
     16  H    Isotropic =    24.2660   Anisotropy =     8.9142
   XX=    25.6124   YX=     3.8850   ZX=     0.1115
   XY=     3.1503   YY=    27.5133   ZY=    -0.3562
   XZ=     0.2280   YZ=    -0.2887   ZZ=    19.6724
   Eigenvalues:    19.6369    22.9524    30.2088
     17  H    Isotropic =    24.4133   Anisotropy =    10.6389
   XX=    30.7060   YX=    -2.5832   ZX=     1.2781
   XY=    -1.9500   YY=    22.8964   ZY=    -0.5121
   XZ=     1.6435   YZ=    -0.1814   ZZ=    19.6375
   Eigenvalues:    19.4471    22.2869    31.5059
     18  H    Isotropic =    28.3782   Anisotropy =     4.6123
   XX=    29.9820   YX=     0.7917   ZX=     0.4407
   XY=    -0.9781   YY=    31.3566   ZY=     0.7572
   XZ=     0.4215   YZ=     0.9486   ZZ=    23.7960
   Eigenvalues:    23.6704    30.0111    31.4531
     19  H    Isotropic =    28.3680   Anisotropy =     7.5490
   XX=    27.3446   YX=    -1.2888   ZX=     2.2201
   XY=    -1.2102   YY=    26.8245   ZY=    -1.8545
   XZ=     3.0511   YZ=    -2.8309   ZZ=    30.9351
   Eigenvalues:    25.7521    25.9513    33.4007
 End of Minotr F.D. properties file   721 does not exist.
 End of Minotr F.D. properties file   722 does not exist.
 End of Minotr F.D. properties file   788 does not exist.

 **********************************************************************

            Population analysis using the SCF Density.

 **********************************************************************

 Orbital symmetries:
       Occupied  (A) (A) (A) (A) (A) (A) (A) (A) (A) (A) (A) (A)
                 (A) (A) (A) (A) (A) (A) (A) (A) (A) (A) (A) (A)
                 (A) (A) (A) (A) (A) (A) (A) (A) (A) (A) (A) (A)
                 (A) (A) (A) (A) (A) (A) (A) (A) (A) (A) (A) (A)
                 (A) (A) (A) (A) (A) (A) (A) (A)
       Virtual   (A) (A) (A) (A) (A) (A) (A) (A) (A) (A) (A) (A)
                 (A) (A) (A) (A) (A) (A) (A) (A) (A) (A) (A) (A)
                 (A) (A) (A) (A) (A) (A) (A) (A) (A) (A) (A) (A)
                 (A) (A) (A) (A) (A) (A) (A) (A) (A) (A) (A) (A)
                 (A) (A) (A) (A) (A) (A) (A) (A) (A) (A) (A) (A)
                 (A) (A) (A) (A) (A) (A) (A) (A) (A) (A) (A) (A)
                 (A) (A) (A) (A) (A) (A) (A) (A) (A) (A) (A) (A)
                 (A) (A) (A) (A) (A) (A) (A) (A) (A) (A) (A) (A)
                 (A) (A) (A) (A) (A) (A) (A) (A) (A) (A) (A) (A)
                 (A) (A) (A) (A) (A) (A) (A) (A) (A) (A) (A) (A)
                 (A) (A) (A) (A) (A) (A) (A) (A) (A) (A) (A) (A)
                 (A) (A) (A) (A) (A) (A) (A) (A) (A) (A) (A) (A)
                 (A) (A) (A) (A) (A) (A) (A) (A) (A) (A) (A) (A)
                 (A) (A) (A) (A) (A) (A) (A) (A) (A) (A) (A) (A)
                 (A) (A) (A) (A) (A) (A) (A) (A) (A) (A) (A) (A)
                 (A) (A) (A) (A) (A) (A) (A) (A) (A) (A) (A) (A)
                 (A) (A) (A) (A) (A) (A) (A) (A) (A) (A) (A) (A)
                 (A) (A) (A) (A) (A) (A) (A) (A) (A) (A) (A) (A)
                 (A) (A) (A) (A) (A) (A) (A) (A) (A) (A) (A) (A)
                 (A) (A) (A) (A) (A) (A) (A) (A) (A) (A) (A) (A)
                 (A) (A) (A) (A) (A) (A) (A) (A) (A) (A) (A) (A)
                 (A) (A) (A) (A) (A) (A) (A) (A) (A) (A) (A) (A)
                 (A) (A) (A) (A) (A) (A) (A) (A) (A) (A) (A) (A)
                 (A) (A) (A) (A) (A) (A) (A) (A) (A) (A) (A) (A)
                 (A) (A) (A) (A) (A) (A) (A) (A) (A) (A) (A) (A)
                 (A) (A) (A) (A) (A) (A) (A) (A) (A) (A) (A) (A)
                 (A) (A) (A) (A) (A) (A) (A) (A) (A) (A) (A) (A)
                 (A) (A) (A) (A) (A) (A) (A) (A) (A) (A) (A) (A)
                 (A) (A) (A) (A) (A) (A) (A) (A) (A) (A) (A) (A)
                 (A) (A) (A) (A) (A) (A) (A) (A) (A) (A) (A) (A)
                 (A) (A) (A) (A) (A) (A) (A) (A) (A) (A) (A) (A)
                 (A) (A) (A)
 The electronic state is 1-A.
 Alpha  occ. eigenvalues -- -483.34901 -62.68000 -56.46027 -56.45683 -56.45676
 Alpha  occ. eigenvalues --  -19.26956 -19.22837 -10.34494 -10.31291 -10.31191
 Alpha  occ. eigenvalues --  -10.30387 -10.27210 -10.26879 -10.26376 -10.26194
 Alpha  occ. eigenvalues --  -10.25755  -8.78405  -6.59678  -6.58576  -6.58552
 Alpha  occ. eigenvalues --   -2.68341  -2.68013  -2.67995  -2.67093  -2.67093
 Alpha  occ. eigenvalues --   -1.12459  -1.09757  -0.92026  -0.85213  -0.83530
 Alpha  occ. eigenvalues --   -0.78681  -0.77096  -0.72069  -0.65638  -0.64380
 Alpha  occ. eigenvalues --   -0.58250  -0.56310  -0.53388  -0.52957  -0.49299
 Alpha  occ. eigenvalues --   -0.48770  -0.47505  -0.46709  -0.45867  -0.44194
 Alpha  occ. eigenvalues --   -0.43219  -0.41805  -0.39725  -0.39410  -0.37226
 Alpha  occ. eigenvalues --   -0.35872  -0.31950  -0.30994  -0.29401  -0.27542
 Alpha  occ. eigenvalues --   -0.25136
 Alpha virt. eigenvalues --   -0.04226  -0.02420  -0.02020   0.00147   0.03960
 Alpha virt. eigenvalues --    0.06865   0.07343   0.08558   0.09100   0.10804
 Alpha virt. eigenvalues --    0.11048   0.11774   0.13154   0.14137   0.15298
 Alpha virt. eigenvalues --    0.16143   0.16708   0.18775   0.19680   0.20137
 Alpha virt. eigenvalues --    0.20557   0.21432   0.21858   0.22383   0.23598
 Alpha virt. eigenvalues --    0.23996   0.25707   0.26256   0.27706   0.28438
 Alpha virt. eigenvalues --    0.28464   0.29087   0.29743   0.30209   0.30627
 Alpha virt. eigenvalues --    0.31886   0.32409   0.33543   0.34677   0.35159
 Alpha virt. eigenvalues --    0.36450   0.37653   0.37697   0.38865   0.39303
 Alpha virt. eigenvalues --    0.40004   0.40682   0.41462   0.42246   0.42467
 Alpha virt. eigenvalues --    0.43015   0.43692   0.44221   0.45102   0.45825
 Alpha virt. eigenvalues --    0.46061   0.47916   0.49115   0.49957   0.50397
 Alpha virt. eigenvalues --    0.53047   0.53489   0.54260   0.55875   0.56385
 Alpha virt. eigenvalues --    0.58124   0.59285   0.59685   0.61182   0.62940
 Alpha virt. eigenvalues --    0.64760   0.65933   0.67437   0.67796   0.69504
 Alpha virt. eigenvalues --    0.70637   0.70980   0.72465   0.73003   0.74621
 Alpha virt. eigenvalues --    0.78042   0.78447   0.79497   0.80840   0.81536
 Alpha virt. eigenvalues --    0.81993   0.83847   0.84675   0.85843   0.87823
 Alpha virt. eigenvalues --    0.89146   0.90471   0.91250   0.92529   0.93612
 Alpha virt. eigenvalues --    0.95580   0.96519   0.96764   0.98410   0.99628
 Alpha virt. eigenvalues --    1.02624   1.03684   1.04195   1.05631   1.08427
 Alpha virt. eigenvalues --    1.09110   1.10029   1.11404   1.15253   1.16149
 Alpha virt. eigenvalues --    1.17913   1.19769   1.20131   1.21903   1.22379
 Alpha virt. eigenvalues --    1.23383   1.24246   1.27059   1.28523   1.30226
 Alpha virt. eigenvalues --    1.32327   1.35191   1.35951   1.37148   1.37511
 Alpha virt. eigenvalues --    1.38722   1.41182   1.42033   1.42471   1.44525
 Alpha virt. eigenvalues --    1.47185   1.48283   1.49102   1.49432   1.51182
 Alpha virt. eigenvalues --    1.52482   1.53760   1.54059   1.55396   1.56189
 Alpha virt. eigenvalues --    1.57483   1.58815   1.59154   1.60563   1.61296
 Alpha virt. eigenvalues --    1.62626   1.62756   1.63591   1.64961   1.66133
 Alpha virt. eigenvalues --    1.67846   1.68497   1.69658   1.70944   1.72877
 Alpha virt. eigenvalues --    1.73474   1.74233   1.76908   1.78688   1.80460
 Alpha virt. eigenvalues --    1.82430   1.84207   1.86039   1.88618   1.89035
 Alpha virt. eigenvalues --    1.90007   1.91603   1.93237   1.93452   1.96037
 Alpha virt. eigenvalues --    1.96176   1.99880   2.00519   2.02714   2.03966
 Alpha virt. eigenvalues --    2.06651   2.08150   2.10366   2.14551   2.15137
 Alpha virt. eigenvalues --    2.17523   2.17705   2.19204   2.19254   2.21164
 Alpha virt. eigenvalues --    2.23755   2.25821   2.27960   2.29237   2.32482
 Alpha virt. eigenvalues --    2.34557   2.36494   2.40704   2.41415   2.44187
 Alpha virt. eigenvalues --    2.46104   2.47464   2.49587   2.52030   2.52480
 Alpha virt. eigenvalues --    2.54907   2.55755   2.57531   2.61394   2.62280
 Alpha virt. eigenvalues --    2.63010   2.64745   2.65605   2.68020   2.68838
 Alpha virt. eigenvalues --    2.70989   2.72321   2.72497   2.73561   2.74422
 Alpha virt. eigenvalues --    2.77457   2.78937   2.80237   2.81169   2.83350
 Alpha virt. eigenvalues --    2.84038   2.84083   2.86694   2.88589   2.89231
 Alpha virt. eigenvalues --    2.91113   2.92886   2.94013   2.94783   2.96913
 Alpha virt. eigenvalues --    2.98004   2.99656   3.01175   3.03256   3.03420
 Alpha virt. eigenvalues --    3.04475   3.06848   3.08525   3.09035   3.10717
 Alpha virt. eigenvalues --    3.12198   3.13284   3.15302   3.16653   3.18192
 Alpha virt. eigenvalues --    3.19342   3.19981   3.21433   3.21979   3.22704
 Alpha virt. eigenvalues --    3.24918   3.26674   3.27665   3.28983   3.29646
 Alpha virt. eigenvalues --    3.30461   3.32297   3.33238   3.35029   3.37178
 Alpha virt. eigenvalues --    3.37813   3.39533   3.41230   3.42126   3.44169
 Alpha virt. eigenvalues --    3.44265   3.45538   3.46259   3.46872   3.48162
 Alpha virt. eigenvalues --    3.48788   3.51245   3.52699   3.54176   3.57377
 Alpha virt. eigenvalues --    3.60672   3.61271   3.63227   3.65669   3.67009
 Alpha virt. eigenvalues --    3.68660   3.71698   3.72681   3.75791   3.77156
 Alpha virt. eigenvalues --    3.82483   3.83831   3.87688   3.88934   3.92302
 Alpha virt. eigenvalues --    3.92914   3.94766   3.98844   4.02358   4.02641
 Alpha virt. eigenvalues --    4.03744   4.05867   4.07437   4.10685   4.12284
 Alpha virt. eigenvalues --    4.15642   4.17539   4.18903   4.21154   4.21471
 Alpha virt. eigenvalues --    4.24104   4.24844   4.26298   4.27549   4.30603
 Alpha virt. eigenvalues --    4.32400   4.34564   4.38819   4.39651   4.41924
 Alpha virt. eigenvalues --    4.42832   4.49020   4.51721   4.54960   4.57961
 Alpha virt. eigenvalues --    4.59170   4.62101   4.65097   4.69895   4.71087
 Alpha virt. eigenvalues --    4.78250   4.81903   4.85092   4.86487   4.90589
 Alpha virt. eigenvalues --    4.92993   4.97974   5.07540   5.15000   5.18575
 Alpha virt. eigenvalues --    5.20053   5.21205   5.32293   5.39558   5.43823
 Alpha virt. eigenvalues --    5.45656   5.52688   5.57479   5.62270   5.71547
 Alpha virt. eigenvalues --    5.94725   5.94969   6.03206   6.15722   6.32767
 Alpha virt. eigenvalues --    6.40141   6.40456   6.48365   6.56421   6.60476
 Alpha virt. eigenvalues --    6.72653   6.82148   6.83617   6.97910   7.01247
 Alpha virt. eigenvalues --    7.10549   7.24543   7.37854   7.79427  22.10795
 Alpha virt. eigenvalues --   22.52145  22.61372  22.75033  22.82125  22.94005
 Alpha virt. eigenvalues --   22.98075  23.14865  23.48352  43.95847  44.33462
          Condensed to atoms (all electrons):
               1          2          3          4          5          6
     1  O    7.758199   0.681376  -0.091389   0.004224   0.003989  -0.000170
     2  C    0.681376   4.726655   0.316002  -0.047412  -0.014105   0.004060
     3  C   -0.091389   0.316002   5.021742   0.258040  -0.067343  -0.006986
     4  O    0.004224  -0.047412   0.258040   7.866580   0.323005  -0.033781
     5  C    0.003989  -0.014105  -0.067343   0.323005   5.134331   0.219270
     6  C   -0.000170   0.004060  -0.006986  -0.033781   0.219270   5.381542
     7  C    0.000016  -0.000821   0.002754   0.003905   0.136264   0.223067
     8  C   -0.000080   0.000507  -0.002279   0.000026  -0.166746   0.158295
     9  Br  -0.000000   0.000028  -0.000027   0.000006  -0.002381   0.019274
    10  C   -0.000553  -0.006287   0.006535   0.006047   0.118924  -0.224428
    11  C    0.016824   0.022930   0.074140  -0.114118   0.209861   0.124542
    12  C   -0.129159   0.302510  -0.280545   0.059527  -0.076811   0.004234
    13  H    0.005771  -0.019407   0.377716  -0.025277   0.003140  -0.001942
    14  H    0.005095  -0.038592   0.368446  -0.041565   0.022421   0.011118
    15  H   -0.000006   0.000425  -0.000249   0.008938  -0.083173   0.453687
    16  H    0.000000  -0.000016   0.000063  -0.000169   0.018692  -0.075318
    17  H    0.000034  -0.000117   0.000126  -0.000237   0.011077  -0.004110
    18  H    0.010736  -0.018214   0.013651  -0.000545   0.003658  -0.000192
    19  H    0.003460  -0.002169   0.005934  -0.000623   0.003501   0.003314
               7          8          9         10         11         12
     1  O    0.000016  -0.000080  -0.000000  -0.000553   0.016824  -0.129159
     2  C   -0.000821   0.000507   0.000028  -0.006287   0.022930   0.302510
     3  C    0.002754  -0.002279  -0.000027   0.006535   0.074140  -0.280545
     4  O    0.003905   0.000026   0.000006   0.006047  -0.114118   0.059527
     5  C    0.136264  -0.166746  -0.002381   0.118924   0.209861  -0.076811
     6  C    0.223067   0.158295   0.019274  -0.224428   0.124542   0.004234
     7  C    5.189771   0.312175  -0.076036   0.111264  -0.164072  -0.001832
     8  C    0.312175   4.903816   0.318992   0.302966   0.116324   0.015105
     9  Br  -0.076036   0.318992  34.897659  -0.074717   0.019869  -0.000966
    10  C    0.111264   0.302966  -0.074717   5.462905   0.185594  -0.057521
    11  C   -0.164072   0.116324   0.019869   0.185594   5.504578   0.027991
    12  C   -0.001832   0.015105  -0.000966  -0.057521   0.027991   5.578319
    13  H    0.000094  -0.000039   0.000000   0.000237  -0.001525   0.011287
    14  H   -0.001617   0.000605   0.000003  -0.003383  -0.014523   0.012835
    15  H   -0.064570   0.015592  -0.000380  -0.005162   0.020893  -0.001054
    16  H    0.454779  -0.069279  -0.004202   0.019477  -0.006714   0.000115
    17  H    0.016006  -0.054614  -0.003038   0.444113  -0.070533  -0.005502
    18  H    0.000099   0.000128  -0.000025   0.002406  -0.015710   0.357288
    19  H   -0.000510   0.000250   0.000003  -0.009749  -0.007327   0.317000
              13         14         15         16         17         18
     1  O    0.005771   0.005095  -0.000006   0.000000   0.000034   0.010736
     2  C   -0.019407  -0.038592   0.000425  -0.000016  -0.000117  -0.018214
     3  C    0.377716   0.368446  -0.000249   0.000063   0.000126   0.013651
     4  O   -0.025277  -0.041565   0.008938  -0.000169  -0.000237  -0.000545
     5  C    0.003140   0.022421  -0.083173   0.018692   0.011077   0.003658
     6  C   -0.001942   0.011118   0.453687  -0.075318  -0.004110  -0.000192
     7  C    0.000094  -0.001617  -0.064570   0.454779   0.016006   0.000099
     8  C   -0.000039   0.000605   0.015592  -0.069279  -0.054614   0.000128
     9  Br   0.000000   0.000003  -0.000380  -0.004202  -0.003038  -0.000025
    10  C    0.000237  -0.003383  -0.005162   0.019477   0.444113   0.002406
    11  C   -0.001525  -0.014523   0.020893  -0.006714  -0.070533  -0.015710
    12  C    0.011287   0.012835  -0.001054   0.000115  -0.005502   0.357288
    13  H    0.526361  -0.021596  -0.000180  -0.000001  -0.000003  -0.000419
    14  H   -0.021596   0.587223   0.000001  -0.000000  -0.000041  -0.000637
    15  H   -0.000180   0.000001   0.543201  -0.010137   0.000084   0.000023
    16  H   -0.000001  -0.000000  -0.010137   0.539488  -0.000103   0.000000
    17  H   -0.000003  -0.000041   0.000084  -0.000103   0.534062   0.003709
    18  H   -0.000419  -0.000637   0.000023   0.000000   0.003709   0.517791
    19  H   -0.000899   0.000387   0.000049  -0.000002   0.000072  -0.013417
              19
     1  O    0.003460
     2  C   -0.002169
     3  C    0.005934
     4  O   -0.000623
     5  C    0.003501
     6  C    0.003314
     7  C   -0.000510
     8  C    0.000250
     9  Br   0.000003
    10  C   -0.009749
    11  C   -0.007327
    12  C    0.317000
    13  H   -0.000899
    14  H    0.000387
    15  H    0.000049
    16  H   -0.000002
    17  H    0.000072
    18  H   -0.013417
    19  H    0.566531
 Mulliken charges:
               1
     1  O   -0.268368
     2  C    0.092647
     3  C    0.003669
     4  O   -0.266569
     5  C    0.202427
     6  C   -0.255477
     7  C   -0.140735
     8  C    0.148258
     9  Br  -0.094064
    10  C   -0.278669
    11  C    0.070976
    12  C   -0.132823
    13  H    0.146681
    14  H    0.113819
    15  H    0.122017
    16  H    0.133326
    17  H    0.129016
    18  H    0.139670
    19  H    0.134197
 Sum of Mulliken charges =  -0.00000
 Mulliken charges with hydrogens summed into heavy atoms:
               1
     1  O   -0.268368
     2  C    0.092647
     3  C    0.264169
     4  O   -0.266569
     5  C    0.202427
     6  C   -0.133460
     7  C   -0.007409
     8  C    0.148258
     9  Br  -0.094064
    10  C   -0.149653
    11  C    0.070976
    12  C    0.141045
 Electronic spatial extent (au):  <R**2>=           3524.5408
 Charge=             -0.0000 electrons
 Dipole moment (field-independent basis, Debye):
    X=              0.0351    Y=              1.2544    Z=              0.4326  Tot=              1.3274
 Quadrupole moment (field-independent basis, Debye-Ang):
   XX=            -91.2329   YY=            -79.1860   ZZ=            -81.5515
   XY=              5.5877   XZ=              2.3001   YZ=             -3.8154
 Traceless Quadrupole moment (field-independent basis, Debye-Ang):
   XX=             -7.2428   YY=              4.8041   ZZ=              2.4386
   XY=              5.5877   XZ=              2.3001   YZ=             -3.8154
 Octapole moment (field-independent basis, Debye-Ang**2):
  XXX=           -117.9658  YYY=             -3.0254  ZZZ=             -3.7028  XYY=            -47.1788
  XXY=             37.6176  XXZ=              8.9238  XZZ=            -19.0531  YZZ=             -6.6552
  YYZ=             -0.4336  XYZ=            -10.5463
 Hexadecapole moment (field-independent basis, Debye-Ang**3):
 XXXX=          -3364.1857 YYYY=           -654.7989 ZZZZ=           -137.5362 XXXY=            250.8004
 XXXZ=             69.5442 YYYX=             44.2417 YYYZ=             -5.9457 ZZZX=              6.7369
 ZZZY=              0.7438 XXYY=           -715.4795 XXZZ=           -550.9965 YYZZ=           -145.0262
 XXYZ=            -38.4677 YYXZ=             10.4357 ZZXY=             11.6999
 N-N= 9.088638546998D+02 E-N=-9.130779688176D+03  KE= 3.066145596585D+03
 Unable to Open any file for archive entry.
 1\1\GINC-DYNAMO\SP\RmPW1PW91\def2TZVP\C9H7Br1O2\RPATON\24-Sep-2024\0\\
 # nmr=giao mpw1pw91/def2tzvp\\arbr47_wb97xd_nmrcreated by GaussianPrep
 \\0,1\O,0,-4.175534,-1.581028,0.487284\C,0,-3.317935,-0.822637,0.12644
 9\C,0,-3.437733,0.670273,0.387283\O,0,-2.490127,1.466638,-0.296746\C,0
 ,-1.200551,1.033028,-0.194482\C,0,-0.18853,1.962311,-0.021326\C,0,1.12
 6695,1.536791,0.056234\C,0,1.410215,0.183084,-0.027332\Br,0,3.205651,-
 0.407056,0.10295\C,0,0.400452,-0.746576,-0.207247\C,0,-0.91619,-0.3237
 23,-0.309332\C,0,-2.057913,-1.259155,-0.586299\H,0,-4.42541,1.006333,0
 .076188\H,0,-3.349032,0.820197,1.470481\H,0,-0.440022,3.011724,0.05422
 8\H,0,1.923928,2.253991,0.193511\H,0,0.636002,-1.800343,-0.282868\H,0,
 -1.83598,-2.292657,-0.324631\H,0,-2.293051,-1.237529,-1.658147\\Versio
 n=ES64L-G16RevC.01\State=1-A\HF=-3072.0218261\RMSD=8.874e-09\Dipole=-0
 .013807,0.4935164,-0.1702002\Quadrupole=-5.3848208,3.5717646,1.8130562
 ,-4.154301,1.7100942,2.8366817\PG=C01 [X(C9H7Br1O2)]\\@
 The archive entry for this job was punched.


 EXPERIENCE IS A WONDERFUL THING.  IT ENABLES
 YOU TO RECOGNIZE A MISTAKE WHEN YOU MAKE IT AGAIN.
           - BACK OF A SUGAR PACKET
 Job cpu time:       0 days  0 hours 47 minutes 48.0 seconds.
 Elapsed time:       0 days  0 hours  2 minutes  4.8 seconds.
 File lengths (MBytes):  RWF=    112 Int=      0 D2E=      0 Chk=     15 Scr=      1
 Normal termination of Gaussian 16 at Tue Sep 24 00:08:54 2024.
