 Entering Gaussian System, Link 0=/usr/local/Gaussian/G16C/g16/g16
 Input=arbr42_wb97xd_nmr.com
 Output=arbr42_wb97xd_nmr.log
 Initial command:
 /usr/local/Gaussian/G16C/g16/l1.exe "/home/rpaton/opt/tzvp/nmr/Gau-3137434.inp" -scrdir="/home/rpaton/opt/tzvp/nmr/"
 Entering Link 1 = /usr/local/Gaussian/G16C/g16/l1.exe PID=   3137435.
  
 Copyright (c) 1988-2019, Gaussian, Inc.  All Rights Reserved.
  
 This is part of the Gaussian(R) 16 program.  It is based on
 the Gaussian(R) 09 system (copyright 2009, Gaussian, Inc.),
 the Gaussian(R) 03 system (copyright 2003, Gaussian, Inc.),
 the Gaussian(R) 98 system (copyright 1998, Gaussian, Inc.),
 the Gaussian(R) 94 system (copyright 1995, Gaussian, Inc.),
 the Gaussian 92(TM) system (copyright 1992, Gaussian, Inc.),
 the Gaussian 90(TM) system (copyright 1990, Gaussian, Inc.),
 the Gaussian 88(TM) system (copyright 1988, Gaussian, Inc.),
 the Gaussian 86(TM) system (copyright 1986, Carnegie Mellon
 University), and the Gaussian 82(TM) system (copyright 1983,
 Carnegie Mellon University). Gaussian is a federally registered
 trademark of Gaussian, Inc.
  
 This software contains proprietary and confidential information,
 including trade secrets, belonging to Gaussian, Inc.
  
 This software is provided under written license and may be
 used, copied, transmitted, or stored only in accord with that
 written license.
  
 The following legend is applicable only to US Government
 contracts under FAR:
  
                    RESTRICTED RIGHTS LEGEND
  
 Use, reproduction and disclosure by the US Government is
 subject to restrictions as set forth in subparagraphs (a)
 and (c) of the Commercial Computer Software - Restricted
 Rights clause in FAR 52.227-19.
  
 Gaussian, Inc.
 340 Quinnipiac St., Bldg. 40, Wallingford CT 06492
  
  
 ---------------------------------------------------------------
 Warning -- This program may not be used in any manner that
 competes with the business of Gaussian, Inc. or will provide
 assistance to any competitor of Gaussian, Inc.  The licensee
 of this program is prohibited from giving any competitor of
 Gaussian, Inc. access to this program.  By using this program,
 the user acknowledges that Gaussian, Inc. is engaged in the
 business of creating and licensing software in the field of
 computational chemistry and represents and warrants to the
 licensee that it is not a competitor of Gaussian, Inc. and that
 it will not use this program in any manner prohibited above.
 ---------------------------------------------------------------
  

 Cite this work as:
 Gaussian 16, Revision C.01,
 M. J. Frisch, G. W. Trucks, H. B. Schlegel, G. E. Scuseria, 
 M. A. Robb, J. R. Cheeseman, G. Scalmani, V. Barone, 
 G. A. Petersson, H. Nakatsuji, X. Li, M. Caricato, A. V. Marenich, 
 J. Bloino, B. G. Janesko, R. Gomperts, B. Mennucci, H. P. Hratchian, 
 J. V. Ortiz, A. F. Izmaylov, J. L. Sonnenberg, D. Williams-Young, 
 F. Ding, F. Lipparini, F. Egidi, J. Goings, B. Peng, A. Petrone, 
 T. Henderson, D. Ranasinghe, V. G. Zakrzewski, J. Gao, N. Rega, 
 G. Zheng, W. Liang, M. Hada, M. Ehara, K. Toyota, R. Fukuda, 
 J. Hasegawa, M. Ishida, T. Nakajima, Y. Honda, O. Kitao, H. Nakai, 
 T. Vreven, K. Throssell, J. A. Montgomery, Jr., J. E. Peralta, 
 F. Ogliaro, M. J. Bearpark, J. J. Heyd, E. N. Brothers, K. N. Kudin, 
 V. N. Staroverov, T. A. Keith, R. Kobayashi, J. Normand, 
 K. Raghavachari, A. P. Rendell, J. C. Burant, S. S. Iyengar, 
 J. Tomasi, M. Cossi, J. M. Millam, M. Klene, C. Adamo, R. Cammi, 
 J. W. Ochterski, R. L. Martin, K. Morokuma, O. Farkas, 
 J. B. Foresman, and D. J. Fox, Gaussian, Inc., Wallingford CT, 2019.
 
 ******************************************
 Gaussian 16:  ES64L-G16RevC.01  3-Jul-2019
                23-Sep-2024 
 ******************************************
 %chk=arbr42_wb97xd_nmr.chk
 %mem=48GB
 %nprocshared=24
 Will use up to   24 processors via shared memory.
 ----------------------------
 # nmr=giao mpw1pw91/def2tzvp
 ----------------------------
 1/38=1,172=1/1;
 2/12=2,17=6,18=5,40=1/2;
 3/5=44,7=101,11=2,25=1,30=1,74=-7/1,2,3,8;
 4//1;
 5/5=2,38=5/2;
 8/6=1,10=90,11=11/1;
 10/13=100,45=16/2;
 6/7=2,8=2,9=2,10=2,28=1/1;
 99/9=1/99;
 ----------------------------------------
 arbr42_wb97xd_nmrcreated by GaussianPrep
 ----------------------------------------
 Symbolic Z-matrix:
 Charge =  0 Multiplicity = 1
 Br                   -3.42039  -0.49755  -0.03971 
 C                    -1.76231   0.423     0.00033 
 C                    -1.74582   1.79527   0.18774 
 C                    -0.52813   2.44851   0.19762 
 C                     0.67356   1.76398   0.03712 
 C                     0.63361   0.38056  -0.13125 
 C                    -0.58852  -0.28292  -0.1624 
 C                     1.92092  -0.42906  -0.21877 
 C                     3.09041   0.41665  -0.68934 
 C                     3.20745   1.67167   0.16277 
 C                     1.96795   2.54035  -0.00888 
 O                     1.72724  -1.54909  -1.05984 
 C                     2.12051  -2.71464  -0.36165 
 C                     1.90151  -2.31682   1.08487 
 O                     2.24489  -0.94874   1.06856 
 H                    -2.66858   2.3441    0.3162 
 H                    -0.50856   3.52416   0.33176 
 H                    -0.61427  -1.34893  -0.33587 
 H                     3.99261  -0.19386  -0.63351 
 H                     2.9215    0.67757  -1.73762 
 H                     4.09839   2.23791  -0.11281 
 H                     3.32159   1.38083   1.2094 
 H                     1.94502   3.33034   0.7446 
 H                     2.01797   3.04608  -0.97991 
 H                     1.49782  -3.54501  -0.69319 
 H                     3.17298  -2.94795  -0.55678 
 H                     2.55526  -2.82936   1.78904 
 H                     0.85816  -2.45825   1.38954 
 
                          Input orientation:                          
 ---------------------------------------------------------------------
 Center     Atomic      Atomic             Coordinates (Angstroms)
 Number     Number       Type             X           Y           Z
 ---------------------------------------------------------------------
      1         35           0       -3.420394   -0.497550   -0.039705
      2          6           0       -1.762308    0.422996    0.000332
      3          6           0       -1.745816    1.795267    0.187744
      4          6           0       -0.528128    2.448515    0.197619
      5          6           0        0.673560    1.763976    0.037120
      6          6           0        0.633609    0.380557   -0.131247
      7          6           0       -0.588518   -0.282921   -0.162404
      8          6           0        1.920919   -0.429060   -0.218770
      9          6           0        3.090406    0.416648   -0.689341
     10          6           0        3.207452    1.671665    0.162771
     11          6           0        1.967947    2.540354   -0.008875
     12          8           0        1.727242   -1.549088   -1.059837
     13          6           0        2.120510   -2.714637   -0.361651
     14          6           0        1.901508   -2.316815    1.084873
     15          8           0        2.244887   -0.948742    1.068564
     16          1           0       -2.668581    2.344100    0.316203
     17          1           0       -0.508555    3.524157    0.331763
     18          1           0       -0.614272   -1.348935   -0.335874
     19          1           0        3.992606   -0.193860   -0.633513
     20          1           0        2.921495    0.677565   -1.737615
     21          1           0        4.098394    2.237905   -0.112814
     22          1           0        3.321589    1.380830    1.209400
     23          1           0        1.945022    3.330343    0.744598
     24          1           0        2.017973    3.046082   -0.979914
     25          1           0        1.497824   -3.545012   -0.693187
     26          1           0        3.172982   -2.947952   -0.556775
     27          1           0        2.555257   -2.829355    1.789037
     28          1           0        0.858158   -2.458254    1.389540
 ---------------------------------------------------------------------
                    Distance matrix (angstroms):
                    1          2          3          4          5
     1  Br   0.000000
     2  C    1.896907   0.000000
     3  C    2.848325   1.385108   0.000000
     4  C    4.135314   2.380094   1.381881   0.000000
     5  C    4.677698   2.780833   2.424262   1.392267   0.000000
     6  C    4.149023   2.399903   2.786543   2.394626   1.394199
     7  C    2.842647   1.379342   2.404331   2.755722   2.412973
     8  C    5.344753   3.786841   4.307880   3.801532   2.535900
     9  C    6.606686   4.901482   5.104793   4.243698   2.860801
    10  C    6.976735   5.126800   4.954873   3.815661   2.538684
    11  C    6.185793   4.289300   3.792868   2.506285   1.510072
    12  O    5.352061   4.146086   4.980291   4.759067   3.645539
    13  C    5.976683   5.005202   5.965697   5.829769   4.723416
    14  C    5.735594   4.701738   5.569294   5.422059   4.388451
    15  O    5.790271   4.368111   4.922514   4.470963   3.300270
    16  H    2.960890   2.147498   1.081302   2.146277   3.403577
    17  H    4.979048   3.361390   2.130872   1.084151   2.140665
    18  H    2.947354   2.137934   3.382392   3.835709   3.389373
    19  H    7.442943   5.822483   6.128668   5.301883   3.911386
    20  H    6.669584   5.002327   5.171079   4.333739   3.063198
    21  H    8.001264   6.136328   5.868650   4.641706   3.460719
    22  H    7.109354   5.312749   5.185955   4.121162   2.921147
    23  H    6.637438   4.769790   4.035942   2.682029   2.137907
    24  H    6.558747   4.704465   4.134498   2.868153   2.117924
    25  H    5.822622   5.182134   6.309978   6.389083   5.422003
    26  H    7.052974   6.002562   6.873646   6.587047   5.366758
    27  H    6.670084   5.693735   6.515405   6.316311   5.263904
    28  H    4.918649   4.135014   5.130052   5.236301   4.437380
                    6          7          8          9         10
     6  C    0.000000
     7  C    1.390959   0.000000
     8  C    1.523255   2.514321   0.000000
     9  C    2.519647   3.781738   1.518012   0.000000
    10  C    2.894490   4.282001   2.492747   1.521467   0.000000
    11  C    2.541684   3.811819   2.977194   2.496613   1.523304
    12  O    2.404546   2.787707   1.413990   2.420661   3.749539
    13  C    3.441538   3.645789   2.298720   3.294393   4.549297
    14  C    3.219058   3.448573   2.294228   3.468881   4.296945
    15  O    2.408900   3.160187   1.425571   2.381055   2.934881
    16  H    3.867838   3.384814   5.388889   6.155658   5.916373
    17  H    3.376557   3.839849   4.672618   4.863310   4.155598
    18  H    2.142480   1.080343   2.699459   4.119085   4.896759
    19  H    3.444574   4.606145   2.125845   1.090780   2.175022
    20  H    2.811237   3.965352   2.129005   1.093383   2.163671
    21  H    3.931261   5.322045   3.444608   2.159954   1.091033
    22  H    3.165931   4.465294   2.697637   2.142034   1.092266
    23  H    3.344869   4.505236   3.880950   3.443502   2.164131
    24  H    3.121173   4.306318   3.558844   2.854552   2.147001
    25  H    4.058662   3.908426   3.180132   4.269787   5.556007
    26  H    4.208142   4.626748   2.833148   3.368223   4.675446
    27  H    4.205206   4.491745   3.192975   4.118893   4.830039
    28  H    3.228322   3.038663   2.798884   4.191627   4.907176
                   11         12         13         14         15
    11  C    0.000000
    12  O    4.229184   0.000000
    13  C    5.269028   1.414436   0.000000
    14  C    4.979236   2.284634   1.516132   0.000000
    15  O    3.662153   2.271225   2.275823   1.410602   0.000000
    16  H    4.652052   6.031058   6.998978   6.572724   5.962468
    17  H    2.686441   5.716044   6.805539   6.363374   5.303880
    18  H    4.679888   2.459039   3.056933   3.047042   3.210513
    19  H    3.459096   2.673999   3.151661   3.439837   2.553710
    20  H    2.714365   2.616029   3.747251   4.239472   3.313203
    21  H    2.154317   4.567333   5.338691   5.196752   3.871158
    22  H    2.158943   4.034328   4.547927   3.962918   2.570219
    23  H    1.091939   5.206944   6.147875   5.657568   4.301795
    24  H    1.095984   4.605052   5.794708   5.747832   4.495150
    25  H    6.141741   2.042248   1.089576   2.198392   3.225289
    26  H    5.645689   2.073658   1.095539   2.170251   2.738600
    27  H    5.693083   3.231219   2.197185   1.089005   2.037674
    28  H    5.307851   2.753423   2.173922   1.096087   2.074770
                   16         17         18         19         20
    16  H    0.000000
    17  H    2.461400   0.000000
    18  H    4.275967   4.919750   0.000000
    19  H    7.191287   5.917420   4.758793   0.000000
    20  H    6.184210   4.914332   4.309667   1.767965   0.000000
    21  H    6.781392   4.803756   5.926584   2.489136   2.541600
    22  H    6.132522   4.475947   5.032941   2.515202   3.056068
    23  H    4.737249   2.495603   5.441787   4.302534   3.761929
    24  H    4.912890   2.886589   5.163301   3.810038   2.645815
    25  H    7.284191   7.419517   3.067797   4.178243   4.576879
    26  H    7.930433   7.498761   4.116910   2.874490   3.821257
    27  H    7.498157   7.202618   4.093019   3.857532   4.986972
    28  H    6.054134   6.227041   2.525013   4.364056   4.885675
                   21         22         23         24         25
    21  H    0.000000
    22  H    1.756774   0.000000
    23  H    2.562340   2.431374   0.000000
    24  H    2.394403   3.043941   1.749305   0.000000
    25  H    6.367254   5.586580   7.038304   6.617801   0.000000
    26  H    5.286455   4.677586   6.528280   6.118949   1.783604
    27  H    5.628093   4.318437   6.277350   6.517402   2.791373
    28  H    5.900009   4.565031   5.924954   6.103867   2.434742
                   26         27         28
    26  H    0.000000
    27  H    2.428679   0.000000
    28  H    3.063716   1.782543   0.000000
 Stoichiometry    C12H13BrO2
 Framework group  C1[X(C12H13BrO2)]
 Deg. of freedom    78
 Full point group                 C1      NOp   1
 Largest Abelian subgroup         C1      NOp   1
 Largest concise Abelian subgroup C1      NOp   1
                         Standard orientation:                         
 ---------------------------------------------------------------------
 Center     Atomic      Atomic             Coordinates (Angstroms)
 Number     Number       Type             X           Y           Z
 ---------------------------------------------------------------------
      1         35           0       -3.420394   -0.497550   -0.039705
      2          6           0       -1.762308    0.422996    0.000332
      3          6           0       -1.745816    1.795267    0.187744
      4          6           0       -0.528128    2.448515    0.197619
      5          6           0        0.673560    1.763976    0.037120
      6          6           0        0.633609    0.380557   -0.131247
      7          6           0       -0.588518   -0.282921   -0.162404
      8          6           0        1.920919   -0.429060   -0.218770
      9          6           0        3.090406    0.416648   -0.689341
     10          6           0        3.207452    1.671665    0.162771
     11          6           0        1.967947    2.540354   -0.008875
     12          8           0        1.727242   -1.549088   -1.059837
     13          6           0        2.120510   -2.714637   -0.361651
     14          6           0        1.901508   -2.316815    1.084873
     15          8           0        2.244887   -0.948742    1.068564
     16          1           0       -2.668581    2.344100    0.316203
     17          1           0       -0.508555    3.524157    0.331763
     18          1           0       -0.614272   -1.348935   -0.335874
     19          1           0        3.992606   -0.193860   -0.633513
     20          1           0        2.921495    0.677565   -1.737615
     21          1           0        4.098394    2.237905   -0.112814
     22          1           0        3.321589    1.380830    1.209400
     23          1           0        1.945022    3.330343    0.744598
     24          1           0        2.017973    3.046082   -0.979914
     25          1           0        1.497824   -3.545012   -0.693187
     26          1           0        3.172982   -2.947952   -0.556775
     27          1           0        2.555257   -2.829355    1.789037
     28          1           0        0.858158   -2.458254    1.389540
 ---------------------------------------------------------------------
 Rotational constants (GHZ):           0.7786813           0.2937934           0.2272806
 Standard basis: def2TZVP (5D, 7F)
 There are   637 symmetry adapted cartesian basis functions of A   symmetry.
 There are   560 symmetry adapted basis functions of A   symmetry.
   560 basis functions,   932 primitive gaussians,   637 cartesian basis functions
    68 alpha electrons       68 beta electrons
       nuclear repulsion energy      1337.8435832559 Hartrees.
 NAtoms=   28 NActive=   28 NUniq=   28 SFac= 1.00D+00 NAtFMM=   60 NAOKFM=F Big=F
 Integral buffers will be    131072 words long.
 Raffenetti 2 integral format.
 Two-electron integral symmetry is turned on.
 One-electron integrals computed using PRISM.
   1 Symmetry operations used in ECPInt.
 ECPInt:  NShTT=   24753 NPrTT=   79416 LenC2=   23204 LenP2D=   54692.
 LDataN:  DoStor=T MaxTD1= 6 Len=  172
 NBasis=   560 RedAO= T EigKep=  5.25D-06  NBF=   560
 NBsUse=   560 1.00D-06 EigRej= -1.00D+00 NBFU=   560
 ExpMin= 9.52D-02 ExpMax= 5.65D+05 ExpMxC= 5.46D+03 IAcc=3 IRadAn=         5 AccDes= 0.00D+00
 Harris functional with IExCor=  908 and IRadAn=       5 diagonalized for initial guess.
 HarFok:  IExCor=  908 AccDes= 0.00D+00 IRadAn=         5 IDoV= 1 UseB2=F ITyADJ=14
 ICtDFT=  3500011 ScaDFX=  1.000000  1.000000  1.000000  1.000000
 FoFCou: FMM=F IPFlag=           0 FMFlag=      100000 FMFlg1=           0
         NFxFlg=           0 DoJE=T BraDBF=F KetDBF=T FulRan=T
         wScrn=  0.000000 ICntrl=       500 IOpCl=  0 I1Cent=   200000004 NGrid=           0
         NMat0=    1 NMatS0=      1 NMatT0=    0 NMatD0=    1 NMtDS0=    0 NMtDT0=    0
 Petite list used in FoFCou.
 Requested convergence on RMS density matrix=1.00D-08 within 128 cycles.
 Requested convergence on MAX density matrix=1.00D-06.
 Requested convergence on             energy=1.00D-06.
 No special actions if energy rises.
 Integral accuracy reduced to 1.0D-05 until final iterations.
 Initial convergence to 1.0D-05 achieved.  Increase integral accuracy.
 SCF Done:  E(RmPW1PW91) =  -3189.97686661     A.U. after   17 cycles
            NFock= 17  Conv=0.74D-08     -V/T= 2.0021
 DoSCS=F DFT=T ScalE2(SS,OS)=  1.000000  1.000000
 Range of M.O.s used for correlation:     1   560
 NBasis=   560 NAE=    68 NBE=    68 NFC=     0 NFV=     0
 NROrb=    560 NOA=    68 NOB=    68 NVA=   492 NVB=   492

 **** Warning!!: The largest alpha MO coefficient is  0.51520159D+02

          Differentiating once with respect to magnetic field using GIAOs.
          Electric field/nuclear overlap derivatives assumed to be zero.
 FoFCou: FMM=F IPFlag=           0 FMFlag=      100000 FMFlg1=           0
         NFxFlg=           0 DoJE=F BraDBF=F KetDBF=T FulRan=T
         wScrn=  0.000000 ICntrl=      6100 IOpCl=  0 I1Cent=           7 NGrid=          28
         NMat0=    1 NMatS0=      1 NMatT0=    0 NMatD0=    1 NMtDS0=    0 NMtDT0=    0
 Symmetry not used in FoFCou.
   1 Symmetry operations used in ECPInt.
 ECPInt:  NShTT=   24753 NPrTT=   79416 LenC2=   24754 LenP2D=   79416.
 LDataN:  DoStor=T MaxTD1= 7 Len=  274
 FoFJK:  IHMeth= 1 ICntrl=    6127 DoSepK=F KAlg= 0 I1Cent=           0 FoldK=F
 IRaf=         1 NMat=       1 IRICut=       1 DoRegI=T DoRafI=F ISym2E= 0 IDoP0=0 IntGTp=1.
          There are     3 degrees of freedom in the 1st order CPHF.  IDoFFX=0 NUNeed=     3.
      3 vectors produced by pass  0 Test12= 1.12D-12 3.33D-08 XBig12= 3.41D+01 9.73D-01.
 AX will form     3 AO Fock derivatives at one time.
      3 vectors produced by pass  1 Test12= 1.12D-12 3.33D-08 XBig12= 6.61D-02 1.06D-01.
      3 vectors produced by pass  2 Test12= 1.12D-12 3.33D-08 XBig12= 4.69D-04 9.37D-03.
      3 vectors produced by pass  3 Test12= 1.12D-12 3.33D-08 XBig12= 1.59D-06 3.07D-04.
      3 vectors produced by pass  4 Test12= 1.12D-12 3.33D-08 XBig12= 4.17D-09 1.82D-05.
      3 vectors produced by pass  5 Test12= 1.12D-12 3.33D-08 XBig12= 1.72D-11 1.02D-06.
      2 vectors produced by pass  6 Test12= 1.12D-12 3.33D-08 XBig12= 4.89D-14 5.72D-08.
 InvSVY:  IOpt=1 It=  1 EMax= 1.78D-15
 Solved reduced A of dimension    20 with     3 vectors.
 Calculating GIAO nuclear magnetic shielding tensors.
 SCF GIAO Magnetic shielding tensor (ppm):
      1  Br   Isotropic =  2096.7556   Anisotropy =  1297.1795
   XX=  2667.0905   YX=   533.9791   ZX=    17.9480
   XY=   532.3425   YY=  1992.9849   ZY=    24.2225
   XZ=    11.1838   YZ=    52.8627   ZZ=  1630.1913
   Eigenvalues:  1620.3986  1708.3261  2961.5419
      2  C    Isotropic =    46.2400   Anisotropy =   112.7889
   XX=   -18.0010   YX=   -47.2665   ZX=     0.8998
   XY=   -45.2393   YY=    36.3140   ZY=    -8.7350
   XZ=     0.2008   YZ=    -7.8005   ZZ=   120.4071
   Eigenvalues:   -44.5600    61.8474   121.4326
      3  C    Isotropic =    51.5973   Anisotropy =   154.5988
   XX=   -20.2380   YX=    43.1008   ZX=    16.6549
   XY=    42.1939   YY=    23.5350   ZY=   -19.7110
   XZ=    17.4884   YZ=   -15.5469   ZZ=   151.4948
   Eigenvalues:   -49.1062    49.2348   154.6631
      4  C    Isotropic =    53.1041   Anisotropy =   160.5239
   XX=    48.0751   YX=    -1.1945   ZX=     7.9863
   XY=    -7.9815   YY=   -44.9298   ZY=   -25.3624
   XZ=    11.2952   YZ=   -24.4404   ZZ=   156.1669
   Eigenvalues:   -48.0873    47.2796   160.1200
      5  C    Isotropic =    45.0367   Anisotropy =   192.5062
   XX=   -31.0337   YX=   -30.5561   ZX=    11.5497
   XY=   -24.6491   YY=    -2.1882   ZY=   -18.9401
   XZ=     9.2512   YZ=   -33.9462   ZZ=   168.3320
   Eigenvalues:   -47.8678     9.6038   173.3742
      6  C    Isotropic =    39.9924   Anisotropy =   177.4524
   XX=   -32.2581   YX=    23.7242   ZX=    12.6145
   XY=    16.9740   YY=    -2.1810   ZY=   -21.8412
   XZ=    22.6155   YZ=   -19.6611   ZZ=   154.4163
   Eigenvalues:   -45.6972     7.3804   158.2940
      7  C    Isotropic =    53.2384   Anisotropy =   155.4474
   XX=    45.4115   YX=    -4.8324   ZX=     4.4760
   XY=    -7.7399   YY=   -38.0420   ZY=   -32.6153
   XZ=   -12.1902   YZ=   -26.2759   ZZ=   152.3456
   Eigenvalues:   -43.0140    45.8591   156.8700
      8  C    Isotropic =    75.7751   Anisotropy =    46.6291
   XX=    47.8122   YX=     7.8770   ZX=     3.0502
   XY=     5.6388   YY=    78.1006   ZY=     8.4058
   XZ=     7.0505   YZ=    14.1369   ZZ=   101.4124
   Eigenvalues:    46.2406    74.2235   106.8611
      9  C    Isotropic =   149.9820   Anisotropy =    18.7422
   XX=   148.1483   YX=    11.3991   ZX=    -6.7551
   XY=     4.1657   YY=   152.5314   ZY=    -5.5002
   XZ=    -2.4685   YZ=    -5.8676   ZZ=   149.2664
   Eigenvalues:   142.2386   145.2306   162.4768
     10  C    Isotropic =   164.2685   Anisotropy =    11.5192
   XX=   166.5467   YX=    -1.7016   ZX=    -0.4644
   XY=    -2.9308   YY=   170.1891   ZY=     4.3077
   XZ=    -0.0477   YZ=     2.4432   ZZ=   156.0697
   Eigenvalues:   155.2979   165.5596   171.9480
     11  C    Isotropic =   155.7953   Anisotropy =    16.9672
   XX=   166.9407   YX=    -6.6296   ZX=     0.2849
   XY=     5.5937   YY=   152.8890   ZY=    -0.0939
   XZ=    -3.6658   YZ=     0.4367   ZZ=   147.5562
   Eigenvalues:   147.4070   152.8721   167.1068
     12  O    Isotropic =   240.8716   Anisotropy =   129.8395
   XX=   163.7275   YX=   -14.0583   ZX=    42.9785
   XY=     6.8222   YY=   251.2770   ZY=    36.3102
   XZ=    34.9576   YZ=    22.0586   ZZ=   307.6103
   Eigenvalues:   152.6399   242.5437   327.4313
     13  C    Isotropic =   118.8944   Anisotropy =    68.9479
   XX=    88.5017   YX=   -19.4893   ZX=     2.8447
   XY=   -14.2788   YY=   143.9964   ZY=   -27.3719
   XZ=    11.4272   YZ=   -21.8300   ZZ=   124.1851
   Eigenvalues:    83.7668   108.0568   164.8597
     14  C    Isotropic =   121.2991   Anisotropy =    65.8362
   XX=    88.6955   YX=    12.3641   ZX=    -8.3528
   XY=    12.5074   YY=   163.1225   ZY=     5.6411
   XZ=     3.4434   YZ=    -1.7300   ZZ=   112.0792
   Eigenvalues:    86.3808   112.3265   165.1899
     15  O    Isotropic =   218.5075   Anisotropy =   107.0617
   XX=   158.8577   YX=   -19.5250   ZX=    42.2317
   XY=   -19.3130   YY=   225.1040   ZY=   -11.0324
   XZ=    45.0502   YZ=    -6.6463   ZZ=   271.5609
   Eigenvalues:   141.0212   224.6195   289.8820
     16  H    Isotropic =    24.3173   Anisotropy =     8.8057
   XX=    24.4997   YX=     3.1539   ZX=     0.1687
   XY=     2.2874   YY=    28.7438   ZY=     1.0784
   XZ=     0.0967   YZ=     1.2395   ZZ=    19.7084
   Eigenvalues:    19.5516    23.2125    30.1877
     17  H    Isotropic =    24.5423   Anisotropy =     7.3458
   XX=    29.3871   YX=    -0.7442   ZX=    -0.6912
   XY=     0.2895   YY=    23.6196   ZY=     0.3279
   XZ=    -0.5160   YZ=     0.4156   ZZ=    20.6201
   Eigenvalues:    20.5377    23.6497    29.4395
     18  H    Isotropic =    23.9582   Anisotropy =    15.6962
   XX=    34.1106   YX=    -2.1182   ZX=    -0.5503
   XY=    -2.1760   YY=    19.6038   ZY=     0.1568
   XZ=     0.5152   YZ=     1.0354   ZZ=    18.1603
   Eigenvalues:    17.9101    19.5422    34.4223
     19  H    Isotropic =    29.8799   Anisotropy =     6.7226
   XX=    33.1264   YX=    -1.5419   ZX=    -1.7938
   XY=    -1.2556   YY=    31.2881   ZY=     0.8371
   XZ=    -2.0911   YZ=     0.7834   ZZ=    25.2251
   Eigenvalues:    24.7379    30.5402    34.3617
     20  H    Isotropic =    29.9582   Anisotropy =     6.8233
   XX=    26.9802   YX=     1.0008   ZX=    -1.9455
   XY=     1.4590   YY=    29.4416   ZY=    -1.1312
   XZ=    -2.8607   YZ=    -0.4464   ZZ=    33.4529
   Eigenvalues:    25.9331    29.4345    34.5071
     21  H    Isotropic =    30.0190   Anisotropy =    11.0587
   XX=    34.8900   YX=     4.1092   ZX=    -0.9684
   XY=     3.9468   YY=    30.7593   ZY=     0.1964
   XZ=    -0.9915   YZ=     0.2457   ZZ=    24.4078
   Eigenvalues:    24.2473    28.4183    37.3915
     22  H    Isotropic =    29.6117   Anisotropy =     6.6375
   XX=    27.4048   YX=     0.2583   ZX=     3.2275
   XY=     0.2181   YY=    29.7039   ZY=     0.3792
   XZ=     4.5203   YZ=     0.2491   ZZ=    31.7263
   Eigenvalues:    25.1293    29.6690    34.0367
     23  H    Isotropic =    29.0307   Anisotropy =     8.9658
   XX=    28.9093   YX=    -0.8525   ZX=    -0.3728
   XY=    -1.5850   YY=    32.1156   ZY=     4.2330
   XZ=     0.4214   YZ=     5.5093   ZZ=    26.0672
   Eigenvalues:    23.2897    28.7946    35.0079
     24  H    Isotropic =    29.0676   Anisotropy =     8.4295
   XX=    28.6289   YX=     0.0627   ZX=    -0.0975
   XY=    -0.0051   YY=    30.7154   ZY=    -4.4344
   XZ=    -2.5939   YZ=    -5.7381   ZZ=    27.8584
   Eigenvalues:    23.7716    28.7438    34.6872
     25  H    Isotropic =    27.5813   Anisotropy =     8.7268
   XX=    25.4421   YX=     0.7642   ZX=     1.2642
   XY=     1.5761   YY=    32.9435   ZY=     2.3547
   XZ=     0.3935   YZ=     0.5881   ZZ=    24.3581
   Eigenvalues:    23.8387    25.5060    33.3991
     26  H    Isotropic =    27.8491   Anisotropy =    10.8853
   XX=    29.8303   YX=    -5.1083   ZX=    -1.9917
   XY=    -5.7636   YY=    29.4613   ZY=    -0.1987
   XZ=    -0.0570   YZ=    -0.5502   ZZ=    24.2555
   Eigenvalues:    23.2403    25.2009    35.1060
     27  H    Isotropic =    27.9504   Anisotropy =     9.5840
   XX=    25.6219   YX=    -1.1049   ZX=     2.4052
   XY=    -1.8922   YY=    29.9999   ZY=    -4.7626
   XZ=     2.5235   YZ=    -3.7924   ZZ=    28.2293
   Eigenvalues:    23.8349    25.6764    34.3397
     28  H    Isotropic =    27.8325   Anisotropy =     9.0480
   XX=    29.6672   YX=     2.2117   ZX=    -3.2625
   XY=     3.9229   YY=    28.7673   ZY=    -1.8991
   XZ=    -1.7039   YZ=    -3.6232   ZZ=    25.0628
   Eigenvalues:    23.4507    26.1823    33.8645
 End of Minotr F.D. properties file   721 does not exist.
 End of Minotr F.D. properties file   722 does not exist.
 End of Minotr F.D. properties file   788 does not exist.

 **********************************************************************

            Population analysis using the SCF Density.

 **********************************************************************

 Orbital symmetries:
       Occupied  (A) (A) (A) (A) (A) (A) (A) (A) (A) (A) (A) (A)
                 (A) (A) (A) (A) (A) (A) (A) (A) (A) (A) (A) (A)
                 (A) (A) (A) (A) (A) (A) (A) (A) (A) (A) (A) (A)
                 (A) (A) (A) (A) (A) (A) (A) (A) (A) (A) (A) (A)
                 (A) (A) (A) (A) (A) (A) (A) (A) (A) (A) (A) (A)
                 (A) (A) (A) (A) (A) (A) (A) (A)
       Virtual   (A) (A) (A) (A) (A) (A) (A) (A) (A) (A) (A) (A)
                 (A) (A) (A) (A) (A) (A) (A) (A) (A) (A) (A) (A)
                 (A) (A) (A) (A) (A) (A) (A) (A) (A) (A) (A) (A)
                 (A) (A) (A) (A) (A) (A) (A) (A) (A) (A) (A) (A)
                 (A) (A) (A) (A) (A) (A) (A) (A) (A) (A) (A) (A)
                 (A) (A) (A) (A) (A) (A) (A) (A) (A) (A) (A) (A)
                 (A) (A) (A) (A) (A) (A) (A) (A) (A) (A) (A) (A)
                 (A) (A) (A) (A) (A) (A) (A) (A) (A) (A) (A) (A)
                 (A) (A) (A) (A) (A) (A) (A) (A) (A) (A) (A) (A)
                 (A) (A) (A) (A) (A) (A) (A) (A) (A) (A) (A) (A)
                 (A) (A) (A) (A) (A) (A) (A) (A) (A) (A) (A) (A)
                 (A) (A) (A) (A) (A) (A) (A) (A) (A) (A) (A) (A)
                 (A) (A) (A) (A) (A) (A) (A) (A) (A) (A) (A) (A)
                 (A) (A) (A) (A) (A) (A) (A) (A) (A) (A) (A) (A)
                 (A) (A) (A) (A) (A) (A) (A) (A) (A) (A) (A) (A)
                 (A) (A) (A) (A) (A) (A) (A) (A) (A) (A) (A) (A)
                 (A) (A) (A) (A) (A) (A) (A) (A) (A) (A) (A) (A)
                 (A) (A) (A) (A) (A) (A) (A) (A) (A) (A) (A) (A)
                 (A) (A) (A) (A) (A) (A) (A) (A) (A) (A) (A) (A)
                 (A) (A) (A) (A) (A) (A) (A) (A) (A) (A) (A) (A)
                 (A) (A) (A) (A) (A) (A) (A) (A) (A) (A) (A) (A)
                 (A) (A) (A) (A) (A) (A) (A) (A) (A) (A) (A) (A)
                 (A) (A) (A) (A) (A) (A) (A) (A) (A) (A) (A) (A)
                 (A) (A) (A) (A) (A) (A) (A) (A) (A) (A) (A) (A)
                 (A) (A) (A) (A) (A) (A) (A) (A) (A) (A) (A) (A)
                 (A) (A) (A) (A) (A) (A) (A) (A) (A) (A) (A) (A)
                 (A) (A) (A) (A) (A) (A) (A) (A) (A) (A) (A) (A)
                 (A) (A) (A) (A) (A) (A) (A) (A) (A) (A) (A) (A)
                 (A) (A) (A) (A) (A) (A) (A) (A) (A) (A) (A) (A)
                 (A) (A) (A) (A) (A) (A) (A) (A) (A) (A) (A) (A)
                 (A) (A) (A) (A) (A) (A) (A) (A) (A) (A) (A) (A)
                 (A) (A) (A) (A) (A) (A) (A) (A) (A) (A) (A) (A)
                 (A) (A) (A) (A) (A) (A) (A) (A) (A) (A) (A) (A)
                 (A) (A) (A) (A) (A) (A) (A) (A) (A) (A) (A) (A)
                 (A) (A) (A) (A) (A) (A) (A) (A) (A) (A) (A) (A)
                 (A) (A) (A) (A) (A) (A) (A) (A) (A) (A) (A) (A)
                 (A) (A) (A) (A) (A) (A) (A) (A) (A) (A) (A) (A)
                 (A) (A) (A) (A) (A) (A) (A) (A) (A) (A) (A) (A)
                 (A) (A) (A) (A) (A) (A) (A) (A) (A) (A) (A) (A)
                 (A) (A) (A) (A) (A) (A) (A) (A) (A) (A) (A) (A)
                 (A) (A) (A) (A) (A) (A) (A) (A) (A) (A) (A) (A)
 The electronic state is 1-A.
 Alpha  occ. eigenvalues -- -483.33998 -62.67097 -56.45121 -56.44783 -56.44775
 Alpha  occ. eigenvalues --  -19.23526 -19.23427 -10.34607 -10.29295 -10.28987
 Alpha  occ. eigenvalues --  -10.28887 -10.25396 -10.25032 -10.24857 -10.24642
 Alpha  occ. eigenvalues --  -10.24447 -10.24158 -10.23473 -10.23285  -8.77501
 Alpha  occ. eigenvalues --   -6.58762  -6.57680  -6.57653  -2.67427  -2.67106
 Alpha  occ. eigenvalues --   -2.67085  -2.66200  -2.66200  -1.13389  -1.03400
 Alpha  occ. eigenvalues --   -0.91189  -0.86335  -0.82316  -0.80653  -0.77660
 Alpha  occ. eigenvalues --   -0.75435  -0.71728  -0.66582  -0.65397  -0.63851
 Alpha  occ. eigenvalues --   -0.62250  -0.57253  -0.54536  -0.53136  -0.51124
 Alpha  occ. eigenvalues --   -0.50463  -0.50106  -0.46786  -0.46294  -0.45422
 Alpha  occ. eigenvalues --   -0.44192  -0.43219  -0.42608  -0.42169  -0.39934
 Alpha  occ. eigenvalues --   -0.39615  -0.38576  -0.37105  -0.36716  -0.35641
 Alpha  occ. eigenvalues --   -0.34903  -0.34268  -0.32167  -0.30157  -0.29855
 Alpha  occ. eigenvalues --   -0.27539  -0.27082  -0.24849
 Alpha virt. eigenvalues --   -0.02078  -0.01482   0.01054   0.04508   0.05319
 Alpha virt. eigenvalues --    0.07431   0.07740   0.08401   0.08840   0.09281
 Alpha virt. eigenvalues --    0.09715   0.11056   0.11538   0.12152   0.12781
 Alpha virt. eigenvalues --    0.13445   0.14243   0.15074   0.15350   0.16154
 Alpha virt. eigenvalues --    0.16897   0.18021   0.18617   0.18975   0.19745
 Alpha virt. eigenvalues --    0.20931   0.21074   0.21806   0.21966   0.22071
 Alpha virt. eigenvalues --    0.23133   0.23815   0.24174   0.25343   0.25640
 Alpha virt. eigenvalues --    0.25751   0.26627   0.27482   0.27958   0.28935
 Alpha virt. eigenvalues --    0.29413   0.30003   0.30379   0.31485   0.32096
 Alpha virt. eigenvalues --    0.32349   0.33954   0.34636   0.34882   0.36403
 Alpha virt. eigenvalues --    0.36914   0.37344   0.37494   0.38147   0.38655
 Alpha virt. eigenvalues --    0.39673   0.40176   0.40500   0.41063   0.41708
 Alpha virt. eigenvalues --    0.42037   0.42705   0.43202   0.43293   0.43458
 Alpha virt. eigenvalues --    0.44143   0.44913   0.45627   0.46132   0.46870
 Alpha virt. eigenvalues --    0.47290   0.47615   0.47852   0.48221   0.48858
 Alpha virt. eigenvalues --    0.49920   0.50698   0.51931   0.52776   0.53210
 Alpha virt. eigenvalues --    0.53958   0.54725   0.54822   0.56290   0.56968
 Alpha virt. eigenvalues --    0.58315   0.59523   0.60752   0.61044   0.62828
 Alpha virt. eigenvalues --    0.64813   0.65820   0.67326   0.68052   0.68590
 Alpha virt. eigenvalues --    0.69303   0.69903   0.71643   0.72267   0.72881
 Alpha virt. eigenvalues --    0.73501   0.74518   0.75710   0.76182   0.77144
 Alpha virt. eigenvalues --    0.78692   0.79459   0.81017   0.81603   0.83076
 Alpha virt. eigenvalues --    0.83791   0.84836   0.85420   0.86401   0.87514
 Alpha virt. eigenvalues --    0.87872   0.89260   0.89498   0.90628   0.90834
 Alpha virt. eigenvalues --    0.92152   0.93183   0.93624   0.94310   0.95202
 Alpha virt. eigenvalues --    0.97859   0.98613   1.00041   1.00979   1.01742
 Alpha virt. eigenvalues --    1.03039   1.04777   1.05444   1.06870   1.07241
 Alpha virt. eigenvalues --    1.09375   1.10555   1.12035   1.12537   1.13070
 Alpha virt. eigenvalues --    1.13360   1.14344   1.15841   1.16138   1.17557
 Alpha virt. eigenvalues --    1.19922   1.21589   1.21989   1.22292   1.23586
 Alpha virt. eigenvalues --    1.24368   1.25429   1.26010   1.27358   1.27905
 Alpha virt. eigenvalues --    1.29460   1.30832   1.32545   1.34188   1.35106
 Alpha virt. eigenvalues --    1.36441   1.37647   1.38460   1.39603   1.40291
 Alpha virt. eigenvalues --    1.41683   1.41844   1.44431   1.44747   1.45742
 Alpha virt. eigenvalues --    1.46937   1.47553   1.49166   1.51598   1.52141
 Alpha virt. eigenvalues --    1.52490   1.54426   1.54922   1.55843   1.56605
 Alpha virt. eigenvalues --    1.57582   1.58076   1.58792   1.60309   1.60767
 Alpha virt. eigenvalues --    1.60830   1.61657   1.63139   1.63900   1.64973
 Alpha virt. eigenvalues --    1.65463   1.65700   1.66343   1.66936   1.67607
 Alpha virt. eigenvalues --    1.68910   1.70753   1.70924   1.72178   1.72797
 Alpha virt. eigenvalues --    1.73966   1.75685   1.76287   1.77522   1.79497
 Alpha virt. eigenvalues --    1.80956   1.81498   1.82332   1.83121   1.85269
 Alpha virt. eigenvalues --    1.86626   1.87098   1.88217   1.90154   1.90878
 Alpha virt. eigenvalues --    1.91618   1.92512   1.93309   1.94812   1.95275
 Alpha virt. eigenvalues --    1.97519   1.99460   2.00540   2.01842   2.02876
 Alpha virt. eigenvalues --    2.04661   2.06078   2.06215   2.07449   2.07951
 Alpha virt. eigenvalues --    2.09785   2.10716   2.12655   2.16114   2.18090
 Alpha virt. eigenvalues --    2.18276   2.19537   2.19850   2.21845   2.22586
 Alpha virt. eigenvalues --    2.23981   2.25592   2.27152   2.27458   2.30113
 Alpha virt. eigenvalues --    2.31448   2.32406   2.33182   2.34859   2.36571
 Alpha virt. eigenvalues --    2.37326   2.38442   2.39552   2.43106   2.44344
 Alpha virt. eigenvalues --    2.47518   2.48122   2.49595   2.50189   2.51158
 Alpha virt. eigenvalues --    2.51886   2.52590   2.53273   2.55935   2.56516
 Alpha virt. eigenvalues --    2.57742   2.59115   2.60379   2.61139   2.62202
 Alpha virt. eigenvalues --    2.62776   2.64161   2.64665   2.66602   2.66931
 Alpha virt. eigenvalues --    2.67640   2.68377   2.69459   2.69997   2.70244
 Alpha virt. eigenvalues --    2.72029   2.73428   2.74109   2.74712   2.75203
 Alpha virt. eigenvalues --    2.76845   2.78513   2.79315   2.80296   2.80992
 Alpha virt. eigenvalues --    2.81889   2.82695   2.83551   2.84905   2.86282
 Alpha virt. eigenvalues --    2.87474   2.87788   2.89447   2.90920   2.91746
 Alpha virt. eigenvalues --    2.93381   2.93899   2.95269   2.96448   2.97840
 Alpha virt. eigenvalues --    2.99053   3.01169   3.02266   3.03062   3.04890
 Alpha virt. eigenvalues --    3.05805   3.06992   3.07827   3.09339   3.10358
 Alpha virt. eigenvalues --    3.10773   3.13565   3.14795   3.15177   3.17235
 Alpha virt. eigenvalues --    3.17906   3.18376   3.18809   3.20005   3.21484
 Alpha virt. eigenvalues --    3.21694   3.23133   3.24157   3.24536   3.25775
 Alpha virt. eigenvalues --    3.27074   3.27849   3.29245   3.30110   3.30865
 Alpha virt. eigenvalues --    3.31282   3.32680   3.33987   3.34447   3.35716
 Alpha virt. eigenvalues --    3.37182   3.38269   3.38593   3.40393   3.41025
 Alpha virt. eigenvalues --    3.41619   3.42492   3.43765   3.44268   3.44653
 Alpha virt. eigenvalues --    3.46317   3.46775   3.48771   3.49206   3.49512
 Alpha virt. eigenvalues --    3.49801   3.50890   3.52509   3.53422   3.54345
 Alpha virt. eigenvalues --    3.56622   3.57651   3.58040   3.58512   3.59362
 Alpha virt. eigenvalues --    3.60783   3.62828   3.64561   3.65515   3.66892
 Alpha virt. eigenvalues --    3.69038   3.70192   3.71700   3.73050   3.76376
 Alpha virt. eigenvalues --    3.77742   3.78343   3.79643   3.83121   3.84382
 Alpha virt. eigenvalues --    3.85637   3.87402   3.89387   3.90127   3.93958
 Alpha virt. eigenvalues --    3.95391   3.97015   3.99671   4.01523   4.01763
 Alpha virt. eigenvalues --    4.03506   4.04401   4.05165   4.05835   4.07307
 Alpha virt. eigenvalues --    4.09653   4.11000   4.12258   4.13983   4.14799
 Alpha virt. eigenvalues --    4.15663   4.16961   4.19563   4.20699   4.21687
 Alpha virt. eigenvalues --    4.23394   4.25468   4.27648   4.28242   4.29661
 Alpha virt. eigenvalues --    4.30844   4.31772   4.33031   4.34286   4.37971
 Alpha virt. eigenvalues --    4.39226   4.39631   4.40704   4.42396   4.44661
 Alpha virt. eigenvalues --    4.46931   4.48620   4.49231   4.54072   4.55166
 Alpha virt. eigenvalues --    4.57068   4.60079   4.65069   4.68916   4.71063
 Alpha virt. eigenvalues --    4.72128   4.73241   4.74031   4.77691   4.79637
 Alpha virt. eigenvalues --    4.81235   4.84883   4.86895   4.89502   4.92369
 Alpha virt. eigenvalues --    4.96933   4.99751   5.03012   5.08017   5.13273
 Alpha virt. eigenvalues --    5.17024   5.21048   5.26853   5.29529   5.40517
 Alpha virt. eigenvalues --    5.41328   5.46937   5.50219   5.54794   5.60815
 Alpha virt. eigenvalues --    5.63590   5.72141   5.77808   5.85823   5.90349
 Alpha virt. eigenvalues --    5.92015   5.95215   5.96261   6.04682   6.22697
 Alpha virt. eigenvalues --    6.25805   6.36764   6.72495   6.77639   6.85978
 Alpha virt. eigenvalues --    6.96045   6.97535   7.09196   7.23589   7.24854
 Alpha virt. eigenvalues --    7.31120   7.48464   7.80202  22.18067  22.52708
 Alpha virt. eigenvalues --   22.57244  22.60154  22.64734  22.69634  22.78410
 Alpha virt. eigenvalues --   22.87899  22.95294  22.97898  23.06472  23.56692
 Alpha virt. eigenvalues --   44.47021  44.52607
          Condensed to atoms (all electrons):
               1          2          3          4          5          6
     1  Br  34.911010   0.313156  -0.067897   0.015106   0.001508   0.013641
     2  C    0.313156   4.961560   0.322568   0.119289  -0.110851   0.119127
     3  C   -0.067897   0.322568   5.155213   0.317399   0.085562  -0.153656
     4  C    0.015106   0.119289   0.317399   5.239542   0.315707   0.059831
     5  C    0.001508  -0.110851   0.085562   0.315707   5.214691   0.362065
     6  C    0.013641   0.119127  -0.153656   0.059831   0.362065   5.749834
     7  C   -0.076359   0.247208   0.103666  -0.200092   0.005616   0.007860
     8  C   -0.001613  -0.002118   0.001258   0.004734  -0.070804   0.217679
     9  C    0.000034  -0.000938   0.000109  -0.002659  -0.026826  -0.051238
    10  C   -0.000004  -0.000353  -0.000532   0.010828  -0.028228   0.001137
    11  C    0.000046  -0.001734   0.011129  -0.081574   0.363069  -0.130653
    12  O    0.000058   0.002123   0.000418  -0.000166  -0.009625  -0.157594
    13  C    0.000030  -0.000190  -0.000085   0.000034   0.002226   0.024304
    14  C   -0.000198  -0.000231   0.000024   0.000078   0.002051   0.025645
    15  O    0.000036  -0.004713   0.001220  -0.002349   0.002291  -0.023456
    16  H   -0.003196  -0.071747   0.458575  -0.077528   0.016310  -0.005599
    17  H   -0.000531   0.013087  -0.071988   0.458779  -0.082691   0.023223
    18  H   -0.001174  -0.076034   0.015772  -0.004184   0.008092  -0.103084
    19  H   -0.000001   0.000037   0.000008   0.000078   0.001220   0.008509
    20  H   -0.000002   0.000238  -0.000203   0.001010  -0.014572   0.013531
    21  H    0.000000  -0.000007   0.000036  -0.001501   0.009760   0.002684
    22  H   -0.000000   0.000077  -0.000132   0.002021  -0.003420  -0.001629
    23  H   -0.000002   0.000107  -0.000018  -0.000436  -0.038238   0.009856
    24  H   -0.000005   0.000341  -0.000388   0.007557  -0.032446  -0.011451
    25  H   -0.000001  -0.000190  -0.000015   0.000009   0.000309   0.006726
    26  H    0.000000   0.000097   0.000005  -0.000014  -0.000433  -0.005877
    27  H    0.000001  -0.000108   0.000022  -0.000041   0.000020  -0.001596
    28  H    0.000206   0.002936  -0.000384   0.000246   0.000166  -0.002022
               7          8          9         10         11         12
     1  Br  -0.076359  -0.001613   0.000034  -0.000004   0.000046   0.000058
     2  C    0.247208  -0.002118  -0.000938  -0.000353  -0.001734   0.002123
     3  C    0.103666   0.001258   0.000109  -0.000532   0.011129   0.000418
     4  C   -0.200092   0.004734  -0.002659   0.010828  -0.081574  -0.000166
     5  C    0.005616  -0.070804  -0.026826  -0.028228   0.363069  -0.009625
     6  C    0.007860   0.217679  -0.051238   0.001137  -0.130653  -0.157594
     7  C    5.703620  -0.043437   0.035100  -0.006828   0.014964   0.065311
     8  C   -0.043437   4.685190   0.335142  -0.049432   0.012655   0.339165
     9  C    0.035100   0.335142   4.968507   0.309210  -0.037512  -0.026457
    10  C   -0.006828  -0.049432   0.309210   4.917802   0.350655   0.008523
    11  C    0.014964   0.012655  -0.037512   0.350655   4.964820  -0.001657
    12  O    0.065311   0.339165  -0.026457   0.008523  -0.001657   7.979836
    13  C   -0.012931  -0.075067   0.002087  -0.000301   0.000201   0.301203
    14  C   -0.004062  -0.047666   0.003204   0.000802  -0.000028  -0.079593
    15  O    0.022479   0.215751  -0.041124  -0.002138  -0.007507  -0.044727
    16  H    0.020031   0.000139  -0.000014   0.000016  -0.000220   0.000000
    17  H   -0.002176  -0.000333   0.000184   0.000696  -0.012681   0.000011
    18  H    0.474888   0.009636   0.002067  -0.000263  -0.000328   0.013555
    19  H   -0.002054  -0.011445   0.361653  -0.022767   0.010043   0.000061
    20  H    0.000245  -0.051398   0.419892  -0.040896   0.004344   0.002428
    21  H    0.000533   0.006735  -0.024040   0.392559  -0.038847  -0.000317
    22  H   -0.000681  -0.003058  -0.035480   0.397353  -0.016254   0.000531
    23  H   -0.000467  -0.002885   0.011576  -0.025234   0.386638   0.000006
    24  H   -0.000128  -0.003470  -0.005155  -0.023692   0.383938   0.000063
    25  H   -0.003567  -0.004348  -0.000518   0.000110   0.000034  -0.033550
    26  H    0.002629   0.031289  -0.002134  -0.001377   0.000044  -0.047662
    27  H    0.001227   0.001199   0.000475   0.000001   0.000055   0.005535
    28  H   -0.006088   0.030981  -0.000474  -0.000682   0.000105  -0.000259
              13         14         15         16         17         18
     1  Br   0.000030  -0.000198   0.000036  -0.003196  -0.000531  -0.001174
     2  C   -0.000190  -0.000231  -0.004713  -0.071747   0.013087  -0.076034
     3  C   -0.000085   0.000024   0.001220   0.458575  -0.071988   0.015772
     4  C    0.000034   0.000078  -0.002349  -0.077528   0.458779  -0.004184
     5  C    0.002226   0.002051   0.002291   0.016310  -0.082691   0.008092
     6  C    0.024304   0.025645  -0.023456  -0.005599   0.023223  -0.103084
     7  C   -0.012931  -0.004062   0.022479   0.020031  -0.002176   0.474888
     8  C   -0.075067  -0.047666   0.215751   0.000139  -0.000333   0.009636
     9  C    0.002087   0.003204  -0.041124  -0.000014   0.000184   0.002067
    10  C   -0.000301   0.000802  -0.002138   0.000016   0.000696  -0.000263
    11  C    0.000201  -0.000028  -0.007507  -0.000220  -0.012681  -0.000328
    12  O    0.301203  -0.079593  -0.044727   0.000000   0.000011   0.013555
    13  C    4.753569   0.415916  -0.077999   0.000000  -0.000002  -0.003959
    14  C    0.415916   4.726855   0.312146  -0.000001  -0.000006  -0.001672
    15  O   -0.077999   0.312146   8.020580   0.000002   0.000021   0.001575
    16  H    0.000000  -0.000001   0.000002   0.547592  -0.009506  -0.000046
    17  H   -0.000002  -0.000006   0.000021  -0.009506   0.574603   0.000096
    18  H   -0.003959  -0.001672   0.001575  -0.000046   0.000096   0.527438
    19  H    0.002170   0.000376   0.003170   0.000000  -0.000007  -0.000102
    20  H   -0.001339   0.000209   0.005230  -0.000001   0.000020  -0.000036
    21  H    0.000018   0.000026   0.000123  -0.000000  -0.000014   0.000004
    22  H   -0.000016  -0.000157   0.009597  -0.000001  -0.000010  -0.000002
    23  H   -0.000007  -0.000021   0.000230  -0.000044   0.004308   0.000017
    24  H   -0.000004   0.000001  -0.000093  -0.000009   0.000997   0.000034
    25  H    0.391130  -0.015570   0.004620  -0.000000  -0.000000   0.000140
    26  H    0.373413  -0.043347   0.002944   0.000000   0.000000   0.000627
    27  H   -0.006643   0.378102  -0.029393  -0.000000   0.000000   0.000498
    28  H   -0.067682   0.406394  -0.053748  -0.000002  -0.000000  -0.001253
              19         20         21         22         23         24
     1  Br  -0.000001  -0.000002   0.000000  -0.000000  -0.000002  -0.000005
     2  C    0.000037   0.000238  -0.000007   0.000077   0.000107   0.000341
     3  C    0.000008  -0.000203   0.000036  -0.000132  -0.000018  -0.000388
     4  C    0.000078   0.001010  -0.001501   0.002021  -0.000436   0.007557
     5  C    0.001220  -0.014572   0.009760  -0.003420  -0.038238  -0.032446
     6  C    0.008509   0.013531   0.002684  -0.001629   0.009856  -0.011451
     7  C   -0.002054   0.000245   0.000533  -0.000681  -0.000467  -0.000128
     8  C   -0.011445  -0.051398   0.006735  -0.003058  -0.002885  -0.003470
     9  C    0.361653   0.419892  -0.024040  -0.035480   0.011576  -0.005155
    10  C   -0.022767  -0.040896   0.392559   0.397353  -0.025234  -0.023692
    11  C    0.010043   0.004344  -0.038847  -0.016254   0.386638   0.383938
    12  O    0.000061   0.002428  -0.000317   0.000531   0.000006   0.000063
    13  C    0.002170  -0.001339   0.000018  -0.000016  -0.000007  -0.000004
    14  C    0.000376   0.000209   0.000026  -0.000157  -0.000021   0.000001
    15  O    0.003170   0.005230   0.000123   0.009597   0.000230  -0.000093
    16  H    0.000000  -0.000001  -0.000000  -0.000001  -0.000044  -0.000009
    17  H   -0.000007   0.000020  -0.000014  -0.000010   0.004308   0.000997
    18  H   -0.000102  -0.000036   0.000004  -0.000002   0.000017   0.000034
    19  H    0.581235  -0.021933  -0.007484  -0.002157  -0.000395   0.000008
    20  H   -0.021933   0.570162  -0.004793   0.006946   0.000096   0.003466
    21  H   -0.007484  -0.004793   0.596493  -0.028790  -0.001743  -0.008180
    22  H   -0.002157   0.006946  -0.028790   0.562870  -0.008815   0.007445
    23  H   -0.000395   0.000096  -0.001743  -0.008815   0.579287  -0.032428
    24  H    0.000008   0.003466  -0.008180   0.007445  -0.032428   0.606094
    25  H    0.000159  -0.000022  -0.000006  -0.000003  -0.000000   0.000000
    26  H    0.000299   0.000364   0.000039   0.000055  -0.000001   0.000001
    27  H   -0.000448  -0.000061  -0.000001  -0.000175   0.000001  -0.000000
    28  H    0.000260   0.000166  -0.000004   0.000190  -0.000003   0.000001
              25         26         27         28
     1  Br  -0.000001   0.000000   0.000001   0.000206
     2  C   -0.000190   0.000097  -0.000108   0.002936
     3  C   -0.000015   0.000005   0.000022  -0.000384
     4  C    0.000009  -0.000014  -0.000041   0.000246
     5  C    0.000309  -0.000433   0.000020   0.000166
     6  C    0.006726  -0.005877  -0.001596  -0.002022
     7  C   -0.003567   0.002629   0.001227  -0.006088
     8  C   -0.004348   0.031289   0.001199   0.030981
     9  C   -0.000518  -0.002134   0.000475  -0.000474
    10  C    0.000110  -0.001377   0.000001  -0.000682
    11  C    0.000034   0.000044   0.000055   0.000105
    12  O   -0.033550  -0.047662   0.005535  -0.000259
    13  C    0.391130   0.373413  -0.006643  -0.067682
    14  C   -0.015570  -0.043347   0.378102   0.406394
    15  O    0.004620   0.002944  -0.029393  -0.053748
    16  H   -0.000000   0.000000  -0.000000  -0.000002
    17  H   -0.000000   0.000000   0.000000  -0.000000
    18  H    0.000140   0.000627   0.000498  -0.001253
    19  H    0.000159   0.000299  -0.000448   0.000260
    20  H   -0.000022   0.000364  -0.000061   0.000166
    21  H   -0.000006   0.000039  -0.000001  -0.000004
    22  H   -0.000003   0.000055  -0.000175   0.000190
    23  H   -0.000000  -0.000001   0.000001  -0.000003
    24  H    0.000000   0.000001  -0.000000   0.000001
    25  H    0.591493  -0.047662   0.004972  -0.007927
    26  H   -0.047662   0.655271  -0.012000   0.011178
    27  H    0.004972  -0.012000   0.589764  -0.047549
    28  H   -0.007927   0.011178  -0.047549   0.643138
 Mulliken charges:
               1
     1  Br  -0.103849
     2  C    0.167266
     3  C   -0.177684
     4  C   -0.181704
     5  C    0.027470
     6  C    0.002203
     7  C   -0.346504
     8  C    0.475521
     9  C   -0.194670
    10  C   -0.186963
    11  C   -0.173742
    12  O   -0.317220
    13  C   -0.020074
    14  C   -0.079276
    15  O   -0.314769
    16  H    0.125248
    17  H    0.103919
    18  H    0.137697
    19  H    0.099511
    20  H    0.106909
    21  H    0.106716
    22  H    0.113695
    23  H    0.118614
    24  H    0.107501
    25  H    0.113678
    26  H    0.082253
    27  H    0.116143
    28  H    0.092109
 Sum of Mulliken charges =  -0.00000
 Mulliken charges with hydrogens summed into heavy atoms:
               1
     1  Br  -0.103849
     2  C    0.167266
     3  C   -0.052437
     4  C   -0.077785
     5  C    0.027470
     6  C    0.002203
     7  C   -0.208806
     8  C    0.475521
     9  C    0.011751
    10  C    0.033448
    11  C    0.052373
    12  O   -0.317220
    13  C    0.175856
    14  C    0.128977
    15  O   -0.314769
 Electronic spatial extent (au):  <R**2>=           4469.3773
 Charge=             -0.0000 electrons
 Dipole moment (field-independent basis, Debye):
    X=              2.3293    Y=              0.1090    Z=              0.3609  Tot=              2.3596
 Quadrupole moment (field-independent basis, Debye-Ang):
   XX=            -99.3809   YY=            -86.3730   ZZ=           -104.7927
   XY=             -2.7602   XZ=             -0.9739   YZ=             -1.8379
 Traceless Quadrupole moment (field-independent basis, Debye-Ang):
   XX=             -2.5320   YY=             10.4759   ZZ=             -7.9438
   XY=             -2.7602   XZ=             -0.9739   YZ=             -1.8379
 Octapole moment (field-independent basis, Debye-Ang**2):
  XXX=            -65.6275  YYY=            -36.0358  ZZZ=              0.8934  XYY=            -15.3377
  XXY=             -9.2262  XXZ=             -3.1605  XZZ=            -29.5272  YZZ=             -9.9167
  YYZ=              7.3124  XYZ=             -6.5929
 Hexadecapole moment (field-independent basis, Debye-Ang**3):
 XXXX=          -3294.3652 YYYY=          -1529.5599 ZZZZ=           -303.5397 XXXY=             24.7810
 XXXZ=            -10.2628 YYYX=            -18.4121 YYYZ=              6.2961 ZZZX=             12.3727
 ZZZY=            -10.8898 XXYY=           -769.2421 XXZZ=           -624.1516 YYZZ=           -325.7783
 XXYZ=             -6.3718 YYXZ=             10.4599 ZZXY=             16.6565
 N-N= 1.337843583256D+03 E-N=-1.026275207469D+04  KE= 3.183411956882D+03
 Unable to Open any file for archive entry.
 1\1\GINC-DYNAMO\SP\RmPW1PW91\def2TZVP\C12H13Br1O2\RPATON\24-Sep-2024\0
 \\# nmr=giao mpw1pw91/def2tzvp\\arbr42_wb97xd_nmrcreated by GaussianPr
 ep\\0,1\Br,0,-3.420394,-0.49755,-0.039705\C,0,-1.762308,0.422996,0.000
 332\C,0,-1.745816,1.795267,0.187744\C,0,-0.528128,2.448515,0.197619\C,
 0,0.67356,1.763976,0.03712\C,0,0.633609,0.380557,-0.131247\C,0,-0.5885
 18,-0.282921,-0.162404\C,0,1.920919,-0.42906,-0.21877\C,0,3.090406,0.4
 16648,-0.689341\C,0,3.207452,1.671665,0.162771\C,0,1.967947,2.540354,-
 0.008875\O,0,1.727242,-1.549088,-1.059837\C,0,2.12051,-2.714637,-0.361
 651\C,0,1.901508,-2.316815,1.084873\O,0,2.244887,-0.948742,1.068564\H,
 0,-2.668581,2.3441,0.316203\H,0,-0.508555,3.524157,0.331763\H,0,-0.614
 272,-1.348935,-0.335874\H,0,3.992606,-0.19386,-0.633513\H,0,2.921495,0
 .677565,-1.737615\H,0,4.098394,2.237905,-0.112814\H,0,3.321589,1.38083
 ,1.2094\H,0,1.945022,3.330343,0.744598\H,0,2.017973,3.046082,-0.979914
 \H,0,1.497824,-3.545012,-0.693187\H,0,3.172982,-2.947952,-0.556775\H,0
 ,2.555257,-2.829355,1.789037\H,0,0.858158,-2.458254,1.38954\\Version=E
 S64L-G16RevC.01\State=1-A\HF=-3189.9768666\RMSD=7.444e-09\Dipole=0.916
 4086,0.0428957,0.1420004\Quadrupole=-1.8825127,7.7885496,-5.9060369,-2
 .0521458,-0.724084,-1.366405\PG=C01 [X(C12H13Br1O2)]\\@
 The archive entry for this job was punched.


 Change starts when someone sees the next step.
                            -- William Drayton
 Job cpu time:       0 days  1 hours 45 minutes 27.0 seconds.
 Elapsed time:       0 days  0 hours  4 minutes 36.3 seconds.
 File lengths (MBytes):  RWF=    189 Int=      0 D2E=      0 Chk=     25 Scr=      1
 Normal termination of Gaussian 16 at Tue Sep 24 00:00:14 2024.
