 Entering Gaussian System, Link 0=/usr/local/Gaussian/G16C/g16/g16
 Input=arbr79_wb97xd_nmr.com
 Output=arbr79_wb97xd_nmr.log
 Initial command:
 /usr/local/Gaussian/G16C/g16/l1.exe "/home/rpaton/opt/tzvp/nmr/Gau-3220890.inp" -scrdir="/home/rpaton/opt/tzvp/nmr/"
 Entering Link 1 = /usr/local/Gaussian/G16C/g16/l1.exe PID=   3220891.
  
 Copyright (c) 1988-2019, Gaussian, Inc.  All Rights Reserved.
  
 This is part of the Gaussian(R) 16 program.  It is based on
 the Gaussian(R) 09 system (copyright 2009, Gaussian, Inc.),
 the Gaussian(R) 03 system (copyright 2003, Gaussian, Inc.),
 the Gaussian(R) 98 system (copyright 1998, Gaussian, Inc.),
 the Gaussian(R) 94 system (copyright 1995, Gaussian, Inc.),
 the Gaussian 92(TM) system (copyright 1992, Gaussian, Inc.),
 the Gaussian 90(TM) system (copyright 1990, Gaussian, Inc.),
 the Gaussian 88(TM) system (copyright 1988, Gaussian, Inc.),
 the Gaussian 86(TM) system (copyright 1986, Carnegie Mellon
 University), and the Gaussian 82(TM) system (copyright 1983,
 Carnegie Mellon University). Gaussian is a federally registered
 trademark of Gaussian, Inc.
  
 This software contains proprietary and confidential information,
 including trade secrets, belonging to Gaussian, Inc.
  
 This software is provided under written license and may be
 used, copied, transmitted, or stored only in accord with that
 written license.
  
 The following legend is applicable only to US Government
 contracts under FAR:
  
                    RESTRICTED RIGHTS LEGEND
  
 Use, reproduction and disclosure by the US Government is
 subject to restrictions as set forth in subparagraphs (a)
 and (c) of the Commercial Computer Software - Restricted
 Rights clause in FAR 52.227-19.
  
 Gaussian, Inc.
 340 Quinnipiac St., Bldg. 40, Wallingford CT 06492
  
  
 ---------------------------------------------------------------
 Warning -- This program may not be used in any manner that
 competes with the business of Gaussian, Inc. or will provide
 assistance to any competitor of Gaussian, Inc.  The licensee
 of this program is prohibited from giving any competitor of
 Gaussian, Inc. access to this program.  By using this program,
 the user acknowledges that Gaussian, Inc. is engaged in the
 business of creating and licensing software in the field of
 computational chemistry and represents and warrants to the
 licensee that it is not a competitor of Gaussian, Inc. and that
 it will not use this program in any manner prohibited above.
 ---------------------------------------------------------------
  

 Cite this work as:
 Gaussian 16, Revision C.01,
 M. J. Frisch, G. W. Trucks, H. B. Schlegel, G. E. Scuseria, 
 M. A. Robb, J. R. Cheeseman, G. Scalmani, V. Barone, 
 G. A. Petersson, H. Nakatsuji, X. Li, M. Caricato, A. V. Marenich, 
 J. Bloino, B. G. Janesko, R. Gomperts, B. Mennucci, H. P. Hratchian, 
 J. V. Ortiz, A. F. Izmaylov, J. L. Sonnenberg, D. Williams-Young, 
 F. Ding, F. Lipparini, F. Egidi, J. Goings, B. Peng, A. Petrone, 
 T. Henderson, D. Ranasinghe, V. G. Zakrzewski, J. Gao, N. Rega, 
 G. Zheng, W. Liang, M. Hada, M. Ehara, K. Toyota, R. Fukuda, 
 J. Hasegawa, M. Ishida, T. Nakajima, Y. Honda, O. Kitao, H. Nakai, 
 T. Vreven, K. Throssell, J. A. Montgomery, Jr., J. E. Peralta, 
 F. Ogliaro, M. J. Bearpark, J. J. Heyd, E. N. Brothers, K. N. Kudin, 
 V. N. Staroverov, T. A. Keith, R. Kobayashi, J. Normand, 
 K. Raghavachari, A. P. Rendell, J. C. Burant, S. S. Iyengar, 
 J. Tomasi, M. Cossi, J. M. Millam, M. Klene, C. Adamo, R. Cammi, 
 J. W. Ochterski, R. L. Martin, K. Morokuma, O. Farkas, 
 J. B. Foresman, and D. J. Fox, Gaussian, Inc., Wallingford CT, 2019.
 
 ******************************************
 Gaussian 16:  ES64L-G16RevC.01  3-Jul-2019
                24-Sep-2024 
 ******************************************
 %chk=arbr79_wb97xd_nmr.chk
 %mem=48GB
 %nprocshared=24
 Will use up to   24 processors via shared memory.
 ----------------------------
 # nmr=giao mpw1pw91/def2tzvp
 ----------------------------
 1/38=1,172=1/1;
 2/12=2,17=6,18=5,40=1/2;
 3/5=44,7=101,11=2,25=1,30=1,74=-7/1,2,3,8;
 4//1;
 5/5=2,38=5/2;
 8/6=1,10=90,11=11/1;
 10/13=100,45=16/2;
 6/7=2,8=2,9=2,10=2,28=1/1;
 99/9=1/99;
 ----------------------------------------
 arbr79_wb97xd_nmrcreated by GaussianPrep
 ----------------------------------------
 Symbolic Z-matrix:
 Charge =  0 Multiplicity = 1
 C                    -3.95021   1.37872  -0.14623 
 C                    -3.09037   0.38059   0.01422 
 C                    -3.43791  -1.08243   0.20987 
 C                    -2.14579  -1.85994  -0.11133 
 C                    -1.06941  -0.80933  -0.03495 
 C                     0.30319  -0.98843  -0.04493 
 C                     1.10987   0.13704   0.00026 
 Br                    2.9939   -0.07548  -0.00227 
 C                     0.57552   1.41861   0.05145 
 C                    -0.79893   1.58416   0.0593 
 C                    -1.6219    0.46725   0.0172 
 H                    -3.61614   2.40019  -0.28047 
 H                    -5.01912   1.20604  -0.15203 
 H                    -3.71601  -1.24223   1.2547 
 H                    -4.2846   -1.39065  -0.40213 
 H                    -2.18062  -2.28154  -1.11946 
 H                    -1.96915  -2.6877    0.57614 
 H                     0.74097  -1.97724  -0.08577 
 H                     1.23266   2.27625   0.09084 
 H                    -1.2187    2.58127   0.10836 
 
                          Input orientation:                          
 ---------------------------------------------------------------------
 Center     Atomic      Atomic             Coordinates (Angstroms)
 Number     Number       Type             X           Y           Z
 ---------------------------------------------------------------------
      1          6           0       -3.950213    1.378724   -0.146226
      2          6           0       -3.090374    0.380592    0.014217
      3          6           0       -3.437910   -1.082433    0.209870
      4          6           0       -2.145793   -1.859937   -0.111330
      5          6           0       -1.069407   -0.809330   -0.034954
      6          6           0        0.303185   -0.988431   -0.044925
      7          6           0        1.109871    0.137037    0.000261
      8         35           0        2.993897   -0.075481   -0.002266
      9          6           0        0.575515    1.418613    0.051445
     10          6           0       -0.798925    1.584158    0.059300
     11          6           0       -1.621896    0.467248    0.017196
     12          1           0       -3.616144    2.400189   -0.280470
     13          1           0       -5.019121    1.206037   -0.152034
     14          1           0       -3.716014   -1.242229    1.254701
     15          1           0       -4.284602   -1.390647   -0.402126
     16          1           0       -2.180624   -2.281537   -1.119455
     17          1           0       -1.969151   -2.687700    0.576142
     18          1           0        0.740965   -1.977237   -0.085769
     19          1           0        1.232659    2.276247    0.090839
     20          1           0       -1.218701    2.581271    0.108355
 ---------------------------------------------------------------------
                    Distance matrix (angstroms):
                    1          2          3          4          5
     1  C    0.000000
     2  C    1.327152   0.000000
     3  C    2.539006   1.516411   0.000000
     4  C    3.707570   2.434741   1.541833   0.000000
     5  C    3.619255   2.345771   2.396733   1.506059   0.000000
     6  C    4.868786   3.659777   3.750940   2.600274   1.384263
     7  C    5.212264   4.207324   4.713105   3.820956   2.376153
     8  Br   7.096203   6.101363   6.513608   5.441745   4.129170
     9  C    4.530218   3.810199   4.731586   4.263907   2.770733
    10  C    3.164658   2.588695   3.754680   3.702021   2.410566
    11  C    2.505705   1.471036   2.395108   2.388886   1.391982
    12  H    1.083058   2.107616   3.521485   4.509902   4.104529
    13  H    1.082783   2.104534   2.805049   4.202127   4.435725
    14  H    2.981080   2.136299   1.092954   2.170990   2.975759
    15  H    2.801199   2.176421   1.089230   2.208914   3.287890
    16  H    4.180446   3.033115   2.187630   1.093287   2.139705
    17  H    4.580636   3.314712   2.206420   1.090418   2.170542
    18  H    5.768300   4.499835   4.283815   2.889253   2.155002
    19  H    5.265350   4.721016   5.754052   5.344420   3.851768
    20  H    2.995344   2.890503   4.284614   4.542256   3.396911
                    6          7          8          9         10
     6  C    0.000000
     7  C    1.385447   0.000000
     8  Br   2.841695   1.895976   0.000000
     9  C    2.424317   1.389458   2.843198   0.000000
    10  C    2.800665   2.396069   4.140494   1.384396   0.000000
    11  C    2.414290   2.751704   4.647631   2.394762   1.387999
    12  H    5.186460   5.247465   7.063921   4.317831   2.952638
    13  H    5.757960   6.223383   8.116229   5.602370   4.242369
    14  H    4.231714   5.173506   6.925617   5.190870   4.234012
    15  H    4.619216   5.621038   7.407165   5.631910   4.605684
    16  H    2.999341   4.234456   5.735021   4.760086   4.271083
    17  H    2.904608   4.217956   5.638270   4.859263   4.459297
    18  H    1.082154   2.147940   2.949466   3.402646   3.882762
    19  H    3.397128   2.144645   2.939601   1.081169   2.146466
    20  H    3.883607   3.377604   4.981621   2.138743   1.082983
                   11         12         13         14         15
    11  C    0.000000
    12  H    2.793187   0.000000
    13  H    3.480745   1.846846   0.000000
    14  H    2.973056   3.953977   3.109823   0.000000
    15  H    3.273776   3.851243   2.710135   1.757952   0.000000
    16  H    3.026544   4.968216   4.599581   3.012341   2.394780
    17  H    3.222841   5.415993   4.999374   2.366719   2.828545
    18  H    3.401356   6.179334   6.581506   4.711874   5.069565
    19  H    3.380294   4.864578   6.347369   6.182525   6.642988
    20  H    2.154059   2.435510   4.049971   4.708485   5.043458
                   16         17         18         19         20
    16  H    0.000000
    17  H    1.756342   0.000000
    18  H    3.113967   2.878821   0.000000
    19  H    5.821401   5.926877   4.285450   0.000000
    20  H    5.106830   5.342664   4.965679   2.470326   0.000000
 Stoichiometry    C10H9Br
 Framework group  C1[X(C10H9Br)]
 Deg. of freedom    54
 Full point group                 C1      NOp   1
 Largest Abelian subgroup         C1      NOp   1
 Largest concise Abelian subgroup C1      NOp   1
                         Standard orientation:                         
 ---------------------------------------------------------------------
 Center     Atomic      Atomic             Coordinates (Angstroms)
 Number     Number       Type             X           Y           Z
 ---------------------------------------------------------------------
      1          6           0       -3.950213    1.378724   -0.146226
      2          6           0       -3.090374    0.380592    0.014217
      3          6           0       -3.437910   -1.082433    0.209870
      4          6           0       -2.145793   -1.859937   -0.111330
      5          6           0       -1.069407   -0.809330   -0.034954
      6          6           0        0.303185   -0.988431   -0.044925
      7          6           0        1.109871    0.137037    0.000261
      8         35           0        2.993897   -0.075481   -0.002266
      9          6           0        0.575515    1.418613    0.051445
     10          6           0       -0.798925    1.584158    0.059300
     11          6           0       -1.621896    0.467248    0.017196
     12          1           0       -3.616144    2.400189   -0.280470
     13          1           0       -5.019121    1.206037   -0.152034
     14          1           0       -3.716014   -1.242229    1.254701
     15          1           0       -4.284602   -1.390647   -0.402126
     16          1           0       -2.180624   -2.281537   -1.119455
     17          1           0       -1.969151   -2.687700    0.576142
     18          1           0        0.740965   -1.977237   -0.085769
     19          1           0        1.232659    2.276247    0.090839
     20          1           0       -1.218701    2.581271    0.108355
 ---------------------------------------------------------------------
 Rotational constants (GHZ):           2.5151001           0.3725529           0.3263863
 Standard basis: def2TZVP (5D, 7F)
 There are   469 symmetry adapted cartesian basis functions of A   symmetry.
 There are   412 symmetry adapted basis functions of A   symmetry.
   412 basis functions,   696 primitive gaussians,   469 cartesian basis functions
    52 alpha electrons       52 beta electrons
       nuclear repulsion energy       787.6784318140 Hartrees.
 NAtoms=   20 NActive=   20 NUniq=   20 SFac= 1.00D+00 NAtFMM=   60 NAOKFM=F Big=F
 Integral buffers will be    131072 words long.
 Raffenetti 2 integral format.
 Two-electron integral symmetry is turned on.
 One-electron integrals computed using PRISM.
   1 Symmetry operations used in ECPInt.
 ECPInt:  NShTT=   13203 NPrTT=   43384 LenC2=   12569 LenP2D=   31286.
 LDataN:  DoStor=T MaxTD1= 6 Len=  172
 NBasis=   412 RedAO= T EigKep=  5.90D-06  NBF=   412
 NBsUse=   412 1.00D-06 EigRej= -1.00D+00 NBFU=   412
 ExpMin= 9.52D-02 ExpMax= 5.65D+05 ExpMxC= 5.46D+03 IAcc=3 IRadAn=         5 AccDes= 0.00D+00
 Harris functional with IExCor=  908 and IRadAn=       5 diagonalized for initial guess.
 HarFok:  IExCor=  908 AccDes= 0.00D+00 IRadAn=         5 IDoV= 1 UseB2=F ITyADJ=14
 ICtDFT=  3500011 ScaDFX=  1.000000  1.000000  1.000000  1.000000
 FoFCou: FMM=F IPFlag=           0 FMFlag=      100000 FMFlg1=           0
         NFxFlg=           0 DoJE=T BraDBF=F KetDBF=T FulRan=T
         wScrn=  0.000000 ICntrl=       500 IOpCl=  0 I1Cent=   200000004 NGrid=           0
         NMat0=    1 NMatS0=      1 NMatT0=    0 NMatD0=    1 NMtDS0=    0 NMtDT0=    0
 Petite list used in FoFCou.
 Requested convergence on RMS density matrix=1.00D-08 within 128 cycles.
 Requested convergence on MAX density matrix=1.00D-06.
 Requested convergence on             energy=1.00D-06.
 No special actions if energy rises.
 Integral accuracy reduced to 1.0D-05 until final iterations.
 Problem detected with inexpensive integrals.
 Switching to full accuracy and repeating last cycle.
 SCF Done:  E(RmPW1PW91) =  -2960.86622229     A.U. after   16 cycles
            NFock= 16  Conv=0.32D-08     -V/T= 2.0019
 DoSCS=F DFT=T ScalE2(SS,OS)=  1.000000  1.000000
 Range of M.O.s used for correlation:     1   412
 NBasis=   412 NAE=    52 NBE=    52 NFC=     0 NFV=     0
 NROrb=    412 NOA=    52 NOB=    52 NVA=   360 NVB=   360

 **** Warning!!: The largest alpha MO coefficient is  0.56860598D+02

          Differentiating once with respect to magnetic field using GIAOs.
          Electric field/nuclear overlap derivatives assumed to be zero.
 FoFCou: FMM=F IPFlag=           0 FMFlag=      100000 FMFlg1=           0
         NFxFlg=           0 DoJE=F BraDBF=F KetDBF=T FulRan=T
         wScrn=  0.000000 ICntrl=      6100 IOpCl=  0 I1Cent=           7 NGrid=          20
         NMat0=    1 NMatS0=      1 NMatT0=    0 NMatD0=    1 NMtDS0=    0 NMtDT0=    0
 Symmetry not used in FoFCou.
   1 Symmetry operations used in ECPInt.
 ECPInt:  NShTT=   13203 NPrTT=   43384 LenC2=   13204 LenP2D=   43384.
 LDataN:  DoStor=T MaxTD1= 7 Len=  274
 FoFJK:  IHMeth= 1 ICntrl=    6127 DoSepK=F KAlg= 0 I1Cent=           0 FoldK=F
 IRaf=         1 NMat=       1 IRICut=       1 DoRegI=T DoRafI=F ISym2E= 0 IDoP0=0 IntGTp=1.
          There are     3 degrees of freedom in the 1st order CPHF.  IDoFFX=0 NUNeed=     3.
      3 vectors produced by pass  0 Test12= 6.24D-13 3.33D-08 XBig12= 2.30D+01 8.52D-01.
 AX will form     3 AO Fock derivatives at one time.
      3 vectors produced by pass  1 Test12= 6.24D-13 3.33D-08 XBig12= 5.42D-02 8.23D-02.
      3 vectors produced by pass  2 Test12= 6.24D-13 3.33D-08 XBig12= 3.92D-04 6.99D-03.
      3 vectors produced by pass  3 Test12= 6.24D-13 3.33D-08 XBig12= 1.28D-06 4.72D-04.
      3 vectors produced by pass  4 Test12= 6.24D-13 3.33D-08 XBig12= 7.16D-09 4.54D-05.
      3 vectors produced by pass  5 Test12= 6.24D-13 3.33D-08 XBig12= 4.40D-11 1.92D-06.
      2 vectors produced by pass  6 Test12= 6.24D-13 3.33D-08 XBig12= 1.21D-13 1.15D-07.
 InvSVY:  IOpt=1 It=  1 EMax= 1.78D-15
 Solved reduced A of dimension    20 with     3 vectors.
 Calculating GIAO nuclear magnetic shielding tensors.
 SCF GIAO Magnetic shielding tensor (ppm):
      1  C    Isotropic =    80.4577   Anisotropy =   132.5538
   XX=    27.2232   YX=   -59.3881   ZX=     3.7843
   XY=   -56.6518   YY=    49.8929   ZY=    16.1713
   XZ=    -4.4449   YZ=    25.2622   ZZ=   164.2569
   Eigenvalues:   -21.4676    94.0137   168.8269
      2  C    Isotropic =    28.3698   Anisotropy =   145.1152
   XX=   -29.0271   YX=   -59.3795   ZX=    -0.7191
   XY=   -58.9820   YY=    -6.8156   ZY=    20.7855
   XZ=     0.0256   YZ=    21.5792   ZZ=   120.9520
   Eigenvalues:   -79.0244    39.0204   125.1132
      3  C    Isotropic =   152.4070   Anisotropy =    33.8062
   XX=   155.8228   YX=     0.9217   ZX=    -4.2309
   XY=    -0.5313   YY=   174.9420   ZY=     2.5842
   XZ=    -7.3638   YZ=    -2.1659   ZZ=   126.4562
   Eigenvalues:   125.3520   156.9245   174.9445
      4  C    Isotropic =   153.8459   Anisotropy =    30.4508
   XX=   171.2133   YX=     6.4689   ZX=    -4.2728
   XY=     5.9440   YY=   159.9505   ZY=     0.2064
   XZ=    -3.8148   YZ=     4.1610   ZZ=   130.3738
   Eigenvalues:   129.7145   157.6767   174.1464
      5  C    Isotropic =    32.3206   Anisotropy =   166.2059
   XX=   -15.2991   YX=   -24.8202   ZX=    -2.2002
   XY=   -34.5170   YY=   -30.4704   ZY=    -9.6213
   XZ=   -11.1305   YZ=    -1.5862   ZZ=   142.7312
   Eigenvalues:   -53.8765     7.7137   143.1245
      6  C    Isotropic =    54.0249   Anisotropy =   143.8578
   XX=    38.6073   YX=    32.0531   ZX=     0.7406
   XY=    32.2160   YY=   -26.0281   ZY=    -7.3857
   XZ=    -1.0288   YZ=    -9.5511   ZZ=   149.4955
   Eigenvalues:   -39.6049    51.7495   149.9301
      7  C    Isotropic =    42.4481   Anisotropy =   119.2632
   XX=   -48.2328   YX=    13.1172   ZX=     0.1053
   XY=    13.7067   YY=    53.7809   ZY=    -2.6967
   XZ=     4.1807   YZ=    -3.6300   ZZ=   121.7964
   Eigenvalues:   -50.0039    55.3914   121.9570
      8  Br   Isotropic =  2082.3116   Anisotropy =  1281.4354
   XX=  2919.2614   YX=  -149.4131   ZX=    -2.2471
   XY=  -143.9717   YY=  1695.5995   ZY=     3.0632
   XZ=     0.3314   YZ=    -2.5542   ZZ=  1632.0740
   Eigenvalues:  1632.0729  1678.2602  2936.6019
      9  C    Isotropic =    52.8472   Anisotropy =   153.7715
   XX=    18.9580   YX=   -42.8462   ZX=    -2.1842
   XY=   -47.1272   YY=   -15.5018   ZY=    -7.3665
   XZ=    -1.6487   YZ=    -6.3691   ZZ=   155.0854
   Eigenvalues:   -46.6708    49.8509   155.3615
     10  C    Isotropic =    61.3533   Anisotropy =   174.0908
   XX=    33.8487   YX=    29.1388   ZX=     1.0787
   XY=    25.9431   YY=   -26.5136   ZY=    -8.9578
   XZ=    -6.1769   YZ=   -12.6823   ZZ=   176.7247
   Eigenvalues:   -37.5838    44.2298   177.4138
     11  C    Isotropic =    41.5533   Anisotropy =   172.2461
   XX=   -46.5561   YX=     1.5578   ZX=    -0.5251
   XY=    14.5873   YY=    15.7900   ZY=    -6.0229
   XZ=     1.7459   YZ=   -17.1880   ZZ=   155.4260
   Eigenvalues:   -47.6058    15.8816   156.3840
     12  H    Isotropic =    26.0811   Anisotropy =     6.3445
   XX=    27.1935   YX=    -4.4797   ZX=     0.7475
   XY=    -1.2185   YY=    27.4100   ZY=    -0.1939
   XZ=     1.2267   YZ=    -0.7492   ZZ=    23.6397
   Eigenvalues:    23.3513    24.5812    30.3107
     13  H    Isotropic =    26.5324   Anisotropy =     6.1522
   XX=    27.0802   YX=    -1.5182   ZX=     0.2663
   XY=    -4.4933   YY=    28.0291   ZY=    -0.4215
   XZ=     0.3870   YZ=    -0.2618   ZZ=    24.4879
   Eigenvalues:    24.4418    24.5216    30.6338
     14  H    Isotropic =    28.9831   Anisotropy =     8.2358
   XX=    28.1436   YX=    -0.9440   ZX=    -3.5139
   XY=    -0.4794   YY=    28.0787   ZY=    -1.5696
   XZ=    -5.5864   YZ=    -2.9207   ZZ=    30.7271
   Eigenvalues:    23.8040    28.6717    34.4737
     15  H    Isotropic =    29.0432   Anisotropy =     7.4454
   XX=    32.5562   YX=     0.1397   ZX=     2.7450
   XY=     1.5401   YY=    28.7601   ZY=     1.4675
   XZ=     3.1373   YZ=     1.6432   ZZ=    25.8133
   Eigenvalues:    24.3879    28.7348    34.0068
     16  H    Isotropic =    28.8245   Anisotropy =     8.2313
   XX=    28.9032   YX=     0.4144   ZX=    -0.1511
   XY=    -0.1318   YY=    28.2769   ZY=     4.1100
   XZ=     0.7165   YZ=     6.8625   ZZ=    29.2935
   Eigenvalues:    23.2741    28.8874    34.3120
     17  H    Isotropic =    28.9156   Anisotropy =     7.9944
   XX=    29.0808   YX=    -0.6450   ZX=     0.0829
   XY=    -1.7183   YY=    32.0890   ZY=    -3.4650
   XZ=    -0.2623   YZ=    -4.6615   ZZ=    25.5769
   Eigenvalues:    23.5614    28.9402    34.2452
     18  H    Isotropic =    24.2563   Anisotropy =    10.7162
   XX=    29.5772   YX=     3.7534   ZX=     0.1989
   XY=     3.6681   YY=    23.8316   ZY=     0.1659
   XZ=     0.1221   YZ=     0.0667   ZZ=    19.3600
   Eigenvalues:    19.3564    22.0120    31.4004
     19  H    Isotropic =    24.2997   Anisotropy =     9.2183
   XX=    27.1658   YX=    -4.0190   ZX=    -0.1677
   XY=    -3.4883   YY=    26.1294   ZY=     0.2037
   XZ=    -0.1503   YZ=     0.3506   ZZ=    19.6039
   Eigenvalues:    19.5922    22.8617    30.4453
     20  H    Isotropic =    24.1304   Anisotropy =     6.7223
   XX=    28.3377   YX=     1.4480   ZX=     0.1544
   XY=     0.7864   YY=    23.7990   ZY=     0.0041
   XZ=     0.4354   YZ=     0.4941   ZZ=    20.2546
   Eigenvalues:    20.2312    23.5482    28.6119
 End of Minotr F.D. properties file   721 does not exist.
 End of Minotr F.D. properties file   722 does not exist.
 End of Minotr F.D. properties file   788 does not exist.

 **********************************************************************

            Population analysis using the SCF Density.

 **********************************************************************

 Orbital symmetries:
       Occupied  (A) (A) (A) (A) (A) (A) (A) (A) (A) (A) (A) (A)
                 (A) (A) (A) (A) (A) (A) (A) (A) (A) (A) (A) (A)
                 (A) (A) (A) (A) (A) (A) (A) (A) (A) (A) (A) (A)
                 (A) (A) (A) (A) (A) (A) (A) (A) (A) (A) (A) (A)
                 (A) (A) (A) (A)
       Virtual   (A) (A) (A) (A) (A) (A) (A) (A) (A) (A) (A) (A)
                 (A) (A) (A) (A) (A) (A) (A) (A) (A) (A) (A) (A)
                 (A) (A) (A) (A) (A) (A) (A) (A) (A) (A) (A) (A)
                 (A) (A) (A) (A) (A) (A) (A) (A) (A) (A) (A) (A)
                 (A) (A) (A) (A) (A) (A) (A) (A) (A) (A) (A) (A)
                 (A) (A) (A) (A) (A) (A) (A) (A) (A) (A) (A) (A)
                 (A) (A) (A) (A) (A) (A) (A) (A) (A) (A) (A) (A)
                 (A) (A) (A) (A) (A) (A) (A) (A) (A) (A) (A) (A)
                 (A) (A) (A) (A) (A) (A) (A) (A) (A) (A) (A) (A)
                 (A) (A) (A) (A) (A) (A) (A) (A) (A) (A) (A) (A)
                 (A) (A) (A) (A) (A) (A) (A) (A) (A) (A) (A) (A)
                 (A) (A) (A) (A) (A) (A) (A) (A) (A) (A) (A) (A)
                 (A) (A) (A) (A) (A) (A) (A) (A) (A) (A) (A) (A)
                 (A) (A) (A) (A) (A) (A) (A) (A) (A) (A) (A) (A)
                 (A) (A) (A) (A) (A) (A) (A) (A) (A) (A) (A) (A)
                 (A) (A) (A) (A) (A) (A) (A) (A) (A) (A) (A) (A)
                 (A) (A) (A) (A) (A) (A) (A) (A) (A) (A) (A) (A)
                 (A) (A) (A) (A) (A) (A) (A) (A) (A) (A) (A) (A)
                 (A) (A) (A) (A) (A) (A) (A) (A) (A) (A) (A) (A)
                 (A) (A) (A) (A) (A) (A) (A) (A) (A) (A) (A) (A)
                 (A) (A) (A) (A) (A) (A) (A) (A) (A) (A) (A) (A)
                 (A) (A) (A) (A) (A) (A) (A) (A) (A) (A) (A) (A)
                 (A) (A) (A) (A) (A) (A) (A) (A) (A) (A) (A) (A)
                 (A) (A) (A) (A) (A) (A) (A) (A) (A) (A) (A) (A)
                 (A) (A) (A) (A) (A) (A) (A) (A) (A) (A) (A) (A)
                 (A) (A) (A) (A) (A) (A) (A) (A) (A) (A) (A) (A)
                 (A) (A) (A) (A) (A) (A) (A) (A) (A) (A) (A) (A)
                 (A) (A) (A) (A) (A) (A) (A) (A) (A) (A) (A) (A)
                 (A) (A) (A) (A) (A) (A) (A) (A) (A) (A) (A) (A)
                 (A) (A) (A) (A) (A) (A) (A) (A) (A) (A) (A) (A)
 The electronic state is 1-A.
 Alpha  occ. eigenvalues -- -483.34402 -62.67503 -56.45526 -56.45189 -56.45178
 Alpha  occ. eigenvalues --  -10.30026 -10.25580 -10.25297 -10.25221 -10.25164
 Alpha  occ. eigenvalues --  -10.25148 -10.24922 -10.24724 -10.24362 -10.22687
 Alpha  occ. eigenvalues --   -8.77908  -6.59169  -6.58091  -6.58055  -2.67835
 Alpha  occ. eigenvalues --   -2.67516  -2.67489  -2.66605  -2.66605  -0.92268
 Alpha  occ. eigenvalues --   -0.87204  -0.81617  -0.80284  -0.75544  -0.74052
 Alpha  occ. eigenvalues --   -0.67150  -0.64653  -0.60042  -0.57544  -0.51510
 Alpha  occ. eigenvalues --   -0.50402  -0.48699  -0.47298  -0.46168  -0.44380
 Alpha  occ. eigenvalues --   -0.42381  -0.41089  -0.39402  -0.38562  -0.37650
 Alpha  occ. eigenvalues --   -0.36435  -0.35013  -0.34229  -0.30413  -0.29136
 Alpha  occ. eigenvalues --   -0.27570  -0.23603
 Alpha virt. eigenvalues --   -0.04462  -0.01825   0.00714   0.04000   0.05090
 Alpha virt. eigenvalues --    0.06781   0.07720   0.09104   0.09617   0.10036
 Alpha virt. eigenvalues --    0.12470   0.12823   0.13339   0.15489   0.15984
 Alpha virt. eigenvalues --    0.16663   0.17731   0.17825   0.18616   0.18771
 Alpha virt. eigenvalues --    0.20845   0.21409   0.21878   0.23234   0.23884
 Alpha virt. eigenvalues --    0.24160   0.25067   0.25291   0.26109   0.26754
 Alpha virt. eigenvalues --    0.28190   0.28730   0.29587   0.30345   0.30704
 Alpha virt. eigenvalues --    0.31008   0.32132   0.33148   0.34552   0.35165
 Alpha virt. eigenvalues --    0.35384   0.36478   0.37581   0.37849   0.38175
 Alpha virt. eigenvalues --    0.39291   0.40159   0.41303   0.42525   0.43033
 Alpha virt. eigenvalues --    0.43864   0.44291   0.44861   0.45514   0.46318
 Alpha virt. eigenvalues --    0.47229   0.48753   0.49473   0.49726   0.50601
 Alpha virt. eigenvalues --    0.51094   0.51899   0.53482   0.54477   0.56303
 Alpha virt. eigenvalues --    0.57032   0.58123   0.58927   0.60450   0.61049
 Alpha virt. eigenvalues --    0.62772   0.63528   0.65970   0.66208   0.67722
 Alpha virt. eigenvalues --    0.69643   0.70084   0.70774   0.71684   0.72205
 Alpha virt. eigenvalues --    0.72617   0.76831   0.78283   0.78961   0.80510
 Alpha virt. eigenvalues --    0.81937   0.82413   0.83657   0.84531   0.85535
 Alpha virt. eigenvalues --    0.88295   0.90240   0.91399   0.92073   0.94412
 Alpha virt. eigenvalues --    0.95319   0.96487   0.97119   0.98358   0.99793
 Alpha virt. eigenvalues --    1.00804   1.03014   1.05320   1.06792   1.07000
 Alpha virt. eigenvalues --    1.08087   1.10065   1.12320   1.12802   1.14378
 Alpha virt. eigenvalues --    1.15545   1.16032   1.19658   1.21220   1.22387
 Alpha virt. eigenvalues --    1.23468   1.24266   1.26337   1.27180   1.27755
 Alpha virt. eigenvalues --    1.30471   1.32601   1.33658   1.35828   1.35927
 Alpha virt. eigenvalues --    1.37372   1.38251   1.39227   1.40113   1.40469
 Alpha virt. eigenvalues --    1.42147   1.43948   1.44570   1.47453   1.48338
 Alpha virt. eigenvalues --    1.50235   1.50378   1.51928   1.54399   1.54572
 Alpha virt. eigenvalues --    1.56914   1.58323   1.58681   1.59559   1.59999
 Alpha virt. eigenvalues --    1.61442   1.62436   1.63318   1.64056   1.64955
 Alpha virt. eigenvalues --    1.65895   1.66170   1.67233   1.69134   1.69680
 Alpha virt. eigenvalues --    1.71444   1.72836   1.73662   1.75090   1.77366
 Alpha virt. eigenvalues --    1.79935   1.80928   1.83460   1.84411   1.84732
 Alpha virt. eigenvalues --    1.85838   1.88125   1.89010   1.91027   1.91967
 Alpha virt. eigenvalues --    1.93314   1.95710   1.97364   1.98076   2.02563
 Alpha virt. eigenvalues --    2.03980   2.06167   2.06328   2.07896   2.11518
 Alpha virt. eigenvalues --    2.12402   2.13711   2.14301   2.19607   2.20037
 Alpha virt. eigenvalues --    2.22253   2.23719   2.26813   2.27627   2.30151
 Alpha virt. eigenvalues --    2.33108   2.34568   2.36101   2.40615   2.42568
 Alpha virt. eigenvalues --    2.44357   2.46201   2.47538   2.49190   2.49431
 Alpha virt. eigenvalues --    2.52358   2.53059   2.54306   2.55819   2.57755
 Alpha virt. eigenvalues --    2.60355   2.61970   2.62850   2.63838   2.66110
 Alpha virt. eigenvalues --    2.68651   2.69669   2.70883   2.72040   2.72131
 Alpha virt. eigenvalues --    2.73584   2.74116   2.76850   2.79002   2.80120
 Alpha virt. eigenvalues --    2.81120   2.82861   2.84427   2.85176   2.86547
 Alpha virt. eigenvalues --    2.86864   2.87388   2.89168   2.91877   2.93210
 Alpha virt. eigenvalues --    2.94387   2.95332   2.97691   2.99470   3.00903
 Alpha virt. eigenvalues --    3.02586   3.03968   3.05567   3.07110   3.07734
 Alpha virt. eigenvalues --    3.10141   3.11499   3.11777   3.13117   3.13549
 Alpha virt. eigenvalues --    3.15083   3.17033   3.17595   3.19821   3.20132
 Alpha virt. eigenvalues --    3.20619   3.21436   3.22412   3.24474   3.26384
 Alpha virt. eigenvalues --    3.28707   3.29076   3.30591   3.32304   3.33002
 Alpha virt. eigenvalues --    3.34576   3.35150   3.36582   3.37794   3.38819
 Alpha virt. eigenvalues --    3.39268   3.40380   3.42452   3.43829   3.44424
 Alpha virt. eigenvalues --    3.45709   3.47252   3.49089   3.50446   3.52714
 Alpha virt. eigenvalues --    3.53984   3.55071   3.57378   3.57988   3.59080
 Alpha virt. eigenvalues --    3.62622   3.63437   3.65060   3.66739   3.67264
 Alpha virt. eigenvalues --    3.71902   3.73181   3.74715   3.79215   3.81324
 Alpha virt. eigenvalues --    3.83618   3.86275   3.87097   3.89930   3.90981
 Alpha virt. eigenvalues --    3.92578   3.95216   3.99544   4.03069   4.03742
 Alpha virt. eigenvalues --    4.04423   4.06063   4.09024   4.10583   4.12300
 Alpha virt. eigenvalues --    4.13844   4.17277   4.18949   4.19612   4.20426
 Alpha virt. eigenvalues --    4.21914   4.23649   4.25681   4.28139   4.29661
 Alpha virt. eigenvalues --    4.31061   4.36978   4.39094   4.41068   4.43513
 Alpha virt. eigenvalues --    4.44628   4.45472   4.47000   4.48907   4.52047
 Alpha virt. eigenvalues --    4.58983   4.62868   4.65440   4.68531   4.71466
 Alpha virt. eigenvalues --    4.73951   4.78120   4.80298   4.81216   4.85529
 Alpha virt. eigenvalues --    4.87660   4.91742   4.97818   5.03322   5.08943
 Alpha virt. eigenvalues --    5.10369   5.20101   5.25580   5.34586   5.39818
 Alpha virt. eigenvalues --    5.45434   5.57254   5.63013   5.86511   7.79272
 Alpha virt. eigenvalues --   22.03919  22.54454  22.61093  22.63677  22.76325
 Alpha virt. eigenvalues --   22.81244  22.89984  23.02666  23.28046  23.71347
          Condensed to atoms (all electrons):
               1          2          3          4          5          6
     1  C    4.996529   0.594271  -0.072483   0.010189   0.006893  -0.000918
     2  C    0.594271   5.074089   0.396168  -0.076070  -0.088679   0.018269
     3  C   -0.072483   0.396168   4.861442   0.388225  -0.076619   0.002925
     4  C    0.010189  -0.076070   0.388225   4.920121   0.365700  -0.088473
     5  C    0.006893  -0.088679  -0.076619   0.365700   5.147377   0.276067
     6  C   -0.000918   0.018269   0.002925  -0.088473   0.276067   5.357182
     7  C   -0.000006  -0.005237   0.000084   0.010000   0.068800   0.367334
     8  Br  -0.000007  -0.000104   0.000045  -0.001041   0.014253  -0.067318
     9  C    0.001166   0.013539  -0.001981   0.001598  -0.109128   0.038703
    10  C    0.000693  -0.100792   0.017766   0.006923   0.004634  -0.101787
    11  C   -0.071094   0.325143  -0.084762  -0.074856   0.415641   0.026153
    12  H    0.388411  -0.006843   0.012191  -0.001623   0.000195   0.000155
    13  H    0.410220  -0.038099  -0.018141   0.001677  -0.000974  -0.000016
    14  H    0.001199  -0.013181   0.357091  -0.017153   0.003198   0.001542
    15  H    0.001603  -0.036529   0.401770  -0.024274   0.005402  -0.000498
    16  H    0.000989  -0.005161  -0.003629   0.334811  -0.009524   0.008067
    17  H   -0.000455   0.010131  -0.031607   0.413744  -0.038951   0.003005
    18  H    0.000007  -0.000340   0.000654  -0.009847  -0.082506   0.469471
    19  H    0.000041  -0.000180   0.000007   0.000173  -0.002766   0.014780
    20  H    0.002756  -0.009542   0.000990  -0.000957   0.012480  -0.001399
               7          8          9         10         11         12
     1  C   -0.000006  -0.000007   0.001166   0.000693  -0.071094   0.388411
     2  C   -0.005237  -0.000104   0.013539  -0.100792   0.325143  -0.006843
     3  C    0.000084   0.000045  -0.001981   0.017766  -0.084762   0.012191
     4  C    0.010000  -0.001041   0.001598   0.006923  -0.074856  -0.001623
     5  C    0.068800   0.014253  -0.109128   0.004634   0.415641   0.000195
     6  C    0.367334  -0.067318   0.038703  -0.101787   0.026153   0.000155
     7  C    4.829858   0.310860   0.383585   0.083316  -0.104377  -0.000088
     8  Br   0.310860  34.905857  -0.074652   0.019415  -0.001769  -0.000001
     9  C    0.383585  -0.074652   5.078851   0.368082   0.032837   0.000562
    10  C    0.083316   0.019415   0.368082   5.163031   0.418560   0.006872
    11  C   -0.104377  -0.001769   0.032837   0.418560   5.037622  -0.031558
    12  H   -0.000088  -0.000001   0.000562   0.006872  -0.031558   0.548703
    13  H    0.000019   0.000000  -0.000047  -0.000841   0.014081  -0.035779
    14  H   -0.000060  -0.000000   0.000046  -0.001127  -0.005282  -0.000391
    15  H    0.000011  -0.000000   0.000073  -0.000581   0.007246  -0.000163
    16  H   -0.000865   0.000007   0.000060  -0.000220  -0.000586   0.000041
    17  H    0.000360   0.000003   0.000030  -0.000225  -0.003032   0.000025
    18  H   -0.071914  -0.002579   0.016723  -0.005284   0.017403   0.000004
    19  H   -0.064248  -0.004015   0.450083  -0.071357   0.014774   0.000014
    20  H    0.010095  -0.000458  -0.052902   0.438896  -0.064076   0.003871
              13         14         15         16         17         18
     1  C    0.410220   0.001199   0.001603   0.000989  -0.000455   0.000007
     2  C   -0.038099  -0.013181  -0.036529  -0.005161   0.010131  -0.000340
     3  C   -0.018141   0.357091   0.401770  -0.003629  -0.031607   0.000654
     4  C    0.001677  -0.017153  -0.024274   0.334811   0.413744  -0.009847
     5  C   -0.000974   0.003198   0.005402  -0.009524  -0.038951  -0.082506
     6  C   -0.000016   0.001542  -0.000498   0.008067   0.003005   0.469471
     7  C    0.000019  -0.000060   0.000011  -0.000865   0.000360  -0.071914
     8  Br   0.000000  -0.000000  -0.000000   0.000007   0.000003  -0.002579
     9  C   -0.000047   0.000046   0.000073   0.000060   0.000030   0.016723
    10  C   -0.000841  -0.001127  -0.000581  -0.000220  -0.000225  -0.005284
    11  C    0.014081  -0.005282   0.007246  -0.000586  -0.003032   0.017403
    12  H   -0.035779  -0.000391  -0.000163   0.000041   0.000025   0.000004
    13  H    0.541810   0.001156   0.002535  -0.000065  -0.000031  -0.000002
    14  H    0.001156   0.601483  -0.029224   0.007044  -0.013014  -0.000050
    15  H    0.002535  -0.029224   0.567262  -0.011298   0.001678  -0.000020
    16  H   -0.000065   0.007044  -0.011298   0.605303  -0.032441   0.001164
    17  H   -0.000031  -0.013014   0.001678  -0.032441   0.571294   0.001639
    18  H   -0.000002  -0.000050  -0.000020   0.001164   0.001639   0.546995
    19  H   -0.000001  -0.000000  -0.000000  -0.000002  -0.000002  -0.000069
    20  H   -0.000258  -0.000065  -0.000030   0.000011   0.000038   0.000088
              19         20
     1  C    0.000041   0.002756
     2  C   -0.000180  -0.009542
     3  C    0.000007   0.000990
     4  C    0.000173  -0.000957
     5  C   -0.002766   0.012480
     6  C    0.014780  -0.001399
     7  C   -0.064248   0.010095
     8  Br  -0.004015  -0.000458
     9  C    0.450083  -0.052902
    10  C   -0.071357   0.438896
    11  C    0.014774  -0.064076
    12  H    0.000014   0.003871
    13  H   -0.000001  -0.000258
    14  H   -0.000000  -0.000065
    15  H   -0.000000  -0.000030
    16  H   -0.000002   0.000011
    17  H   -0.000002   0.000038
    18  H   -0.000069   0.000088
    19  H    0.542039  -0.008321
    20  H   -0.008321   0.558491
 Mulliken charges:
               1
     1  C   -0.270007
     2  C   -0.050854
     3  C   -0.150139
     4  C   -0.158866
     5  C    0.088509
     6  C   -0.323243
     7  C    0.182472
     8  Br  -0.098496
     9  C   -0.147228
    10  C   -0.245975
    11  C    0.131932
    12  H    0.115402
    13  H    0.122756
    14  H    0.106789
    15  H    0.115035
    16  H    0.106296
    17  H    0.117813
    18  H    0.118462
    19  H    0.129050
    20  H    0.110292
 Sum of Mulliken charges =  -0.00000
 Mulliken charges with hydrogens summed into heavy atoms:
               1
     1  C   -0.031849
     2  C   -0.050854
     3  C    0.071685
     4  C    0.065243
     5  C    0.088509
     6  C   -0.204782
     7  C    0.182472
     8  Br  -0.098496
     9  C   -0.018178
    10  C   -0.135682
    11  C    0.131932
 Electronic spatial extent (au):  <R**2>=           3038.0126
 Charge=             -0.0000 electrons
 Dipole moment (field-independent basis, Debye):
    X=             -1.8987    Y=             -0.4931    Z=              0.0403  Tot=              1.9621
 Quadrupole moment (field-independent basis, Debye-Ang):
   XX=            -75.8843   YY=            -69.9737   ZZ=            -80.1650
   XY=              2.3377   XZ=             -0.0370   YZ=              0.0111
 Traceless Quadrupole moment (field-independent basis, Debye-Ang):
   XX=             -0.5433   YY=              5.3673   ZZ=             -4.8240
   XY=              2.3377   XZ=             -0.0370   YZ=              0.0111
 Octapole moment (field-independent basis, Debye-Ang**2):
  XXX=             77.3544  YYY=              2.5345  ZZZ=              0.6536  XYY=             27.2205
  XXY=             -7.5375  XXZ=             -0.4619  XZZ=             34.5344  YZZ=             -6.3788
  YYZ=             -0.2677  XYZ=              1.0104
 Hexadecapole moment (field-independent basis, Debye-Ang**3):
 XXXX=          -2775.6733 YYYY=           -610.4527 ZZZZ=           -108.7038 XXXY=             10.6799
 XXXZ=              5.7157 YYYX=            -10.1970 YYYZ=             -1.7483 ZZZX=             -4.4032
 ZZZY=              0.4474 XXYY=           -579.6633 XXZZ=           -524.3630 YYZZ=           -131.7293
 XXYZ=             -2.5055 YYXZ=              3.2252 ZZXY=             11.9601
 N-N= 7.876784318140D+02 E-N=-8.624113054754D+03  KE= 2.955296680159D+03
 Unable to Open any file for archive entry.
 1\1\GINC-DYNAMO\SP\RmPW1PW91\def2TZVP\C10H9Br1\RPATON\24-Sep-2024\0\\#
  nmr=giao mpw1pw91/def2tzvp\\arbr79_wb97xd_nmrcreated by GaussianPrep\
 \0,1\C,0,-3.950213,1.378724,-0.146226\C,0,-3.090374,0.380592,0.014217\
 C,0,-3.43791,-1.082433,0.20987\C,0,-2.145793,-1.859937,-0.11133\C,0,-1
 .069407,-0.80933,-0.034954\C,0,0.303185,-0.988431,-0.044925\C,0,1.1098
 71,0.137037,0.000261\Br,0,2.993897,-0.075481,-0.002266\C,0,0.575515,1.
 418613,0.051445\C,0,-0.798925,1.584158,0.0593\C,0,-1.621896,0.467248,0
 .017196\H,0,-3.616144,2.400189,-0.28047\H,0,-5.019121,1.206037,-0.1520
 34\H,0,-3.716014,-1.242229,1.254701\H,0,-4.284602,-1.390647,-0.402126\
 H,0,-2.180624,-2.281537,-1.119455\H,0,-1.969151,-2.6877,0.576142\H,0,0
 .740965,-1.977237,-0.085769\H,0,1.232659,2.276247,0.090839\H,0,-1.2187
 01,2.581271,0.108355\\Version=ES64L-G16RevC.01\State=1-A\HF=-2960.8662
 223\RMSD=3.227e-09\Dipole=-0.7469937,-0.1940125,0.0158549\Quadrupole=-
 0.4039089,3.9904678,-3.5865589,1.7380395,-0.027483,0.0082738\PG=C01 [X
 (C10H9Br1)]\\@
 The archive entry for this job was punched.


 ... FOR AFTERWARDS A MAN FINDS PLEASURE IN HIS PAINS,
 WHEN HE HAS SUFFERED LONG AND WANDERED FAR.

                                    -- HOMER
 Job cpu time:       0 days  0 hours 44 minutes 41.1 seconds.
 Elapsed time:       0 days  0 hours  1 minutes 56.9 seconds.
 File lengths (MBytes):  RWF=    103 Int=      0 D2E=      0 Chk=     14 Scr=      1
 Normal termination of Gaussian 16 at Tue Sep 24 07:50:46 2024.
