 Entering Gaussian System, Link 0=/usr/local/Gaussian/G16C/g16/g16
 Input=arbr35_wb97xd_nmr.com
 Output=arbr35_wb97xd_nmr.log
 Initial command:
 /usr/local/Gaussian/G16C/g16/l1.exe "/home/rpaton/opt/tzvp/nmr/Gau-3131073.inp" -scrdir="/home/rpaton/opt/tzvp/nmr/"
 Entering Link 1 = /usr/local/Gaussian/G16C/g16/l1.exe PID=   3131074.
  
 Copyright (c) 1988-2019, Gaussian, Inc.  All Rights Reserved.
  
 This is part of the Gaussian(R) 16 program.  It is based on
 the Gaussian(R) 09 system (copyright 2009, Gaussian, Inc.),
 the Gaussian(R) 03 system (copyright 2003, Gaussian, Inc.),
 the Gaussian(R) 98 system (copyright 1998, Gaussian, Inc.),
 the Gaussian(R) 94 system (copyright 1995, Gaussian, Inc.),
 the Gaussian 92(TM) system (copyright 1992, Gaussian, Inc.),
 the Gaussian 90(TM) system (copyright 1990, Gaussian, Inc.),
 the Gaussian 88(TM) system (copyright 1988, Gaussian, Inc.),
 the Gaussian 86(TM) system (copyright 1986, Carnegie Mellon
 University), and the Gaussian 82(TM) system (copyright 1983,
 Carnegie Mellon University). Gaussian is a federally registered
 trademark of Gaussian, Inc.
  
 This software contains proprietary and confidential information,
 including trade secrets, belonging to Gaussian, Inc.
  
 This software is provided under written license and may be
 used, copied, transmitted, or stored only in accord with that
 written license.
  
 The following legend is applicable only to US Government
 contracts under FAR:
  
                    RESTRICTED RIGHTS LEGEND
  
 Use, reproduction and disclosure by the US Government is
 subject to restrictions as set forth in subparagraphs (a)
 and (c) of the Commercial Computer Software - Restricted
 Rights clause in FAR 52.227-19.
  
 Gaussian, Inc.
 340 Quinnipiac St., Bldg. 40, Wallingford CT 06492
  
  
 ---------------------------------------------------------------
 Warning -- This program may not be used in any manner that
 competes with the business of Gaussian, Inc. or will provide
 assistance to any competitor of Gaussian, Inc.  The licensee
 of this program is prohibited from giving any competitor of
 Gaussian, Inc. access to this program.  By using this program,
 the user acknowledges that Gaussian, Inc. is engaged in the
 business of creating and licensing software in the field of
 computational chemistry and represents and warrants to the
 licensee that it is not a competitor of Gaussian, Inc. and that
 it will not use this program in any manner prohibited above.
 ---------------------------------------------------------------
  

 Cite this work as:
 Gaussian 16, Revision C.01,
 M. J. Frisch, G. W. Trucks, H. B. Schlegel, G. E. Scuseria, 
 M. A. Robb, J. R. Cheeseman, G. Scalmani, V. Barone, 
 G. A. Petersson, H. Nakatsuji, X. Li, M. Caricato, A. V. Marenich, 
 J. Bloino, B. G. Janesko, R. Gomperts, B. Mennucci, H. P. Hratchian, 
 J. V. Ortiz, A. F. Izmaylov, J. L. Sonnenberg, D. Williams-Young, 
 F. Ding, F. Lipparini, F. Egidi, J. Goings, B. Peng, A. Petrone, 
 T. Henderson, D. Ranasinghe, V. G. Zakrzewski, J. Gao, N. Rega, 
 G. Zheng, W. Liang, M. Hada, M. Ehara, K. Toyota, R. Fukuda, 
 J. Hasegawa, M. Ishida, T. Nakajima, Y. Honda, O. Kitao, H. Nakai, 
 T. Vreven, K. Throssell, J. A. Montgomery, Jr., J. E. Peralta, 
 F. Ogliaro, M. J. Bearpark, J. J. Heyd, E. N. Brothers, K. N. Kudin, 
 V. N. Staroverov, T. A. Keith, R. Kobayashi, J. Normand, 
 K. Raghavachari, A. P. Rendell, J. C. Burant, S. S. Iyengar, 
 J. Tomasi, M. Cossi, J. M. Millam, M. Klene, C. Adamo, R. Cammi, 
 J. W. Ochterski, R. L. Martin, K. Morokuma, O. Farkas, 
 J. B. Foresman, and D. J. Fox, Gaussian, Inc., Wallingford CT, 2019.
 
 ******************************************
 Gaussian 16:  ES64L-G16RevC.01  3-Jul-2019
                23-Sep-2024 
 ******************************************
 %chk=arbr35_wb97xd_nmr.chk
 %mem=48GB
 %nprocshared=24
 Will use up to   24 processors via shared memory.
 ----------------------------
 # nmr=giao mpw1pw91/def2tzvp
 ----------------------------
 1/38=1,172=1/1;
 2/12=2,17=6,18=5,40=1/2;
 3/5=44,7=101,11=2,25=1,30=1,74=-7/1,2,3,8;
 4//1;
 5/5=2,38=5/2;
 8/6=1,10=90,11=11/1;
 10/13=100,45=16/2;
 6/7=2,8=2,9=2,10=2,28=1/1;
 99/9=1/99;
 ----------------------------------------
 arbr35_wb97xd_nmrcreated by GaussianPrep
 ----------------------------------------
 Symbolic Z-matrix:
 Charge =  0 Multiplicity = 1
 Br                    5.88619  -0.30865  0. 
 C                     4.03218   0.087     0. 
 C                     3.62564   1.41484   0. 
 C                     2.27343   1.71898   0. 
 C                     1.34888   0.68652   0. 
 C                     1.77412  -0.64453   0. 
 C                     3.11954  -0.95779   0. 
 C                     0.58691  -1.57251   0.00001 
 C                    -0.57571  -0.61356   0. 
 C                    -1.92907  -0.89111   0. 
 C                    -2.82011   0.17477   0. 
 I                    -4.87771  -0.20894  0. 
 C                    -2.37293   1.49148  0. 
 C                    -1.01307   1.76125  0. 
 C                    -0.11551   0.7056    0. 
 H                     4.36485   2.20388   0. 
 H                     1.95504   2.75408   0.00001 
 H                     3.46003  -1.98491  0. 
 H                     0.57856  -2.22164   0.87923 
 H                     0.57856  -2.22165  -0.87922 
 H                    -2.2877   -1.91234   0. 
 H                    -3.08471   2.30567  0. 
 H                    -0.66835   2.78797  0. 
 
                          Input orientation:                          
 ---------------------------------------------------------------------
 Center     Atomic      Atomic             Coordinates (Angstroms)
 Number     Number       Type             X           Y           Z
 ---------------------------------------------------------------------
      1         35           0        5.886194   -0.308653   -0.000003
      2          6           0        4.032178    0.086996    0.000001
      3          6           0        3.625638    1.414840    0.000001
      4          6           0        2.273431    1.718984    0.000004
      5          6           0        1.348877    0.686520    0.000004
      6          6           0        1.774122   -0.644528    0.000002
      7          6           0        3.119543   -0.957789    0.000000
      8          6           0        0.586907   -1.572513    0.000005
      9          6           0       -0.575714   -0.613558    0.000004
     10          6           0       -1.929071   -0.891107    0.000003
     11          6           0       -2.820108    0.174766    0.000001
     12         53           0       -4.877713   -0.208940   -0.000002
     13          6           0       -2.372930    1.491477   -0.000001
     14          6           0       -1.013073    1.761246   -0.000001
     15          6           0       -0.115505    0.705597    0.000003
     16          1           0        4.364849    2.203878    0.000000
     17          1           0        1.955037    2.754079    0.000005
     18          1           0        3.460028   -1.984910   -0.000002
     19          1           0        0.578557   -2.221640    0.879233
     20          1           0        0.578555   -2.221649   -0.879215
     21          1           0       -2.287702   -1.912338    0.000002
     22          1           0       -3.084714    2.305668   -0.000001
     23          1           0       -0.668349    2.787972   -0.000003
 ---------------------------------------------------------------------
                    Distance matrix (angstroms):
                    1          2          3          4          5
     1  Br   0.000000
     2  C    1.895762   0.000000
     3  C    2.842629   1.388684   0.000000
     4  C    4.142870   2.399287   1.385990   0.000000
     5  C    4.645171   2.749461   2.390416   1.385923   0.000000
     6  C    4.125766   2.373593   2.769315   2.415678   1.397327
     7  C    2.841784   1.387256   2.426005   2.807315   2.416404
     8  C    5.447916   3.824116   4.261240   3.698421   2.384078
     9  C    6.469097   4.660842   4.665379   3.682170   2.322553
    10  C    7.836939   6.040958   6.014332   4.947080   3.637836
    11  C    8.719713   6.852848   6.563949   5.322476   4.200277
    12  I   10.764369   8.914804   8.656999   7.406467   6.290650
    13  C    8.453023   6.557284   5.999058   4.651928   3.807861
    14  C    7.203080   5.315794   4.651627   3.286776   2.594965
    15  C    6.086797   4.193560   3.807778   2.594989   1.464506
    16  H    2.937227   2.142862   1.081209   2.146893   3.376161
    17  H    4.983405   3.380510   2.141137   1.082957   2.154584
    18  H    2.948918   2.149453   3.403781   3.889324   3.404922
    19  H    5.709955   4.246216   4.825115   4.378831   3.134299
    20  H    5.709956   4.246219   4.825120   4.378838   3.134305
    21  H    8.329729   6.628591   6.785109   5.830132   4.469762
    22  H    9.344082   7.454707   6.769224   5.390168   4.719997
    23  H    7.249215   5.421275   4.508194   3.129985   2.912954
                    6          7          8          9         10
     6  C    0.000000
     7  C    1.381409   0.000000
     8  C    1.506863   2.606172   0.000000
     9  C    2.350040   3.711256   1.507077   0.000000
    10  C    3.711393   5.049054   2.606618   1.381524   0.000000
    11  C    4.666711   6.046663   3.828934   2.378815   1.389256
    12  I    6.666082   8.032240   5.632176   4.320985   3.026523
    13  C    4.664821   6.013831   4.260126   2.767880   2.423575
    14  C    3.681875   4.946885   3.697822   2.414742   2.806070
    15  C    2.322397   3.637635   2.383940   1.397126   2.416296
    16  H    3.850361   3.398077   5.341720   5.687452   7.013727
    17  H    3.403419   3.890249   4.537750   4.212562   5.326695
    18  H    2.153811   1.082085   2.902567   4.262373   5.498981
    19  H    2.165573   2.971023   1.092922   2.165944   2.971794
    20  H    2.165575   2.971024   1.092920   2.165945   2.971793
    21  H    4.255086   5.490853   2.894626   2.148891   1.082372
    22  H    5.684360   7.010204   5.340514   3.849281   3.399247
    23  H    4.212804   5.327180   4.537565   3.402791   3.889093
                   11         12         13         14         15
    11  C    0.000000
    12  I    2.093076   0.000000
    13  C    1.390574   3.027434   0.000000
    14  C    2.404640   4.337865   1.386357   0.000000
    15  C    2.756204   4.849227   2.390309   1.385649   0.000000
    16  H    7.465983   9.552311   6.775336   5.396107   4.724237
    17  H    5.427234   7.447547   4.508377   3.129759   2.912632
    18  H    6.641107   8.524787   6.790336   5.834579   4.474736
    19  H    4.250498   5.881743   4.824061   4.378324   3.134244
    20  H    4.250498   5.881741   4.824063   4.378327   3.134248
    21  H    2.153940   3.099955   3.404882   3.888431   3.401768
    22  H    2.147268   3.088381   1.081454   2.141983   3.372896
    23  H    3.385102   5.167226   2.141611   1.083052   2.154512
                   16         17         18         19         20
    16  H    0.000000
    17  H    2.471824   0.000000
    18  H    4.285399   4.972224   0.000000
    19  H    5.890184   5.236938   3.021915   0.000000
    20  H    5.890189   5.236946   3.021911   1.758448   0.000000
    21  H    7.823022   6.306844   5.748188   3.013993   3.013988
    22  H    7.450258   5.059660   7.825772   5.889747   5.889750
    23  H    5.066976   2.623605   6.310618   5.236797   5.236801
                   21         22         23
    21  H    0.000000
    22  H    4.292645   0.000000
    23  H    4.971440   2.464029   0.000000
 Stoichiometry    C13H8BrI
 Framework group  C1[X(C13H8BrI)]
 Deg. of freedom    63
 Full point group                 C1      NOp   1
 Largest Abelian subgroup         C1      NOp   1
 Largest concise Abelian subgroup C1      NOp   1
                         Standard orientation:                         
 ---------------------------------------------------------------------
 Center     Atomic      Atomic             Coordinates (Angstroms)
 Number     Number       Type             X           Y           Z
 ---------------------------------------------------------------------
      1         35           0        5.886194   -0.308653   -0.000003
      2          6           0        4.032178    0.086996    0.000001
      3          6           0        3.625638    1.414840    0.000001
      4          6           0        2.273431    1.718984    0.000004
      5          6           0        1.348877    0.686520    0.000004
      6          6           0        1.774122   -0.644528    0.000002
      7          6           0        3.119543   -0.957789    0.000000
      8          6           0        0.586907   -1.572513    0.000005
      9          6           0       -0.575714   -0.613558    0.000004
     10          6           0       -1.929071   -0.891107    0.000003
     11          6           0       -2.820108    0.174766    0.000001
     12         53           0       -4.877713   -0.208940   -0.000002
     13          6           0       -2.372930    1.491477   -0.000001
     14          6           0       -1.013073    1.761246   -0.000001
     15          6           0       -0.115505    0.705597    0.000003
     16          1           0        4.364849    2.203878    0.000000
     17          1           0        1.955037    2.754079    0.000005
     18          1           0        3.460028   -1.984910   -0.000002
     19          1           0        0.578557   -2.221640    0.879233
     20          1           0        0.578555   -2.221649   -0.879215
     21          1           0       -2.287702   -1.912338    0.000002
     22          1           0       -3.084714    2.305668   -0.000001
     23          1           0       -0.668349    2.787972   -0.000003
 ---------------------------------------------------------------------
 Rotational constants (GHZ):           1.9980247           0.0763675           0.0735895
 Standard basis: def2TZVP (5D, 7F)
 There are   630 symmetry adapted cartesian basis functions of A   symmetry.
 There are   549 symmetry adapted basis functions of A   symmetry.
   549 basis functions,   950 primitive gaussians,   630 cartesian basis functions
    73 alpha electrons       73 beta electrons
       nuclear repulsion energy      1312.3848086087 Hartrees.
 NAtoms=   23 NActive=   23 NUniq=   23 SFac= 1.00D+00 NAtFMM=   60 NAOKFM=F Big=F
 Integral buffers will be    131072 words long.
 Raffenetti 2 integral format.
 Two-electron integral symmetry is turned on.
 One-electron integrals computed using PRISM.
   1 Symmetry operations used in ECPInt.
 ECPInt:  NShTT=   21528 NPrTT=   72042 LenC2=   19399 LenP2D=   46920.
 LDataN:  DoStor=T MaxTD1= 7 Len=  274
 NBasis=   549 RedAO= T EigKep=  5.66D-06  NBF=   549
 NBsUse=   549 1.00D-06 EigRej= -1.00D+00 NBFU=   549
 Defaulting to unpruned grid for atomic number  53.
 ExpMin= 7.49D-02 ExpMax= 5.65D+05 ExpMxC= 5.46D+03 IAcc=3 IRadAn=         5 AccDes= 0.00D+00
 Harris functional with IExCor=  908 and IRadAn=       5 diagonalized for initial guess.
 HarFok:  IExCor=  908 AccDes= 0.00D+00 IRadAn=         5 IDoV= 1 UseB2=F ITyADJ=14
 ICtDFT=  3500011 ScaDFX=  1.000000  1.000000  1.000000  1.000000
 Defaulting to unpruned grid for atomic number  53.
 FoFCou: FMM=F IPFlag=           0 FMFlag=      100000 FMFlg1=           0
         NFxFlg=           0 DoJE=T BraDBF=F KetDBF=T FulRan=T
         wScrn=  0.000000 ICntrl=       500 IOpCl=  0 I1Cent=   200000004 NGrid=           0
         NMat0=    1 NMatS0=      1 NMatT0=    0 NMatD0=    1 NMtDS0=    0 NMtDT0=    0
 Petite list used in FoFCou.
 Requested convergence on RMS density matrix=1.00D-08 within 128 cycles.
 Requested convergence on MAX density matrix=1.00D-06.
 Requested convergence on             energy=1.00D-06.
 No special actions if energy rises.
 Integral accuracy reduced to 1.0D-05 until final iterations.
 Defaulting to unpruned grid for atomic number  53.
 Defaulting to unpruned grid for atomic number  53.
 Defaulting to unpruned grid for atomic number  53.
 Defaulting to unpruned grid for atomic number  53.
 Defaulting to unpruned grid for atomic number  53.
 Defaulting to unpruned grid for atomic number  53.
 Defaulting to unpruned grid for atomic number  53.
 Defaulting to unpruned grid for atomic number  53.
 Defaulting to unpruned grid for atomic number  53.
 Defaulting to unpruned grid for atomic number  53.
 Defaulting to unpruned grid for atomic number  53.
 Defaulting to unpruned grid for atomic number  53.
 Defaulting to unpruned grid for atomic number  53.
 Defaulting to unpruned grid for atomic number  53.
 Defaulting to unpruned grid for atomic number  53.
 Defaulting to unpruned grid for atomic number  53.
 Defaulting to unpruned grid for atomic number  53.
 Defaulting to unpruned grid for atomic number  53.
 Defaulting to unpruned grid for atomic number  53.
 Defaulting to unpruned grid for atomic number  53.
 Defaulting to unpruned grid for atomic number  53.
 Defaulting to unpruned grid for atomic number  53.
 Defaulting to unpruned grid for atomic number  53.
 Defaulting to unpruned grid for atomic number  53.
 Rare condition: small coef for last iteration:  0.000D+00
 Rare condition: small coef for last iteration:  0.000D+00
 Rare condition: small coef for last iteration:  0.000D+00
 Rare condition: small coef for last iteration:  0.000D+00
 Rare condition: small coef for last iteration:  0.000D+00
 Rare condition: small coef for last iteration:  0.000D+00
 Restarting incremental Fock formation.
 Rare condition: small coef for last iteration:  0.000D+00
 Rare condition: small coef for last iteration:  0.000D+00
 Rare condition: small coef for last iteration:  0.000D+00
 Rare condition: small coef for last iteration:  0.000D+00
 Rare condition: small coef for last iteration:  0.000D+00
 Rare condition: small coef for last iteration:  0.000D+00
 Rare condition: small coef for last iteration:  0.000D+00
 Problem detected with inexpensive integrals.
 Switching to full accuracy and repeating last cycle.
 SCF Done:  E(RmPW1PW91) =  -3372.45108687     A.U. after   37 cycles
            NFock= 37  Conv=0.49D-08     -V/T= 2.0598
 DoSCS=F DFT=T ScalE2(SS,OS)=  1.000000  1.000000
 Range of M.O.s used for correlation:     1   549
 NBasis=   549 NAE=    73 NBE=    73 NFC=     0 NFV=     0
 NROrb=    549 NOA=    73 NOB=    73 NVA=   476 NVB=   476

 **** Warning!!: The largest alpha MO coefficient is  0.67289707D+02

          Differentiating once with respect to magnetic field using GIAOs.
          Electric field/nuclear overlap derivatives assumed to be zero.
 Defaulting to unpruned grid for atomic number  53.
 FoFCou: FMM=F IPFlag=           0 FMFlag=      100000 FMFlg1=           0
         NFxFlg=           0 DoJE=F BraDBF=F KetDBF=T FulRan=T
         wScrn=  0.000000 ICntrl=      6100 IOpCl=  0 I1Cent=           7 NGrid=          23
         NMat0=    1 NMatS0=      1 NMatT0=    0 NMatD0=    1 NMtDS0=    0 NMtDT0=    0
 Symmetry not used in FoFCou.
   1 Symmetry operations used in ECPInt.
 ECPInt:  NShTT=   21528 NPrTT=   72042 LenC2=   21529 LenP2D=   72042.
 LDataN:  DoStor=T MaxTD1= 8 Len=  415
 FoFJK:  IHMeth= 1 ICntrl=    6127 DoSepK=F KAlg= 0 I1Cent=           0 FoldK=F
 IRaf=         1 NMat=       1 IRICut=       1 DoRegI=T DoRafI=F ISym2E= 0 IDoP0=0 IntGTp=1.
 Defaulting to unpruned grid for atomic number  53.
 Defaulting to unpruned grid for atomic number  53.
 Defaulting to unpruned grid for atomic number  53.
 Defaulting to unpruned grid for atomic number  53.
 Defaulting to unpruned grid for atomic number  53.
 Defaulting to unpruned grid for atomic number  53.
 Defaulting to unpruned grid for atomic number  53.
 Defaulting to unpruned grid for atomic number  53.
 Defaulting to unpruned grid for atomic number  53.
 Defaulting to unpruned grid for atomic number  53.
 Defaulting to unpruned grid for atomic number  53.
 Defaulting to unpruned grid for atomic number  53.
 Defaulting to unpruned grid for atomic number  53.
 Defaulting to unpruned grid for atomic number  53.
 Defaulting to unpruned grid for atomic number  53.
 Defaulting to unpruned grid for atomic number  53.
 Defaulting to unpruned grid for atomic number  53.
 Defaulting to unpruned grid for atomic number  53.
 Defaulting to unpruned grid for atomic number  53.
 Defaulting to unpruned grid for atomic number  53.
 Defaulting to unpruned grid for atomic number  53.
 Defaulting to unpruned grid for atomic number  53.
 Defaulting to unpruned grid for atomic number  53.
 Defaulting to unpruned grid for atomic number  53.
          There are     3 degrees of freedom in the 1st order CPHF.  IDoFFX=0 NUNeed=     3.
      3 vectors produced by pass  0 Test12= 1.16D-12 3.33D-08 XBig12= 4.10D+01 1.77D+00.
 AX will form     3 AO Fock derivatives at one time.
      3 vectors produced by pass  1 Test12= 1.16D-12 3.33D-08 XBig12= 1.83D-01 1.99D-01.
      3 vectors produced by pass  2 Test12= 1.16D-12 3.33D-08 XBig12= 8.33D-04 8.36D-03.
      3 vectors produced by pass  3 Test12= 1.16D-12 3.33D-08 XBig12= 2.37D-06 5.87D-04.
      3 vectors produced by pass  4 Test12= 1.16D-12 3.33D-08 XBig12= 1.38D-08 7.20D-05.
      3 vectors produced by pass  5 Test12= 1.16D-12 3.33D-08 XBig12= 9.91D-11 5.10D-06.
      3 vectors produced by pass  6 Test12= 1.16D-12 3.33D-08 XBig12= 4.23D-13 1.71D-07.
 InvSVY:  IOpt=1 It=  1 EMax= 8.88D-16
 Solved reduced A of dimension    21 with     3 vectors.
 Calculating GIAO nuclear magnetic shielding tensors.
 SCF GIAO Magnetic shielding tensor (ppm):
      1  Br   Isotropic =  2081.2114   Anisotropy =  1286.6487
   XX=  2882.2194   YX=  -263.1831   ZX=    -0.0031
   XY=  -259.3683   YY=  1736.2336   ZY=     0.0008
   XZ=    -0.0034   YZ=     0.0011   ZZ=  1625.1810
   Eigenvalues:  1625.1810  1679.4759  2938.9772
      2  C    Isotropic =    43.6974   Anisotropy =   118.4129
   XX=   -42.7045   YX=    21.2290   ZX=     0.0002
   XY=    22.4000   YY=    51.1573   ZY=    -0.0001
   XZ=     0.0001   YZ=    -0.0000   ZZ=   122.6393
   Eigenvalues:   -47.5266    55.9795   122.6393
      3  C    Isotropic =    52.1266   Anisotropy =   155.7089
   XX=     7.7102   YX=   -45.1165   ZX=     0.0003
   XY=   -49.8862   YY=    -7.2629   ZY=     0.0001
   XZ=     0.0003   YZ=     0.0001   ZZ=   155.9326
   Eigenvalues:   -47.8640    48.3113   155.9326
      4  C    Isotropic =    62.6894   Anisotropy =   169.8548
   XX=    40.9812   YX=    21.7749   ZX=     0.0002
   XY=    19.9160   YY=   -28.8389   ZY=    -0.0002
   XZ=     0.0000   YZ=    -0.0001   ZZ=   175.9260
   Eigenvalues:   -34.5889    46.7312   175.9260
      5  C    Isotropic =    41.6586   Anisotropy =   163.7859
   XX=   -44.6352   YX=     9.6066   ZX=    -0.0000
   XY=    21.7703   YY=    18.7618   ZY=    -0.0001
   XZ=     0.0002   YZ=     0.0001   ZZ=   150.8492
   Eigenvalues:   -48.3051    22.4317   150.8492
      6  C    Isotropic =    36.7449   Anisotropy =   169.1703
   XX=   -18.0048   YX=   -27.2012   ZX=     0.0003
   XY=   -36.0477   YY=   -21.2857   ZY=    -0.0001
   XZ=     0.0003   YZ=    -0.0006   ZZ=   149.5251
   Eigenvalues:   -51.3122    12.0218   149.5251
      7  C    Isotropic =    54.0622   Anisotropy =   145.5461
   XX=    43.2223   YX=    23.1881   ZX=     0.0002
   XY=    24.8043   YY=   -32.1287   ZY=    -0.0003
   XZ=     0.0003   YZ=    -0.0002   ZZ=   151.0929
   Eigenvalues:   -39.1216    50.2152   151.0929
      8  C    Isotropic =   147.0644   Anisotropy =    33.2481
   XX=   169.2278   YX=    -0.2835   ZX=    -0.0000
   XY=    -0.1569   YY=   145.2089   ZY=    -0.0000
   XZ=    -0.0000   YZ=    -0.0001   ZZ=   126.7566
   Eigenvalues:   126.7566   145.2069   169.2298
      9  C    Isotropic =    36.6946   Anisotropy =   167.7938
   XX=   -16.0683   YX=    29.2628   ZX=    -0.0001
   XY=    35.4491   YY=   -22.4050   ZY=     0.0001
   XZ=    -0.0006   YZ=    -0.0005   ZZ=   148.5572
   Eigenvalues:   -51.7473    13.2740   148.5572
     10  C    Isotropic =    49.2761   Anisotropy =   144.9850
   XX=    42.2648   YX=   -25.0120   ZX=    -0.0001
   XY=   -30.7115   YY=   -40.3693   ZY=     0.0000
   XZ=    -0.0001   YZ=     0.0000   ZZ=   145.9327
   Eigenvalues:   -48.8858    50.7812   145.9327
     11  C    Isotropic =    50.5614   Anisotropy =   120.7579
   XX=   -38.2860   YX=   -18.9806   ZX=    -0.0002
   XY=   -20.0049   YY=    58.9036   ZY=     0.0000
   XZ=     0.0000   YZ=     0.0002   ZZ=   131.0667
   Eigenvalues:   -42.0498    62.6673   131.0667
     12  I    Isotropic =   433.2982   Anisotropy =    74.6282
   XX=   480.6432   YX=    12.8650   ZX=     0.0001
   XY=    12.7489   YY=   414.9134   ZY=     0.0000
   XZ=     0.0001   YZ=     0.0000   ZZ=   404.3381
   Eigenvalues:   404.3381   412.5062   483.0503
     13  C    Isotropic =    47.4119   Anisotropy =   155.3994
   XX=     7.7856   YX=    47.4960   ZX=    -0.0000
   XY=    56.2610   YY=   -16.5613   ZY=     0.0002
   XZ=    -0.0003   YZ=     0.0003   ZZ=   151.0116
   Eigenvalues:   -57.6755    48.8998   151.0116
     14  C    Isotropic =    62.7171   Anisotropy =   168.0335
   XX=    41.0077   YX=   -25.5318   ZX=    -0.0001
   XY=   -21.1020   YY=   -27.5958   ZY=     0.0005
   XZ=    -0.0003   YZ=     0.0004   ZZ=   174.7394
   Eigenvalues:   -34.7704    48.1823   174.7394
     15  C    Isotropic =    40.9705   Anisotropy =   166.0312
   XX=   -46.7240   YX=    -7.7166   ZX=    -0.0004
   XY=   -19.7601   YY=    17.9775   ZY=     0.0003
   XZ=    -0.0001   YZ=     0.0004   ZZ=   151.6580
   Eigenvalues:   -49.5203    20.7738   151.6580
     16  H    Isotropic =    24.0916   Anisotropy =     9.5278
   XX=    26.5198   YX=    -4.0589   ZX=    -0.0000
   XY=    -3.5063   YY=    26.7970   ZY=     0.0000
   XZ=    -0.0000   YZ=     0.0000   ZZ=    18.9581
   Eigenvalues:    18.9581    22.8732    30.4435
     17  H    Isotropic =    23.9007   Anisotropy =     7.6931
   XX=    28.9101   YX=     1.0804   ZX=    -0.0000
   XY=     0.4763   YY=    23.9527   ZY=    -0.0000
   XZ=     0.0000   YZ=     0.0000   ZZ=    18.8392
   Eigenvalues:    18.8392    23.8334    29.0294
     18  H    Isotropic =    23.9939   Anisotropy =    11.2655
   XX=    30.4340   YX=     3.0323   ZX=    -0.0000
   XY=     2.9408   YY=    23.1706   ZY=    -0.0000
   XZ=    -0.0000   YZ=    -0.0000   ZZ=    18.3771
   Eigenvalues:    18.3771    22.1003    31.5043
     19  H    Isotropic =    27.9590   Anisotropy =     7.5521
   XX=    29.3569   YX=    -0.0835   ZX=    -0.0174
   XY=    -0.0567   YY=    28.3756   ZY=    -3.2881
   XZ=    -0.0986   YZ=    -7.9600   ZZ=    26.1444
   Eigenvalues:    21.5254    29.3579    32.9938
     20  H    Isotropic =    27.9590   Anisotropy =     7.5521
   XX=    29.3570   YX=    -0.0835   ZX=     0.0174
   XY=    -0.0567   YY=    28.3757   ZY=     3.2881
   XZ=     0.0985   YZ=     7.9600   ZZ=    26.1443
   Eigenvalues:    21.5254    29.3579    32.9938
     21  H    Isotropic =    23.8863   Anisotropy =    13.1519
   XX=    31.1663   YX=    -3.9215   ZX=     0.0000
   XY=    -3.7029   YY=    22.8863   ZY=    -0.0000
   XZ=     0.0000   YZ=     0.0000   ZZ=    17.6061
   Eigenvalues:    17.6061    21.3985    32.6542
     22  H    Isotropic =    23.9938   Anisotropy =    11.4739
   XX=    27.0264   YX=     5.0870   ZX=     0.0000
   XY=     4.3974   YY=    26.7719   ZY=    -0.0000
   XZ=    -0.0000   YZ=     0.0000   ZZ=    18.1830
   Eigenvalues:    18.1830    22.1553    31.6431
     23  H    Isotropic =    23.9295   Anisotropy =     7.7163
   XX=    28.9610   YX=    -1.0770   ZX=     0.0000
   XY=    -0.4356   YY=    24.0005   ZY=    -0.0000
   XZ=     0.0000   YZ=    -0.0000   ZZ=    18.8270
   Eigenvalues:    18.8270    23.8878    29.0737
 End of Minotr F.D. properties file   721 does not exist.
 End of Minotr F.D. properties file   722 does not exist.
 End of Minotr F.D. properties file   788 does not exist.

 **********************************************************************

            Population analysis using the SCF Density.

 **********************************************************************

 Orbital symmetries:
       Occupied  (A) (A) (A) (A) (A) (A) (A) (A) (A) (A) (A) (A)
                 (A) (A) (A) (A) (A) (A) (A) (A) (A) (A) (A) (A)
                 (A) (A) (A) (A) (A) (A) (A) (A) (A) (A) (A) (A)
                 (A) (A) (A) (A) (A) (A) (A) (A) (A) (A) (A) (A)
                 (A) (A) (A) (A) (A) (A) (A) (A) (A) (A) (A) (A)
                 (A) (A) (A) (A) (A) (A) (A) (A) (A) (A) (A) (A)
                 (A)
       Virtual   (A) (A) (A) (A) (A) (A) (A) (A) (A) (A) (A) (A)
                 (A) (A) (A) (A) (A) (A) (A) (A) (A) (A) (A) (A)
                 (A) (A) (A) (A) (A) (A) (A) (A) (A) (A) (A) (A)
                 (A) (A) (A) (A) (A) (A) (A) (A) (A) (A) (A) (A)
                 (A) (A) (A) (A) (A) (A) (A) (A) (A) (A) (A) (A)
                 (A) (A) (A) (A) (A) (A) (A) (A) (A) (A) (A) (A)
                 (A) (A) (A) (A) (A) (A) (A) (A) (A) (A) (A) (A)
                 (A) (A) (A) (A) (A) (A) (A) (A) (A) (A) (A) (A)
                 (A) (A) (A) (A) (A) (A) (A) (A) (A) (A) (A) (A)
                 (A) (A) (A) (A) (A) (A) (A) (A) (A) (A) (A) (A)
                 (A) (A) (A) (A) (A) (A) (A) (A) (A) (A) (A) (A)
                 (A) (A) (A) (A) (A) (A) (A) (A) (A) (A) (A) (A)
                 (A) (A) (A) (A) (A) (A) (A) (A) (A) (A) (A) (A)
                 (A) (A) (A) (A) (A) (A) (A) (A) (A) (A) (A) (A)
                 (A) (A) (A) (A) (A) (A) (A) (A) (A) (A) (A) (A)
                 (A) (A) (A) (A) (A) (A) (A) (A) (A) (A) (A) (A)
                 (A) (A) (A) (A) (A) (A) (A) (A) (A) (A) (A) (A)
                 (A) (A) (A) (A) (A) (A) (A) (A) (A) (A) (A) (A)
                 (A) (A) (A) (A) (A) (A) (A) (A) (A) (A) (A) (A)
                 (A) (A) (A) (A) (A) (A) (A) (A) (A) (A) (A) (A)
                 (A) (A) (A) (A) (A) (A) (A) (A) (A) (A) (A) (A)
                 (A) (A) (A) (A) (A) (A) (A) (A) (A) (A) (A) (A)
                 (A) (A) (A) (A) (A) (A) (A) (A) (A) (A) (A) (A)
                 (A) (A) (A) (A) (A) (A) (A) (A) (A) (A) (A) (A)
                 (A) (A) (A) (A) (A) (A) (A) (A) (A) (A) (A) (A)
                 (A) (A) (A) (A) (A) (A) (A) (A) (A) (A) (A) (A)
                 (A) (A) (A) (A) (A) (A) (A) (A) (A) (A) (A) (A)
                 (A) (A) (A) (A) (A) (A) (A) (A) (A) (A) (A) (A)
                 (A) (A) (A) (A) (A) (A) (A) (A) (A) (A) (A) (A)
                 (A) (A) (A) (A) (A) (A) (A) (A) (A) (A) (A) (A)
                 (A) (A) (A) (A) (A) (A) (A) (A) (A) (A) (A) (A)
                 (A) (A) (A) (A) (A) (A) (A) (A) (A) (A) (A) (A)
                 (A) (A) (A) (A) (A) (A) (A) (A) (A) (A) (A) (A)
                 (A) (A) (A) (A) (A) (A) (A) (A) (A) (A) (A) (A)
                 (A) (A) (A) (A) (A) (A) (A) (A) (A) (A) (A) (A)
                 (A) (A) (A) (A) (A) (A) (A) (A) (A) (A) (A) (A)
                 (A) (A) (A) (A) (A) (A) (A) (A) (A) (A) (A) (A)
                 (A) (A) (A) (A) (A) (A) (A) (A) (A) (A) (A) (A)
                 (A) (A) (A) (A) (A) (A) (A) (A) (A) (A) (A) (A)
                 (A) (A) (A) (A) (A) (A) (A) (A)
 The electronic state is 1-A.
 Alpha  occ. eigenvalues -- -483.34760 -62.67859 -56.45884 -56.45545 -56.45535
 Alpha  occ. eigenvalues --  -10.30432 -10.29625 -10.26408 -10.26333 -10.26188
 Alpha  occ. eigenvalues --  -10.25995 -10.25958 -10.25863 -10.25853 -10.25775
 Alpha  occ. eigenvalues --  -10.25767 -10.25711 -10.25652  -8.78263  -6.90498
 Alpha  occ. eigenvalues --   -6.59529  -6.58443  -6.58409  -4.91919  -4.90786
 Alpha  occ. eigenvalues --   -4.90770  -2.68193  -2.67872  -2.67847  -2.66958
 Alpha  occ. eigenvalues --   -2.66957  -1.94574  -1.94175  -1.94173  -1.93177
 Alpha  occ. eigenvalues --   -1.93177  -0.94095  -0.90508  -0.86320  -0.82482
 Alpha  occ. eigenvalues --   -0.80492  -0.79002  -0.75371  -0.73371  -0.70633
 Alpha  occ. eigenvalues --   -0.66386  -0.62835  -0.61005  -0.60583  -0.55539
 Alpha  occ. eigenvalues --   -0.52194  -0.49945  -0.48392  -0.48045  -0.47426
 Alpha  occ. eigenvalues --   -0.46949  -0.44586  -0.44019  -0.42360  -0.41105
 Alpha  occ. eigenvalues --   -0.40604  -0.38456  -0.37252  -0.36731  -0.35674
 Alpha  occ. eigenvalues --   -0.34985  -0.31304  -0.30788  -0.28729  -0.28006
 Alpha  occ. eigenvalues --   -0.27822  -0.27364  -0.23487
 Alpha virt. eigenvalues --   -0.05321  -0.03587  -0.02910  -0.01374   0.00323
 Alpha virt. eigenvalues --    0.01329   0.04735   0.06169   0.07036   0.08786
 Alpha virt. eigenvalues --    0.08895   0.08953   0.10610   0.11882   0.12125
 Alpha virt. eigenvalues --    0.13407   0.14702   0.15269   0.15827   0.16188
 Alpha virt. eigenvalues --    0.16366   0.16472   0.17579   0.18096   0.18557
 Alpha virt. eigenvalues --    0.20038   0.20710   0.20889   0.20922   0.21515
 Alpha virt. eigenvalues --    0.21683   0.21809   0.22681   0.23576   0.23742
 Alpha virt. eigenvalues --    0.24335   0.24502   0.24922   0.26210   0.27451
 Alpha virt. eigenvalues --    0.27836   0.27866   0.27985   0.29156   0.29265
 Alpha virt. eigenvalues --    0.30301   0.30330   0.31114   0.32100   0.33604
 Alpha virt. eigenvalues --    0.34270   0.34435   0.34586   0.35425   0.35844
 Alpha virt. eigenvalues --    0.36357   0.36782   0.36900   0.37858   0.38849
 Alpha virt. eigenvalues --    0.39165   0.39936   0.40868   0.42107   0.42610
 Alpha virt. eigenvalues --    0.43180   0.43666   0.44622   0.44846   0.45011
 Alpha virt. eigenvalues --    0.45354   0.45787   0.47058   0.48197   0.48565
 Alpha virt. eigenvalues --    0.49279   0.50591   0.51895   0.51925   0.52030
 Alpha virt. eigenvalues --    0.54468   0.54729   0.56037   0.57672   0.58435
 Alpha virt. eigenvalues --    0.58739   0.59319   0.60714   0.62089   0.62134
 Alpha virt. eigenvalues --    0.63927   0.64672   0.65897   0.65978   0.66322
 Alpha virt. eigenvalues --    0.67516   0.67741   0.68495   0.69004   0.69886
 Alpha virt. eigenvalues --    0.70242   0.70381   0.72486   0.73617   0.73890
 Alpha virt. eigenvalues --    0.75244   0.75798   0.76878   0.77578   0.78617
 Alpha virt. eigenvalues --    0.79401   0.79587   0.80321   0.81657   0.82537
 Alpha virt. eigenvalues --    0.82968   0.84846   0.86339   0.86889   0.87287
 Alpha virt. eigenvalues --    0.88095   0.88415   0.89025   0.90433   0.91594
 Alpha virt. eigenvalues --    0.92121   0.92991   0.93230   0.95168   0.95187
 Alpha virt. eigenvalues --    0.96666   0.97696   0.98074   0.98507   1.00485
 Alpha virt. eigenvalues --    1.01460   1.02454   1.03254   1.04548   1.06078
 Alpha virt. eigenvalues --    1.08366   1.09234   1.10479   1.12600   1.14214
 Alpha virt. eigenvalues --    1.14466   1.14826   1.15874   1.17423   1.18615
 Alpha virt. eigenvalues --    1.19760   1.19994   1.21440   1.21713   1.23342
 Alpha virt. eigenvalues --    1.24030   1.24996   1.26065   1.26329   1.26559
 Alpha virt. eigenvalues --    1.28682   1.28764   1.31036   1.31367   1.31855
 Alpha virt. eigenvalues --    1.33898   1.34059   1.34122   1.35889   1.36465
 Alpha virt. eigenvalues --    1.37338   1.37628   1.38502   1.38792   1.39825
 Alpha virt. eigenvalues --    1.40050   1.40601   1.42021   1.42463   1.43898
 Alpha virt. eigenvalues --    1.43961   1.46685   1.47629   1.48028   1.49489
 Alpha virt. eigenvalues --    1.50096   1.50985   1.51075   1.52998   1.53247
 Alpha virt. eigenvalues --    1.53659   1.54157   1.55109   1.55985   1.56586
 Alpha virt. eigenvalues --    1.57634   1.58886   1.60075   1.61358   1.61656
 Alpha virt. eigenvalues --    1.61866   1.63870   1.64242   1.65401   1.65693
 Alpha virt. eigenvalues --    1.66968   1.68358   1.68738   1.69813   1.71633
 Alpha virt. eigenvalues --    1.71956   1.72411   1.75225   1.75429   1.76837
 Alpha virt. eigenvalues --    1.78483   1.82606   1.83145   1.83397   1.85784
 Alpha virt. eigenvalues --    1.86599   1.87437   1.87694   1.90097   1.91045
 Alpha virt. eigenvalues --    1.94219   1.95901   1.96285   1.96468   1.99153
 Alpha virt. eigenvalues --    2.03551   2.04026   2.04253   2.04895   2.07031
 Alpha virt. eigenvalues --    2.10566   2.11146   2.12250   2.13308   2.14135
 Alpha virt. eigenvalues --    2.16128   2.17274   2.18126   2.19421   2.19636
 Alpha virt. eigenvalues --    2.20717   2.21219   2.23861   2.28532   2.29231
 Alpha virt. eigenvalues --    2.30275   2.33417   2.34907   2.38513   2.40510
 Alpha virt. eigenvalues --    2.41912   2.43590   2.44717   2.46835   2.48370
 Alpha virt. eigenvalues --    2.50658   2.51981   2.53015   2.53389   2.55978
 Alpha virt. eigenvalues --    2.58819   2.59793   2.60304   2.60400   2.62571
 Alpha virt. eigenvalues --    2.63227   2.65097   2.65634   2.66770   2.67245
 Alpha virt. eigenvalues --    2.68933   2.69735   2.69957   2.70467   2.72049
 Alpha virt. eigenvalues --    2.72294   2.74360   2.75088   2.75325   2.77941
 Alpha virt. eigenvalues --    2.78136   2.80142   2.80909   2.81913   2.83061
 Alpha virt. eigenvalues --    2.83738   2.85341   2.86395   2.86530   2.88582
 Alpha virt. eigenvalues --    2.90057   2.90415   2.91915   2.92595   2.94413
 Alpha virt. eigenvalues --    2.94726   2.96667   2.96811   2.99498   3.00120
 Alpha virt. eigenvalues --    3.00294   3.00845   3.02824   3.03464   3.04417
 Alpha virt. eigenvalues --    3.04485   3.05286   3.06225   3.06799   3.07765
 Alpha virt. eigenvalues --    3.09221   3.09677   3.10071   3.12782   3.12931
 Alpha virt. eigenvalues --    3.13958   3.14345   3.14465   3.15383   3.15432
 Alpha virt. eigenvalues --    3.17245   3.18453   3.19362   3.20414   3.21848
 Alpha virt. eigenvalues --    3.23473   3.23502   3.24398   3.24552   3.25631
 Alpha virt. eigenvalues --    3.26883   3.27023   3.29264   3.29586   3.30649
 Alpha virt. eigenvalues --    3.33070   3.33207   3.33841   3.34567   3.35088
 Alpha virt. eigenvalues --    3.36022   3.38674   3.39806   3.40618   3.41409
 Alpha virt. eigenvalues --    3.42542   3.44153   3.44336   3.46622   3.47400
 Alpha virt. eigenvalues --    3.48004   3.48497   3.50600   3.50687   3.51406
 Alpha virt. eigenvalues --    3.52675   3.52958   3.54070   3.54871   3.56381
 Alpha virt. eigenvalues --    3.58104   3.59419   3.60852   3.61035   3.62733
 Alpha virt. eigenvalues --    3.63732   3.64574   3.65563   3.66405   3.70402
 Alpha virt. eigenvalues --    3.71077   3.74527   3.76400   3.78970   3.79477
 Alpha virt. eigenvalues --    3.81529   3.83828   3.85442   3.88291   3.89312
 Alpha virt. eigenvalues --    3.92521   3.94546   3.94776   4.01380   4.02131
 Alpha virt. eigenvalues --    4.02754   4.02787   4.03959   4.05990   4.09121
 Alpha virt. eigenvalues --    4.10706   4.10771   4.13705   4.14253   4.17547
 Alpha virt. eigenvalues --    4.17549   4.18779   4.18811   4.20953   4.21626
 Alpha virt. eigenvalues --    4.22110   4.22879   4.25046   4.26990   4.29719
 Alpha virt. eigenvalues --    4.30121   4.30511   4.33121   4.34322   4.36094
 Alpha virt. eigenvalues --    4.38262   4.40051   4.42945   4.44871   4.46469
 Alpha virt. eigenvalues --    4.47987   4.48113   4.49405   4.54565   4.56090
 Alpha virt. eigenvalues --    4.59419   4.62718   4.68684   4.69249   4.69688
 Alpha virt. eigenvalues --    4.72680   4.74500   4.78855   4.81119   4.81456
 Alpha virt. eigenvalues --    4.85096   4.85898   4.88108   4.94600   4.96394
 Alpha virt. eigenvalues --    4.99849   5.00552   5.08146   5.09715   5.12979
 Alpha virt. eigenvalues --    5.23591   5.24762   5.34093   5.35800   5.41843
 Alpha virt. eigenvalues --    5.45261   5.49849   5.55428   5.60213   5.71095
 Alpha virt. eigenvalues --    5.76558   6.10041   7.79516  21.93689  22.53426
 Alpha virt. eigenvalues --   22.65911  22.71398  22.72970  22.76457  22.83111
 Alpha virt. eigenvalues --   22.88051  23.03860  23.04952  23.20105  23.68432
 Alpha virt. eigenvalues --   23.83438  34.53402  34.63485  34.90781  42.91999
 Alpha virt. eigenvalues --  118.22072
          Condensed to atoms (all electrons):
               1          2          3          4          5          6
     1  Br  34.901312   0.306225  -0.072983   0.018946  -0.001092   0.013614
     2  C    0.306225   4.806669   0.392806   0.078175  -0.093226   0.055603
     3  C   -0.072983   0.392806   5.081522   0.360243   0.030945  -0.100586
     4  C    0.018946   0.078175   0.360243   5.178770   0.403280  -0.015811
     5  C   -0.001092  -0.093226   0.030945   0.403280   5.103707   0.481642
     6  C    0.013614   0.055603  -0.100586  -0.015811   0.481642   5.109868
     7  C   -0.062817   0.380404   0.035355  -0.093464   0.013919   0.292960
     8  C   -0.001687   0.004183   0.003219   0.017681  -0.106460   0.361952
     9  C    0.000145   0.002038  -0.001900   0.013497  -0.085832  -0.079260
    10  C    0.000001  -0.000063   0.000132  -0.002649   0.022038   0.005492
    11  C   -0.000000  -0.000003   0.000028   0.000084  -0.008423   0.001848
    12  I   -0.000000  -0.000000   0.000001  -0.000016  -0.000393   0.000251
    13  C    0.000000   0.000029  -0.000186   0.000257   0.008770  -0.001688
    14  C   -0.000009   0.000052   0.000311   0.006844  -0.113992   0.012432
    15  C   -0.000297  -0.009929   0.010460  -0.116754   0.288486  -0.084415
    16  H   -0.003897  -0.061945   0.450162  -0.071071   0.014197  -0.002499
    17  H   -0.000446   0.010541  -0.056772   0.444998  -0.060067   0.012094
    18  H   -0.001629  -0.065277   0.016215  -0.004924   0.013604  -0.081063
    19  H    0.000018  -0.000222   0.000007  -0.000325  -0.002214   0.005061
    20  H    0.000018  -0.000222   0.000007  -0.000325  -0.002213   0.005059
    21  H    0.000000  -0.000001  -0.000002   0.000042   0.000053   0.000297
    22  H   -0.000000  -0.000000  -0.000001   0.000031   0.000252  -0.000040
    23  H   -0.000001  -0.000045   0.000162   0.005287  -0.016340   0.000319
               7          8          9         10         11         12
     1  Br  -0.062817  -0.001687   0.000145   0.000001  -0.000000  -0.000000
     2  C    0.380404   0.004183   0.002038  -0.000063  -0.000003  -0.000000
     3  C    0.035355   0.003219  -0.001900   0.000132   0.000028   0.000001
     4  C   -0.093464   0.017681   0.013497  -0.002649   0.000084  -0.000016
     5  C    0.013919  -0.106460  -0.085832   0.022038  -0.008423  -0.000393
     6  C    0.292960   0.361952  -0.079260   0.005492   0.001848   0.000251
     7  C    5.368528  -0.102636   0.007367  -0.000464  -0.000083   0.000004
     8  C   -0.102636   4.986134   0.364143  -0.094198   0.003670  -0.001918
     9  C    0.007367   0.364143   5.104418   0.281570   0.038793   0.016011
    10  C   -0.000464  -0.094198   0.281570   5.454132   0.395815  -0.060718
    11  C   -0.000083   0.003670   0.038793   0.395815   4.761851   0.298401
    12  I    0.000004  -0.001918   0.016011  -0.060718   0.298401  24.855432
    13  C    0.000146   0.001994  -0.086934  -0.000822   0.417688  -0.062198
    14  C   -0.002635   0.019665  -0.027291  -0.081622   0.062117   0.016151
    15  C    0.020875  -0.111119   0.490353  -0.005219  -0.082809   0.002222
    16  H    0.014597   0.000246  -0.000036  -0.000001   0.000000  -0.000000
    17  H   -0.002044  -0.000745   0.000430   0.000033  -0.000039  -0.000001
    18  H    0.466127  -0.007960   0.000251  -0.000017  -0.000001   0.000000
    19  H    0.002537   0.320537   0.005297   0.001836  -0.000114   0.000025
    20  H    0.002536   0.320542   0.005296   0.001836  -0.000114   0.000025
    21  H   -0.000001  -0.006899  -0.070787   0.452953  -0.058250  -0.006471
    22  H   -0.000001   0.000212  -0.002886   0.015802  -0.059527  -0.007534
    23  H    0.000042  -0.000606   0.013354  -0.002908   0.010153  -0.000639
              13         14         15         16         17         18
     1  Br   0.000000  -0.000009  -0.000297  -0.003897  -0.000446  -0.001629
     2  C    0.000029   0.000052  -0.009929  -0.061945   0.010541  -0.065277
     3  C   -0.000186   0.000311   0.010460   0.450162  -0.056772   0.016215
     4  C    0.000257   0.006844  -0.116754  -0.071071   0.444998  -0.004924
     5  C    0.008770  -0.113992   0.288486   0.014197  -0.060067   0.013604
     6  C   -0.001688   0.012432  -0.084415  -0.002499   0.012094  -0.081063
     7  C    0.000146  -0.002635   0.020875   0.014597  -0.002044   0.466127
     8  C    0.001994   0.019665  -0.111119   0.000246  -0.000745  -0.007960
     9  C   -0.086934  -0.027291   0.490353  -0.000036   0.000430   0.000251
    10  C   -0.000822  -0.081622  -0.005219  -0.000001   0.000033  -0.000017
    11  C    0.417688   0.062117  -0.082809   0.000000  -0.000039  -0.000001
    12  I   -0.062198   0.016151   0.002222  -0.000000  -0.000001   0.000000
    13  C    5.117014   0.375549   0.019247  -0.000002   0.000170  -0.000002
    14  C    0.375549   5.160809   0.412696   0.000035   0.005069   0.000036
    15  C    0.019247   0.412696   5.107521   0.000222  -0.015547   0.000226
    16  H   -0.000002   0.000035   0.000222   0.538631  -0.008386  -0.000086
    17  H    0.000170   0.005069  -0.015547  -0.008386   0.556301   0.000082
    18  H   -0.000002   0.000036   0.000226  -0.000086   0.000082   0.541099
    19  H   -0.000010  -0.000293  -0.001969  -0.000002   0.000029   0.001255
    20  H   -0.000010  -0.000293  -0.001970  -0.000002   0.000029   0.001255
    21  H    0.015628  -0.004220   0.011888   0.000000   0.000002   0.000004
    22  H    0.445278  -0.067973   0.013495   0.000000   0.000016   0.000000
    23  H   -0.055775   0.444231  -0.060342   0.000015   0.002780   0.000002
              19         20         21         22         23
     1  Br   0.000018   0.000018   0.000000  -0.000000  -0.000001
     2  C   -0.000222  -0.000222  -0.000001  -0.000000  -0.000045
     3  C    0.000007   0.000007  -0.000002  -0.000001   0.000162
     4  C   -0.000325  -0.000325   0.000042   0.000031   0.005287
     5  C   -0.002214  -0.002213   0.000053   0.000252  -0.016340
     6  C    0.005061   0.005059   0.000297  -0.000040   0.000319
     7  C    0.002537   0.002536  -0.000001  -0.000001   0.000042
     8  C    0.320537   0.320542  -0.006899   0.000212  -0.000606
     9  C    0.005297   0.005296  -0.070787  -0.002886   0.013354
    10  C    0.001836   0.001836   0.452953   0.015802  -0.002908
    11  C   -0.000114  -0.000114  -0.058250  -0.059527   0.010153
    12  I    0.000025   0.000025  -0.006471  -0.007534  -0.000639
    13  C   -0.000010  -0.000010   0.015628   0.445278  -0.055775
    14  C   -0.000293  -0.000293  -0.004220  -0.067973   0.444231
    15  C   -0.001969  -0.001970   0.011888   0.013495  -0.060342
    16  H   -0.000002  -0.000002   0.000000   0.000000   0.000015
    17  H    0.000029   0.000029   0.000002   0.000016   0.002780
    18  H    0.001255   0.001255   0.000004   0.000000   0.000002
    19  H    0.575403  -0.027302   0.001194  -0.000002   0.000029
    20  H   -0.027302   0.575401   0.001194  -0.000002   0.000029
    21  H    0.001194   0.001194   0.538834  -0.000044   0.000080
    22  H   -0.000002  -0.000002  -0.000044   0.538834  -0.007773
    23  H    0.000029   0.000029   0.000080  -0.007773   0.556907
 Mulliken charges:
               1
     1  Br  -0.095423
     2  C    0.194208
     3  C   -0.149142
     4  C   -0.222798
     5  C    0.109361
     6  C    0.006872
     7  C   -0.341250
     8  C    0.030051
     9  C    0.011963
    10  C   -0.382955
    11  C    0.218918
    12  I   -0.048633
    13  C   -0.194142
    14  C   -0.217669
    15  C    0.112678
    16  H    0.129823
    17  H    0.111474
    18  H    0.120801
    19  H    0.119227
    20  H    0.119227
    21  H    0.124507
    22  H    0.131863
    23  H    0.111038
 Sum of Mulliken charges =  -0.00000
 Mulliken charges with hydrogens summed into heavy atoms:
               1
     1  Br  -0.095423
     2  C    0.194208
     3  C   -0.019319
     4  C   -0.111324
     5  C    0.109361
     6  C    0.006872
     7  C   -0.220449
     8  C    0.268505
     9  C    0.011963
    10  C   -0.258448
    11  C    0.218918
    12  I   -0.048633
    13  C   -0.062279
    14  C   -0.106631
    15  C    0.112678
 Electronic spatial extent (au):  <R**2>=           8892.8182
 Charge=             -0.0000 electrons
 Dipole moment (field-independent basis, Debye):
    X=             -0.1013    Y=              0.0973    Z=              0.0000  Tot=              0.1405
 Quadrupole moment (field-independent basis, Debye-Ang):
   XX=           -133.0668   YY=           -106.9952   ZZ=           -123.8095
   XY=              0.7223   XZ=              0.0000   YZ=             -0.0000
 Traceless Quadrupole moment (field-independent basis, Debye-Ang):
   XX=            -11.7763   YY=             14.2953   ZZ=             -2.5190
   XY=              0.7223   XZ=              0.0000   YZ=             -0.0000
 Octapole moment (field-independent basis, Debye-Ang**2):
  XXX=           -110.5485  YYY=            -10.4171  ZZZ=             -0.0002  XYY=            -12.9826
  XXY=              0.4632  XXZ=             -0.0002  XZZ=            -22.8627  YZZ=            -12.1943
  YYZ=             -0.0001  XYZ=              0.0000
 Hexadecapole moment (field-independent basis, Debye-Ang**3):
 XXXX=         -10246.4819 YYYY=           -754.8341 ZZZZ=           -156.0165 XXXY=             38.0785
 XXXZ=             -0.0002 YYYX=             -1.6467 YYYZ=              0.0001 ZZZX=             -0.0002
 ZZZY=             -0.0000 XXYY=          -1770.1292 XXZZ=          -1781.7380 YYZZ=           -173.2354
 XXYZ=              0.0001 YYXZ=             -0.0001 ZZXY=             -4.8764
 N-N= 1.312384808609D+03 E-N=-1.056864484643D+04  KE= 3.182071866115D+03
 Unable to Open any file for archive entry.
 1\1\GINC-DYNAMO\SP\RmPW1PW91\def2TZVP\C13H8Br1I1\RPATON\23-Sep-2024\0\
 \# nmr=giao mpw1pw91/def2tzvp\\arbr35_wb97xd_nmrcreated by GaussianPre
 p\\0,1\Br,0,5.886194,-0.308653,-0.000003\C,0,4.032178,0.086996,0.00000
 1\C,0,3.625638,1.41484,0.000001\C,0,2.273431,1.718984,0.000004\C,0,1.3
 48877,0.68652,0.000004\C,0,1.774122,-0.644528,0.000002\C,0,3.119543,-0
 .957789,0.\C,0,0.586907,-1.572513,0.000005\C,0,-0.575714,-0.613558,0.0
 00004\C,0,-1.929071,-0.891107,0.000003\C,0,-2.820108,0.174766,0.000001
 \I,0,-4.877713,-0.20894,-0.000002\C,0,-2.37293,1.491477,-0.000001\C,0,
 -1.013073,1.761246,-0.000001\C,0,-0.115505,0.705597,0.000003\H,0,4.364
 849,2.203878,0.\H,0,1.955037,2.754079,0.000005\H,0,3.460028,-1.98491,-
 0.000002\H,0,0.578557,-2.22164,0.879233\H,0,0.578555,-2.221649,-0.8792
 15\H,0,-2.287702,-1.912338,0.000002\H,0,-3.084714,2.305668,-0.000001\H
 ,0,-0.668349,2.787972,-0.000003\\Version=ES64L-G16RevC.01\State=1-A\HF
 =-3372.4510869\RMSD=4.883e-09\Dipole=-0.0398692,0.0382775,0.0000011\Qu
 adrupole=-8.7553889,10.628216,-1.8728271,0.5370239,0.000003,-0.0000037
 \PG=C01 [X(C13H8Br1I1)]\\@
 The archive entry for this job was punched.


 A HARD FALL SHOULD MEAN A HIGH BOUNCE 
 IF ONE IS MADE OF THE RIGHT MATERIAL.

                -- THE CHEMIST ANALYST, MARCH 1950
 Job cpu time:       0 days  2 hours  1 minutes 11.0 seconds.
 Elapsed time:       0 days  0 hours  5 minutes 12.7 seconds.
 File lengths (MBytes):  RWF=    185 Int=      0 D2E=      0 Chk=     24 Scr=      1
 Normal termination of Gaussian 16 at Mon Sep 23 23:17:44 2024.
