 Entering Gaussian System, Link 0=/usr/local/Gaussian/G16C/g16/g16
 Input=arbr41_wb97xd_nmr.com
 Output=arbr41_wb97xd_nmr.log
 Initial command:
 /usr/local/Gaussian/G16C/g16/l1.exe "/home/rpaton/opt/tzvp/nmr/Gau-3136525.inp" -scrdir="/home/rpaton/opt/tzvp/nmr/"
 Entering Link 1 = /usr/local/Gaussian/G16C/g16/l1.exe PID=   3136526.
  
 Copyright (c) 1988-2019, Gaussian, Inc.  All Rights Reserved.
  
 This is part of the Gaussian(R) 16 program.  It is based on
 the Gaussian(R) 09 system (copyright 2009, Gaussian, Inc.),
 the Gaussian(R) 03 system (copyright 2003, Gaussian, Inc.),
 the Gaussian(R) 98 system (copyright 1998, Gaussian, Inc.),
 the Gaussian(R) 94 system (copyright 1995, Gaussian, Inc.),
 the Gaussian 92(TM) system (copyright 1992, Gaussian, Inc.),
 the Gaussian 90(TM) system (copyright 1990, Gaussian, Inc.),
 the Gaussian 88(TM) system (copyright 1988, Gaussian, Inc.),
 the Gaussian 86(TM) system (copyright 1986, Carnegie Mellon
 University), and the Gaussian 82(TM) system (copyright 1983,
 Carnegie Mellon University). Gaussian is a federally registered
 trademark of Gaussian, Inc.
  
 This software contains proprietary and confidential information,
 including trade secrets, belonging to Gaussian, Inc.
  
 This software is provided under written license and may be
 used, copied, transmitted, or stored only in accord with that
 written license.
  
 The following legend is applicable only to US Government
 contracts under FAR:
  
                    RESTRICTED RIGHTS LEGEND
  
 Use, reproduction and disclosure by the US Government is
 subject to restrictions as set forth in subparagraphs (a)
 and (c) of the Commercial Computer Software - Restricted
 Rights clause in FAR 52.227-19.
  
 Gaussian, Inc.
 340 Quinnipiac St., Bldg. 40, Wallingford CT 06492
  
  
 ---------------------------------------------------------------
 Warning -- This program may not be used in any manner that
 competes with the business of Gaussian, Inc. or will provide
 assistance to any competitor of Gaussian, Inc.  The licensee
 of this program is prohibited from giving any competitor of
 Gaussian, Inc. access to this program.  By using this program,
 the user acknowledges that Gaussian, Inc. is engaged in the
 business of creating and licensing software in the field of
 computational chemistry and represents and warrants to the
 licensee that it is not a competitor of Gaussian, Inc. and that
 it will not use this program in any manner prohibited above.
 ---------------------------------------------------------------
  

 Cite this work as:
 Gaussian 16, Revision C.01,
 M. J. Frisch, G. W. Trucks, H. B. Schlegel, G. E. Scuseria, 
 M. A. Robb, J. R. Cheeseman, G. Scalmani, V. Barone, 
 G. A. Petersson, H. Nakatsuji, X. Li, M. Caricato, A. V. Marenich, 
 J. Bloino, B. G. Janesko, R. Gomperts, B. Mennucci, H. P. Hratchian, 
 J. V. Ortiz, A. F. Izmaylov, J. L. Sonnenberg, D. Williams-Young, 
 F. Ding, F. Lipparini, F. Egidi, J. Goings, B. Peng, A. Petrone, 
 T. Henderson, D. Ranasinghe, V. G. Zakrzewski, J. Gao, N. Rega, 
 G. Zheng, W. Liang, M. Hada, M. Ehara, K. Toyota, R. Fukuda, 
 J. Hasegawa, M. Ishida, T. Nakajima, Y. Honda, O. Kitao, H. Nakai, 
 T. Vreven, K. Throssell, J. A. Montgomery, Jr., J. E. Peralta, 
 F. Ogliaro, M. J. Bearpark, J. J. Heyd, E. N. Brothers, K. N. Kudin, 
 V. N. Staroverov, T. A. Keith, R. Kobayashi, J. Normand, 
 K. Raghavachari, A. P. Rendell, J. C. Burant, S. S. Iyengar, 
 J. Tomasi, M. Cossi, J. M. Millam, M. Klene, C. Adamo, R. Cammi, 
 J. W. Ochterski, R. L. Martin, K. Morokuma, O. Farkas, 
 J. B. Foresman, and D. J. Fox, Gaussian, Inc., Wallingford CT, 2019.
 
 ******************************************
 Gaussian 16:  ES64L-G16RevC.01  3-Jul-2019
                23-Sep-2024 
 ******************************************
 %chk=arbr41_wb97xd_nmr.chk
 %mem=48GB
 %nprocshared=24
 Will use up to   24 processors via shared memory.
 ----------------------------
 # nmr=giao mpw1pw91/def2tzvp
 ----------------------------
 1/38=1,172=1/1;
 2/12=2,17=6,18=5,40=1/2;
 3/5=44,7=101,11=2,25=1,30=1,74=-7/1,2,3,8;
 4//1;
 5/5=2,38=5/2;
 8/6=1,10=90,11=11/1;
 10/13=100,45=16/2;
 6/7=2,8=2,9=2,10=2,28=1/1;
 99/9=1/99;
 ----------------------------------------
 arbr41_wb97xd_nmrcreated by GaussianPrep
 ----------------------------------------
 Symbolic Z-matrix:
 Charge =  0 Multiplicity = 1
 N                    -3.1226   -2.4225   -1.15683 
 C                    -2.79168  -1.68746  -0.34044 
 C                    -2.38173  -0.7358    0.69614 
 C                    -3.36766   0.45447   0.81361 
 C                    -2.80117   1.53923  -0.11624 
 C                    -1.32651   1.23949  -0.12771 
 C                    -0.27048   2.03902  -0.52864 
 C                     1.0237    1.54182  -0.46979 
 C                     1.24557   0.24899  -0.01757 
 Br                    3.01824  -0.41379   0.06208 
 C                     0.19922  -0.56795   0.38171 
 C                    -1.08025  -0.04907   0.32434 
 H                    -2.30394  -1.28989   1.63292 
 H                    -4.3911    0.17081   0.57738 
 H                    -3.34177   0.80651   1.84562 
 H                    -3.21026   1.44243  -1.12603 
 H                    -3.03079   2.54575   0.23319 
 H                    -0.44178   3.04793  -0.88322 
 H                     1.85978   2.15712  -0.77233 
 H                     0.38547  -1.57699   0.72492 
 
                          Input orientation:                          
 ---------------------------------------------------------------------
 Center     Atomic      Atomic             Coordinates (Angstroms)
 Number     Number       Type             X           Y           Z
 ---------------------------------------------------------------------
      1          7           0       -3.122595   -2.422497   -1.156833
      2          6           0       -2.791680   -1.687459   -0.340437
      3          6           0       -2.381735   -0.735795    0.696140
      4          6           0       -3.367663    0.454468    0.813612
      5          6           0       -2.801165    1.539228   -0.116235
      6          6           0       -1.326507    1.239489   -0.127705
      7          6           0       -0.270479    2.039015   -0.528637
      8          6           0        1.023702    1.541820   -0.469789
      9          6           0        1.245572    0.248994   -0.017571
     10         35           0        3.018243   -0.413791    0.062081
     11          6           0        0.199215   -0.567946    0.381705
     12          6           0       -1.080254   -0.049069    0.324341
     13          1           0       -2.303940   -1.289890    1.632920
     14          1           0       -4.391104    0.170811    0.577384
     15          1           0       -3.341773    0.806512    1.845622
     16          1           0       -3.210264    1.442433   -1.126034
     17          1           0       -3.030789    2.545752    0.233194
     18          1           0       -0.441776    3.047927   -0.883224
     19          1           0        1.859783    2.157123   -0.772325
     20          1           0        0.385470   -1.576992    0.724922
 ---------------------------------------------------------------------
                    Distance matrix (angstroms):
                    1          2          3          4          5
     1  N    0.000000
     2  C    1.147296   0.000000
     3  C    2.612919   1.465678   0.000000
     4  C    3.495660   2.500287   1.550026   0.000000
     5  C    4.108701   3.234481   2.451857   1.536958   0.000000
     6  C    4.206564   3.280093   2.386205   2.380893   1.504856
     7  C    5.332381   4.503164   3.695545   3.728937   2.612324
     8  C    5.777510   5.000211   4.259568   4.702503   3.841174
     9  C    5.245538   4.489265   3.825774   4.692017   4.248590
    10  Br   6.574994   5.961498   5.446603   6.488333   6.140976
    11  C    4.103764   3.274179   2.605445   3.735571   3.700055
    12  C    3.463841   2.460738   1.517788   2.392734   2.382925
    13  H    3.120211   2.071253   1.091160   2.201263   3.363136
    14  H    3.367769   2.617961   2.207623   1.087978   2.209429
    15  H    4.414666   3.361748   2.149812   1.090711   2.162871
    16  H    3.866047   3.254013   2.958286   2.182447   1.093812
    17  H    5.159855   4.278586   3.377002   2.196324   1.089917
    18  H    6.098130   5.314184   4.535899   4.262170   2.903646
    19  H    6.778264   6.050078   5.340022   5.721925   4.747282
    20  H    4.069693   3.352831   2.892380   4.268572   4.535749
                    6          7          8          9         10
     6  C    0.000000
     7  C    1.383902   0.000000
     8  C    2.394140   1.387649   0.000000
     9  C    2.758405   2.400786   1.387489   0.000000
    10  Br   4.652548   4.144985   2.843500   1.894199   0.000000
    11  C    2.419535   2.800996   2.419904   1.386245   2.841275
    12  C    1.387576   2.396540   2.754669   2.369644   4.123043
    13  H    3.233100   4.459697   4.849038   4.206105   5.617893
    14  H    3.321292   4.657577   5.682989   5.668527   7.450216
    15  H    2.853557   4.072962   4.995916   4.982574   6.717139
    16  H    2.141585   3.058616   4.285674   4.744203   6.606927
    17  H    2.177418   2.908003   4.235677   4.860581   6.736391
    18  H    2.150350   1.083041   2.141708   3.380906   4.984860
    19  H    3.377874   2.147405   1.081276   2.141930   2.940725
    20  H    3.404468   3.882935   3.400245   2.150650   2.953623
                   11         12         13         14         15
    11  C    0.000000
    12  C    1.381870   0.000000
    13  H    2.890074   2.179317   0.000000
    14  H    4.653502   3.327778   2.757546   0.000000
    15  H    4.070723   2.856708   2.348881   1.764551   0.000000
    16  H    4.235499   2.977433   3.987335   2.431674   3.041781
    17  H    4.488886   3.247459   4.147251   2.758490   2.391985
    18  H    3.884000   3.384856   5.349326   5.099840   4.569521
    19  H    3.393416   3.835854   5.916392   6.696323   5.977791
    20  H    1.081972   2.154846   2.853036   5.088442   4.563924
                   16         17         18         19         20
    16  H    0.000000
    17  H    1.759837   0.000000
    18  H    3.209532   2.863836   0.000000
    19  H    5.132375   5.007973   2.470426   0.000000
    20  H    5.047006   5.376769   4.965918   4.284736   0.000000
 Stoichiometry    C10H8BrN
 Framework group  C1[X(C10H8BrN)]
 Deg. of freedom    54
 Full point group                 C1      NOp   1
 Largest Abelian subgroup         C1      NOp   1
 Largest concise Abelian subgroup C1      NOp   1
                         Standard orientation:                         
 ---------------------------------------------------------------------
 Center     Atomic      Atomic             Coordinates (Angstroms)
 Number     Number       Type             X           Y           Z
 ---------------------------------------------------------------------
      1          7           0       -3.122595   -2.422497   -1.156833
      2          6           0       -2.791680   -1.687459   -0.340437
      3          6           0       -2.381735   -0.735795    0.696140
      4          6           0       -3.367663    0.454468    0.813612
      5          6           0       -2.801165    1.539228   -0.116235
      6          6           0       -1.326507    1.239489   -0.127705
      7          6           0       -0.270479    2.039015   -0.528637
      8          6           0        1.023702    1.541820   -0.469789
      9          6           0        1.245572    0.248994   -0.017571
     10         35           0        3.018243   -0.413791    0.062081
     11          6           0        0.199215   -0.567946    0.381705
     12          6           0       -1.080254   -0.049069    0.324341
     13          1           0       -2.303940   -1.289890    1.632920
     14          1           0       -4.391104    0.170811    0.577384
     15          1           0       -3.341773    0.806512    1.845622
     16          1           0       -3.210264    1.442433   -1.126034
     17          1           0       -3.030789    2.545752    0.233194
     18          1           0       -0.441776    3.047927   -0.883224
     19          1           0        1.859783    2.157123   -0.772325
     20          1           0        0.385470   -1.576992    0.724922
 ---------------------------------------------------------------------
 Rotational constants (GHZ):           1.4484339           0.3559343           0.3039228
 Standard basis: def2TZVP (5D, 7F)
 There are   499 symmetry adapted cartesian basis functions of A   symmetry.
 There are   437 symmetry adapted basis functions of A   symmetry.
   437 basis functions,   739 primitive gaussians,   499 cartesian basis functions
    55 alpha electrons       55 beta electrons
       nuclear repulsion energy       873.9384350637 Hartrees.
 NAtoms=   20 NActive=   20 NUniq=   20 SFac= 1.00D+00 NAtFMM=   60 NAOKFM=F Big=F
 Integral buffers will be    131072 words long.
 Raffenetti 2 integral format.
 Two-electron integral symmetry is turned on.
 One-electron integrals computed using PRISM.
   1 Symmetry operations used in ECPInt.
 ECPInt:  NShTT=   14365 NPrTT=   47610 LenC2=   13629 LenP2D=   33850.
 LDataN:  DoStor=T MaxTD1= 6 Len=  172
 NBasis=   437 RedAO= T EigKep=  5.93D-06  NBF=   437
 NBsUse=   437 1.00D-06 EigRej= -1.00D+00 NBFU=   437
 ExpMin= 9.52D-02 ExpMax= 5.65D+05 ExpMxC= 5.46D+03 IAcc=3 IRadAn=         5 AccDes= 0.00D+00
 Harris functional with IExCor=  908 and IRadAn=       5 diagonalized for initial guess.
 HarFok:  IExCor=  908 AccDes= 0.00D+00 IRadAn=         5 IDoV= 1 UseB2=F ITyADJ=14
 ICtDFT=  3500011 ScaDFX=  1.000000  1.000000  1.000000  1.000000
 FoFCou: FMM=F IPFlag=           0 FMFlag=      100000 FMFlg1=           0
         NFxFlg=           0 DoJE=T BraDBF=F KetDBF=T FulRan=T
         wScrn=  0.000000 ICntrl=       500 IOpCl=  0 I1Cent=   200000004 NGrid=           0
         NMat0=    1 NMatS0=      1 NMatT0=    0 NMatD0=    1 NMtDS0=    0 NMtDT0=    0
 Petite list used in FoFCou.
 Requested convergence on RMS density matrix=1.00D-08 within 128 cycles.
 Requested convergence on MAX density matrix=1.00D-06.
 Requested convergence on             energy=1.00D-06.
 No special actions if energy rises.
 Integral accuracy reduced to 1.0D-05 until final iterations.
 Problem detected with inexpensive integrals.
 Switching to full accuracy and repeating last cycle.
 SCF Done:  E(RmPW1PW91) =  -3015.01932613     A.U. after   18 cycles
            NFock= 18  Conv=0.22D-08     -V/T= 2.0019
 DoSCS=F DFT=T ScalE2(SS,OS)=  1.000000  1.000000
 Range of M.O.s used for correlation:     1   437
 NBasis=   437 NAE=    55 NBE=    55 NFC=     0 NFV=     0
 NROrb=    437 NOA=    55 NOB=    55 NVA=   382 NVB=   382

 **** Warning!!: The largest alpha MO coefficient is  0.67938786D+02

          Differentiating once with respect to magnetic field using GIAOs.
          Electric field/nuclear overlap derivatives assumed to be zero.
 FoFCou: FMM=F IPFlag=           0 FMFlag=      100000 FMFlg1=           0
         NFxFlg=           0 DoJE=F BraDBF=F KetDBF=T FulRan=T
         wScrn=  0.000000 ICntrl=      6100 IOpCl=  0 I1Cent=           7 NGrid=          20
         NMat0=    1 NMatS0=      1 NMatT0=    0 NMatD0=    1 NMtDS0=    0 NMtDT0=    0
 Symmetry not used in FoFCou.
   1 Symmetry operations used in ECPInt.
 ECPInt:  NShTT=   14365 NPrTT=   47610 LenC2=   14366 LenP2D=   47610.
 LDataN:  DoStor=T MaxTD1= 7 Len=  274
 FoFJK:  IHMeth= 1 ICntrl=    6127 DoSepK=F KAlg= 0 I1Cent=           0 FoldK=F
 IRaf=         1 NMat=       1 IRICut=       1 DoRegI=T DoRafI=F ISym2E= 0 IDoP0=0 IntGTp=1.
          There are     3 degrees of freedom in the 1st order CPHF.  IDoFFX=0 NUNeed=     3.
      3 vectors produced by pass  0 Test12= 7.00D-13 3.33D-08 XBig12= 1.78D+01 6.89D-01.
 AX will form     3 AO Fock derivatives at one time.
      3 vectors produced by pass  1 Test12= 7.00D-13 3.33D-08 XBig12= 3.82D-02 5.34D-02.
      3 vectors produced by pass  2 Test12= 7.00D-13 3.33D-08 XBig12= 2.47D-04 4.09D-03.
      3 vectors produced by pass  3 Test12= 7.00D-13 3.33D-08 XBig12= 9.65D-07 3.29D-04.
      3 vectors produced by pass  4 Test12= 7.00D-13 3.33D-08 XBig12= 6.46D-09 2.00D-05.
      3 vectors produced by pass  5 Test12= 7.00D-13 3.33D-08 XBig12= 3.67D-11 1.55D-06.
      2 vectors produced by pass  6 Test12= 7.00D-13 3.33D-08 XBig12= 1.08D-13 1.25D-07.
 InvSVY:  IOpt=1 It=  1 EMax= 3.55D-15
 Solved reduced A of dimension    20 with     3 vectors.
 Calculating GIAO nuclear magnetic shielding tensors.
 SCF GIAO Magnetic shielding tensor (ppm):
      1  N    Isotropic =   -25.7882   Anisotropy =   466.2339
   XX=  -148.8618   YX=    86.4214   ZX=   106.0787
   XY=    83.7680   YY=    13.2195   ZY=   211.6447
   XZ=    97.2553   YZ=   203.5561   ZZ=    58.2776
   Eigenvalues:  -190.4241  -171.9750   285.0343
      2  C    Isotropic =    63.9047   Anisotropy =   344.3146
   XX=   -16.9921   YX=    61.4701   ZX=    69.7890
   XY=    61.2162   YY=    90.3681   ZY=   159.2052
   XZ=    70.7570   YZ=   161.7402   ZZ=   118.3382
   Eigenvalues:   -57.1174   -44.6163   293.4477
      3  C    Isotropic =   149.5314   Anisotropy =    22.5305
   XX=   163.7555   YX=    -0.8844   ZX=    -5.1857
   XY=     0.2291   YY=   155.5791   ZY=    -5.2556
   XZ=    -5.3988   YZ=     2.9099   ZZ=   129.2594
   Eigenvalues:   128.4120   155.6304   164.5517
      4  C    Isotropic =   152.3513   Anisotropy =    29.2821
   XX=   162.1217   YX=    -5.9218   ZX=    -7.4675
   XY=    -9.8868   YY=   165.4179   ZY=    -6.3971
   XZ=   -16.1034   YZ=   -10.4000   ZZ=   129.5142
   Eigenvalues:   123.0980   162.0832   171.8727
      5  C    Isotropic =   153.0195   Anisotropy =    32.7520
   XX=   173.2353   YX=    -3.3617   ZX=   -10.7567
   XY=    -0.0618   YY=   151.5001   ZY=   -10.1735
   XZ=    -5.1619   YZ=   -17.6377   ZZ=   134.3231
   Eigenvalues:   125.2988   158.9055   174.8542
      6  C    Isotropic =    38.8193   Anisotropy =   171.6358
   XX=   -44.4133   YX=    20.4418   ZX=     9.6262
   XY=    32.7381   YY=    18.4701   ZY=    44.6321
   XZ=     0.8093   YZ=    28.9137   ZZ=   142.4012
   Eigenvalues:   -54.4808    17.6956   153.2432
      7  C    Isotropic =    57.1621   Anisotropy =   170.1755
   XX=    41.2133   YX=    19.4088   ZX=     4.6718
   XY=    16.0473   YY=   -15.0918   ZY=    66.6538
   XZ=     1.6104   YZ=    68.3279   ZZ=   145.3648
   Eigenvalues:   -42.6129    43.4868   170.6124
      8  C    Isotropic =    50.2587   Anisotropy =   158.0511
   XX=    -7.9725   YX=   -36.9585   ZX=    28.7572
   XY=   -39.8497   YY=    26.9494   ZY=    50.9848
   XZ=    33.1821   YZ=    56.2833   ZZ=   131.7993
   Eigenvalues:   -50.1264    45.2764   155.6261
      9  C    Isotropic =    43.4515   Anisotropy =   122.0054
   XX=   -33.0107   YX=    35.2239   ZX=     1.7058
   XY=    40.3389   YY=    47.3664   ZY=    24.3693
   XZ=     6.0112   YZ=    22.5501   ZZ=   115.9987
   Eigenvalues:   -48.1420    53.7080   124.7884
     10  Br   Isotropic =  2076.9823   Anisotropy =  1298.7517
   XX=  2782.0057   YX=  -424.0614   ZX=    48.9715
   XY=  -420.1185   YY=  1815.8064   ZY=   -31.9194
   XZ=    42.8998   YZ=   -41.8930   ZZ=  1633.1348
   Eigenvalues:  1621.3525  1666.7776  2942.8167
     11  C    Isotropic =    53.7141   Anisotropy =   149.0823
   XX=    46.3645   YX=    14.8272   ZX=     4.4943
   XY=    17.3957   YY=   -17.9046   ZY=    59.5497
   XZ=     1.2973   YZ=    56.6921   ZZ=   132.6824
   Eigenvalues:   -40.1062    48.1461   153.1023
     12  C    Isotropic =    41.0519   Anisotropy =   148.6593
   XX=   -18.6870   YX=   -29.4361   ZX=    24.4960
   XY=   -47.4216   YY=    27.4686   ZY=    46.9275
   XZ=    22.3616   YZ=    60.5041   ZZ=   114.3741
   Eigenvalues:   -54.4276    37.4252   140.1581
     13  H    Isotropic =    27.9469   Anisotropy =     7.3439
   XX=    25.8248   YX=    -0.5663   ZX=     0.8463
   XY=    -1.0420   YY=    28.2118   ZY=    -2.3949
   XZ=    -0.0215   YZ=    -4.9086   ZZ=    29.8041
   Eigenvalues:    25.0681    25.9297    32.8428
     14  H    Isotropic =    29.4105   Anisotropy =     8.9314
   XX=    35.1187   YX=     1.7070   ZX=     0.0125
   XY=     0.6816   YY=    28.1024   ZY=    -0.5651
   XZ=    -1.3052   YZ=    -0.2957   ZZ=    25.0106
   Eigenvalues:    24.9281    27.9387    35.3648
     15  H    Isotropic =    29.5773   Anisotropy =     9.5644
   XX=    25.9595   YX=    -1.2279   ZX=    -2.4895
   XY=    -2.5057   YY=    29.1037   ZY=     2.1426
   XZ=    -4.9282   YZ=     1.3326   ZZ=    33.6685
   Eigenvalues:    24.1999    28.5784    35.9535
     16  H    Isotropic =    28.5337   Anisotropy =     8.0238
   XX=    28.8329   YX=    -0.2785   ZX=     2.3783
   XY=     0.7045   YY=    26.2344   ZY=    -2.4659
   XZ=     4.5274   YZ=    -3.3204   ZZ=    30.5339
   Eigenvalues:    23.9706    27.7477    33.8829
     17  H    Isotropic =    28.9611   Anisotropy =     9.2829
   XX=    27.8507   YX=    -2.0934   ZX=    -1.2875
   XY=    -1.5421   YY=    34.6497   ZY=    -0.2258
   XZ=    -2.2804   YZ=     0.7348   ZZ=    24.3828
   Eigenvalues:    23.6074    28.1261    35.1497
     18  H    Isotropic =    24.3772   Anisotropy =     6.3206
   XX=    28.3134   YX=     1.0000   ZX=    -1.1340
   XY=     0.2650   YY=    23.8600   ZY=    -1.2859
   XZ=    -0.9182   YZ=    -1.1459   ZZ=    20.9582
   Eigenvalues:    20.4428    24.0979    28.5909
     19  H    Isotropic =    24.1936   Anisotropy =     9.1080
   XX=    25.2535   YX=    -3.7393   ZX=     0.7798
   XY=    -3.0294   YY=    27.1479   ZY=    -2.5417
   XZ=     0.8817   YZ=    -2.0924   ZZ=    20.1795
   Eigenvalues:    19.4716    22.8436    30.2657
     20  H    Isotropic =    24.1250   Anisotropy =    11.0252
   XX=    31.0902   YX=     1.4551   ZX=    -1.4016
   XY=     1.3846   YY=    21.6537   ZY=    -1.0989
   XZ=    -1.1504   YZ=    -1.3060   ZZ=    19.6311
   Eigenvalues:    19.0430    21.8569    31.4752
 End of Minotr F.D. properties file   721 does not exist.
 End of Minotr F.D. properties file   722 does not exist.
 End of Minotr F.D. properties file   788 does not exist.

 **********************************************************************

            Population analysis using the SCF Density.

 **********************************************************************

 Orbital symmetries:
       Occupied  (A) (A) (A) (A) (A) (A) (A) (A) (A) (A) (A) (A)
                 (A) (A) (A) (A) (A) (A) (A) (A) (A) (A) (A) (A)
                 (A) (A) (A) (A) (A) (A) (A) (A) (A) (A) (A) (A)
                 (A) (A) (A) (A) (A) (A) (A) (A) (A) (A) (A) (A)
                 (A) (A) (A) (A) (A) (A) (A)
       Virtual   (A) (A) (A) (A) (A) (A) (A) (A) (A) (A) (A) (A)
                 (A) (A) (A) (A) (A) (A) (A) (A) (A) (A) (A) (A)
                 (A) (A) (A) (A) (A) (A) (A) (A) (A) (A) (A) (A)
                 (A) (A) (A) (A) (A) (A) (A) (A) (A) (A) (A) (A)
                 (A) (A) (A) (A) (A) (A) (A) (A) (A) (A) (A) (A)
                 (A) (A) (A) (A) (A) (A) (A) (A) (A) (A) (A) (A)
                 (A) (A) (A) (A) (A) (A) (A) (A) (A) (A) (A) (A)
                 (A) (A) (A) (A) (A) (A) (A) (A) (A) (A) (A) (A)
                 (A) (A) (A) (A) (A) (A) (A) (A) (A) (A) (A) (A)
                 (A) (A) (A) (A) (A) (A) (A) (A) (A) (A) (A) (A)
                 (A) (A) (A) (A) (A) (A) (A) (A) (A) (A) (A) (A)
                 (A) (A) (A) (A) (A) (A) (A) (A) (A) (A) (A) (A)
                 (A) (A) (A) (A) (A) (A) (A) (A) (A) (A) (A) (A)
                 (A) (A) (A) (A) (A) (A) (A) (A) (A) (A) (A) (A)
                 (A) (A) (A) (A) (A) (A) (A) (A) (A) (A) (A) (A)
                 (A) (A) (A) (A) (A) (A) (A) (A) (A) (A) (A) (A)
                 (A) (A) (A) (A) (A) (A) (A) (A) (A) (A) (A) (A)
                 (A) (A) (A) (A) (A) (A) (A) (A) (A) (A) (A) (A)
                 (A) (A) (A) (A) (A) (A) (A) (A) (A) (A) (A) (A)
                 (A) (A) (A) (A) (A) (A) (A) (A) (A) (A) (A) (A)
                 (A) (A) (A) (A) (A) (A) (A) (A) (A) (A) (A) (A)
                 (A) (A) (A) (A) (A) (A) (A) (A) (A) (A) (A) (A)
                 (A) (A) (A) (A) (A) (A) (A) (A) (A) (A) (A) (A)
                 (A) (A) (A) (A) (A) (A) (A) (A) (A) (A) (A) (A)
                 (A) (A) (A) (A) (A) (A) (A) (A) (A) (A) (A) (A)
                 (A) (A) (A) (A) (A) (A) (A) (A) (A) (A) (A) (A)
                 (A) (A) (A) (A) (A) (A) (A) (A) (A) (A) (A) (A)
                 (A) (A) (A) (A) (A) (A) (A) (A) (A) (A) (A) (A)
                 (A) (A) (A) (A) (A) (A) (A) (A) (A) (A) (A) (A)
                 (A) (A) (A) (A) (A) (A) (A) (A) (A) (A) (A) (A)
                 (A) (A) (A) (A) (A) (A) (A) (A) (A) (A) (A) (A)
                 (A) (A) (A) (A) (A) (A) (A) (A) (A) (A)
 The electronic state is 1-A.
 Alpha  occ. eigenvalues -- -483.35068 -62.68168 -56.46195 -56.45852 -56.45842
 Alpha  occ. eigenvalues --  -14.39309 -10.30891 -10.30325 -10.27391 -10.27208
 Alpha  occ. eigenvalues --  -10.26666 -10.26537 -10.26520 -10.26319 -10.26149
 Alpha  occ. eigenvalues --  -10.25970  -8.78573  -6.59846  -6.58747  -6.58715
 Alpha  occ. eigenvalues --   -2.68509  -2.68184  -2.68160  -2.67260  -2.67260
 Alpha  occ. eigenvalues --   -0.94858  -0.93000  -0.88585  -0.83136  -0.80550
 Alpha  occ. eigenvalues --   -0.77047  -0.74195  -0.66019  -0.64996  -0.61610
 Alpha  occ. eigenvalues --   -0.55988  -0.54493  -0.50907  -0.48963  -0.48077
 Alpha  occ. eigenvalues --   -0.46603  -0.44856  -0.42917  -0.41422  -0.40119
 Alpha  occ. eigenvalues --   -0.39453  -0.39078  -0.37894  -0.37345  -0.34674
 Alpha  occ. eigenvalues --   -0.34473  -0.33274  -0.31071  -0.29069  -0.26251
 Alpha virt. eigenvalues --   -0.03809  -0.02874  -0.00154   0.01876   0.03698
 Alpha virt. eigenvalues --    0.04853   0.05713   0.07186   0.07740   0.09062
 Alpha virt. eigenvalues --    0.09594   0.10661   0.11080   0.12430   0.13393
 Alpha virt. eigenvalues --    0.14365   0.14718   0.16279   0.17377   0.18169
 Alpha virt. eigenvalues --    0.18743   0.19824   0.20842   0.22016   0.22140
 Alpha virt. eigenvalues --    0.22428   0.23634   0.23813   0.25087   0.25801
 Alpha virt. eigenvalues --    0.26058   0.27131   0.28240   0.28967   0.29531
 Alpha virt. eigenvalues --    0.29894   0.30473   0.31332   0.31916   0.33071
 Alpha virt. eigenvalues --    0.33554   0.35633   0.36067   0.36340   0.36967
 Alpha virt. eigenvalues --    0.37830   0.38508   0.39431   0.40469   0.41013
 Alpha virt. eigenvalues --    0.41582   0.41952   0.42325   0.42740   0.42918
 Alpha virt. eigenvalues --    0.43544   0.45270   0.46192   0.47242   0.47388
 Alpha virt. eigenvalues --    0.48805   0.49868   0.50772   0.51341   0.52049
 Alpha virt. eigenvalues --    0.53479   0.54836   0.55312   0.56237   0.57257
 Alpha virt. eigenvalues --    0.58154   0.58946   0.60699   0.61371   0.63145
 Alpha virt. eigenvalues --    0.65859   0.66306   0.67318   0.68089   0.69581
 Alpha virt. eigenvalues --    0.71179   0.72150   0.73061   0.73503   0.73808
 Alpha virt. eigenvalues --    0.76694   0.77753   0.79652   0.80661   0.81574
 Alpha virt. eigenvalues --    0.82751   0.83611   0.84968   0.86894   0.88367
 Alpha virt. eigenvalues --    0.90412   0.91205   0.92174   0.92458   0.95425
 Alpha virt. eigenvalues --    0.96041   0.97297   0.98811   1.00146   1.00763
 Alpha virt. eigenvalues --    1.01227   1.03878   1.05445   1.08886   1.09175
 Alpha virt. eigenvalues --    1.10640   1.11232   1.12156   1.12585   1.14542
 Alpha virt. eigenvalues --    1.18286   1.19016   1.19749   1.20253   1.21708
 Alpha virt. eigenvalues --    1.22512   1.24061   1.25403   1.26454   1.27898
 Alpha virt. eigenvalues --    1.28622   1.30445   1.30665   1.32389   1.34295
 Alpha virt. eigenvalues --    1.35421   1.36099   1.36953   1.38725   1.39519
 Alpha virt. eigenvalues --    1.40359   1.42888   1.43951   1.44238   1.45276
 Alpha virt. eigenvalues --    1.46668   1.47723   1.49243   1.51470   1.51994
 Alpha virt. eigenvalues --    1.53481   1.53625   1.54169   1.56033   1.56535
 Alpha virt. eigenvalues --    1.57757   1.59409   1.60250   1.61077   1.62906
 Alpha virt. eigenvalues --    1.63426   1.63947   1.64845   1.66437   1.67292
 Alpha virt. eigenvalues --    1.69669   1.70631   1.72133   1.72718   1.74990
 Alpha virt. eigenvalues --    1.77130   1.78131   1.79722   1.80219   1.81850
 Alpha virt. eigenvalues --    1.84005   1.84186   1.86542   1.88111   1.89928
 Alpha virt. eigenvalues --    1.91333   1.92655   1.93785   1.95546   1.98304
 Alpha virt. eigenvalues --    1.99530   2.01369   2.03009   2.04756   2.06746
 Alpha virt. eigenvalues --    2.07999   2.09865   2.13277   2.15981   2.16406
 Alpha virt. eigenvalues --    2.18929   2.20612   2.21616   2.22961   2.25722
 Alpha virt. eigenvalues --    2.28937   2.28997   2.31016   2.32779   2.34362
 Alpha virt. eigenvalues --    2.37214   2.37894   2.38800   2.40354   2.43413
 Alpha virt. eigenvalues --    2.44127   2.47137   2.49575   2.51340   2.53281
 Alpha virt. eigenvalues --    2.54060   2.54964   2.56467   2.59879   2.60934
 Alpha virt. eigenvalues --    2.61438   2.62384   2.62503   2.64572   2.66246
 Alpha virt. eigenvalues --    2.67893   2.69114   2.71613   2.72200   2.72413
 Alpha virt. eigenvalues --    2.73604   2.76171   2.77016   2.78212   2.79438
 Alpha virt. eigenvalues --    2.80663   2.80979   2.83132   2.84941   2.85207
 Alpha virt. eigenvalues --    2.87366   2.87873   2.88922   2.90999   2.92289
 Alpha virt. eigenvalues --    2.94456   2.95565   2.97300   2.98054   2.99456
 Alpha virt. eigenvalues --    3.00113   3.03057   3.03888   3.05153   3.05529
 Alpha virt. eigenvalues --    3.07327   3.10266   3.11668   3.12313   3.12955
 Alpha virt. eigenvalues --    3.13663   3.16479   3.17628   3.19442   3.20165
 Alpha virt. eigenvalues --    3.21679   3.22192   3.22968   3.24294   3.25725
 Alpha virt. eigenvalues --    3.26582   3.28035   3.28398   3.29934   3.31176
 Alpha virt. eigenvalues --    3.32704   3.33617   3.34409   3.35607   3.37643
 Alpha virt. eigenvalues --    3.38815   3.40399   3.42189   3.43327   3.44482
 Alpha virt. eigenvalues --    3.46382   3.47383   3.48583   3.50318   3.50843
 Alpha virt. eigenvalues --    3.53880   3.55164   3.55635   3.55903   3.56872
 Alpha virt. eigenvalues --    3.58632   3.60711   3.63542   3.64635   3.68006
 Alpha virt. eigenvalues --    3.68073   3.72349   3.75684   3.77976   3.79415
 Alpha virt. eigenvalues --    3.81375   3.82199   3.86562   3.87297   3.92036
 Alpha virt. eigenvalues --    3.94376   3.95408   3.98207   3.98623   3.99953
 Alpha virt. eigenvalues --    4.00185   4.01332   4.02964   4.03526   4.04754
 Alpha virt. eigenvalues --    4.07273   4.11927   4.12249   4.14763   4.15635
 Alpha virt. eigenvalues --    4.19123   4.20137   4.21061   4.22589   4.23968
 Alpha virt. eigenvalues --    4.25531   4.27423   4.28787   4.30981   4.36180
 Alpha virt. eigenvalues --    4.36937   4.39253   4.40324   4.43502   4.44405
 Alpha virt. eigenvalues --    4.46673   4.49452   4.51923   4.56013   4.58150
 Alpha virt. eigenvalues --    4.59906   4.61280   4.64058   4.66290   4.69631
 Alpha virt. eigenvalues --    4.72063   4.73846   4.77596   4.78650   4.81569
 Alpha virt. eigenvalues --    4.84835   4.88983   4.93854   4.95758   4.97754
 Alpha virt. eigenvalues --    5.11966   5.14040   5.19521   5.21643   5.24315
 Alpha virt. eigenvalues --    5.26029   5.29576   5.39127   5.51031   5.59154
 Alpha virt. eigenvalues --    5.68657   5.73300   5.82276   5.83623   6.14368
 Alpha virt. eigenvalues --    7.79062  22.16899  22.53670  22.58748  22.73579
 Alpha virt. eigenvalues --   22.79037  22.84069  22.90308  23.04060  23.51076
 Alpha virt. eigenvalues --   23.68863  32.21023
          Condensed to atoms (all electrons):
               1          2          3          4          5          6
     1  N    6.053184   0.967599  -0.040588  -0.001761   0.000885   0.001609
     2  C    0.967599   5.285080   0.125876   0.013603   0.001341   0.009123
     3  C   -0.040588   0.125876   4.988341   0.301159  -0.060901  -0.061136
     4  C   -0.001761   0.013603   0.301159   4.850726   0.417824  -0.067903
     5  C    0.000885   0.001341  -0.060901   0.417824   4.915412   0.328807
     6  C    0.001609   0.009123  -0.061136  -0.067903   0.328807   5.088570
     7  C   -0.000199   0.002065   0.013317  -0.001079  -0.075342   0.337664
     8  C    0.000089   0.000204   0.000029   0.000771   0.010516   0.068854
     9  C   -0.000265  -0.000303   0.007637  -0.001038  -0.002810  -0.126854
    10  Br   0.000002   0.000112  -0.001433   0.000040   0.000049  -0.000159
    11  C    0.002074   0.012669  -0.093969   0.007748   0.018464   0.044248
    12  C   -0.004989  -0.028507   0.303869  -0.045446  -0.080345   0.438490
    13  H    0.000519  -0.050026   0.412542  -0.029730   0.009192  -0.001548
    14  H    0.000986  -0.005375  -0.035748   0.420156  -0.030038   0.007336
    15  H   -0.000175   0.003700  -0.022140   0.390992  -0.030685   0.001119
    16  H    0.000005   0.002495  -0.000253  -0.019549   0.358359  -0.008884
    17  H    0.000008  -0.000350   0.008407  -0.028971   0.412403  -0.039970
    18  H   -0.000001  -0.000056  -0.000469  -0.000039  -0.007923  -0.067780
    19  H    0.000000  -0.000003   0.000160   0.000018  -0.000173   0.015714
    20  H    0.000303  -0.000265  -0.004316   0.000371  -0.000378   0.016168
               7          8          9         10         11         12
     1  N   -0.000199   0.000089  -0.000265   0.000002   0.002074  -0.004989
     2  C    0.002065   0.000204  -0.000303   0.000112   0.012669  -0.028507
     3  C    0.013317   0.000029   0.007637  -0.001433  -0.093969   0.303869
     4  C   -0.001079   0.000771  -0.001038   0.000040   0.007748  -0.045446
     5  C   -0.075342   0.010516  -0.002810   0.000049   0.018464  -0.080345
     6  C    0.337664   0.068854  -0.126854  -0.000159   0.044248   0.438490
     7  C    5.218100   0.328721   0.108245   0.017120  -0.125630   0.027389
     8  C    0.328721   5.106097   0.362626  -0.072931   0.056394  -0.126667
     9  C    0.108245   0.362626   4.868497   0.313943   0.325652   0.092690
    10  Br   0.017120  -0.072931   0.313943  34.889997  -0.064206   0.011948
    11  C   -0.125630   0.056394   0.325652  -0.064206   5.403155   0.258180
    12  C    0.027389  -0.126667   0.092690   0.011948   0.258180   5.113565
    13  H   -0.001820   0.000408   0.000237   0.000002   0.001743  -0.036984
    14  H   -0.000366  -0.000002   0.000052  -0.000001  -0.000618   0.008263
    15  H    0.002144  -0.000204  -0.000037   0.000000   0.000383   0.001210
    16  H    0.007376  -0.000435   0.000176  -0.000004   0.000114  -0.010986
    17  H   -0.001125   0.000267   0.000139  -0.000001  -0.000787   0.003183
    18  H    0.450601  -0.062471   0.011836  -0.000452  -0.002342   0.015333
    19  H   -0.073856   0.451722  -0.064332  -0.003816   0.016607  -0.004139
    20  H   -0.005944   0.017174  -0.070523  -0.002140   0.467249  -0.081707
              13         14         15         16         17         18
     1  N    0.000519   0.000986  -0.000175   0.000005   0.000008  -0.000001
     2  C   -0.050026  -0.005375   0.003700   0.002495  -0.000350  -0.000056
     3  C    0.412542  -0.035748  -0.022140  -0.000253   0.008407  -0.000469
     4  C   -0.029730   0.420156   0.390992  -0.019549  -0.028971  -0.000039
     5  C    0.009192  -0.030038  -0.030685   0.358359   0.412403  -0.007923
     6  C   -0.001548   0.007336   0.001119  -0.008884  -0.039970  -0.067780
     7  C   -0.001820  -0.000366   0.002144   0.007376  -0.001125   0.450601
     8  C    0.000408  -0.000002  -0.000204  -0.000435   0.000267  -0.062471
     9  C    0.000237   0.000052  -0.000037   0.000176   0.000139   0.011836
    10  Br   0.000002  -0.000001   0.000000  -0.000004  -0.000001  -0.000452
    11  C    0.001743  -0.000618   0.000383   0.000114  -0.000787  -0.002342
    12  C   -0.036984   0.008263   0.001210  -0.010986   0.003183   0.015333
    13  H    0.578666   0.001004  -0.011232  -0.000523   0.000131   0.000016
    14  H    0.001004   0.525331  -0.022475  -0.006858   0.000633  -0.000010
    15  H   -0.011232  -0.022475   0.577898   0.007128  -0.011405   0.000016
    16  H   -0.000523  -0.006858   0.007128   0.579771  -0.032170   0.000801
    17  H    0.000131   0.000633  -0.011405  -0.032170   0.565349   0.001843
    18  H    0.000016  -0.000010   0.000016   0.000801   0.001843   0.555321
    19  H   -0.000000  -0.000000  -0.000001   0.000002  -0.000015  -0.008755
    20  H    0.001420  -0.000022  -0.000047   0.000018   0.000020   0.000073
              19         20
     1  N    0.000000   0.000303
     2  C   -0.000003  -0.000265
     3  C    0.000160  -0.004316
     4  C    0.000018   0.000371
     5  C   -0.000173  -0.000378
     6  C    0.015714   0.016168
     7  C   -0.073856  -0.005944
     8  C    0.451722   0.017174
     9  C   -0.064332  -0.070523
    10  Br  -0.003816  -0.002140
    11  C    0.016607   0.467249
    12  C   -0.004139  -0.081707
    13  H   -0.000000   0.001420
    14  H   -0.000000  -0.000022
    15  H   -0.000001  -0.000047
    16  H    0.000002   0.000018
    17  H   -0.000015   0.000020
    18  H   -0.008755   0.000073
    19  H    0.537626  -0.000034
    20  H   -0.000034   0.535374
 Mulliken charges:
               1
     1  N    0.020716
     2  C   -0.338981
     3  C    0.159615
     4  C   -0.207891
     5  C   -0.184654
     6  C    0.016531
     7  C   -0.227382
     8  C   -0.141162
     9  C    0.174433
    10  Br  -0.088071
    11  C   -0.327125
    12  C    0.145652
    13  H    0.125982
    14  H    0.137753
    15  H    0.113811
    16  H    0.123420
    17  H    0.122414
    18  H    0.114458
    19  H    0.133276
    20  H    0.127207
 Sum of Mulliken charges =  -0.00000
 Mulliken charges with hydrogens summed into heavy atoms:
               1
     1  N    0.020716
     2  C   -0.338981
     3  C    0.285597
     4  C    0.043672
     5  C    0.061180
     6  C    0.016531
     7  C   -0.112924
     8  C   -0.007886
     9  C    0.174433
    10  Br  -0.088071
    11  C   -0.199918
    12  C    0.145652
 Electronic spatial extent (au):  <R**2>=           3288.2694
 Charge=             -0.0000 electrons
 Dipole moment (field-independent basis, Debye):
    X=             -0.6850    Y=              3.6589    Z=              2.4593  Tot=              4.4615
 Quadrupole moment (field-independent basis, Debye-Ang):
   XX=            -84.4862   YY=            -84.0446   ZZ=            -83.9550
   XY=            -10.2537   XZ=             -8.8983   YZ=             -8.4885
 Traceless Quadrupole moment (field-independent basis, Debye-Ang):
   XX=             -0.3243   YY=              0.1173   ZZ=              0.2069
   XY=            -10.2537   XZ=             -8.8983   YZ=             -8.4885
 Octapole moment (field-independent basis, Debye-Ang**2):
  XXX=            101.4511  YYY=             23.8998  ZZZ=             10.6162  XYY=             58.0923
  XXY=             34.1121  XXZ=             25.2583  XZZ=             34.2616  YZZ=              1.6471
  YYZ=             12.1124  XYZ=             16.6295
 Hexadecapole moment (field-independent basis, Debye-Ang**3):
 XXXX=          -2843.7172 YYYY=           -897.6341 ZZZZ=           -245.6091 XXXY=           -181.0974
 XXXZ=            -77.8273 YYYX=           -132.5241 YYYZ=            -59.5384 ZZZX=            -17.8807
 ZZZY=            -15.1674 XXYY=           -697.3676 XXZZ=           -536.8673 YYZZ=           -201.1606
 XXYZ=            -62.1695 YYXZ=            -50.2779 ZZXY=            -37.0866
 N-N= 8.739384350637D+02 E-N=-8.922847557840D+03  KE= 3.009257456477D+03
 Unable to Open any file for archive entry.
 1\1\GINC-DYNAMO\SP\RmPW1PW91\def2TZVP\C10H8Br1N1\RPATON\23-Sep-2024\0\
 \# nmr=giao mpw1pw91/def2tzvp\\arbr41_wb97xd_nmrcreated by GaussianPre
 p\\0,1\N,0,-3.122595,-2.422497,-1.156833\C,0,-2.79168,-1.687459,-0.340
 437\C,0,-2.381735,-0.735795,0.69614\C,0,-3.367663,0.454468,0.813612\C,
 0,-2.801165,1.539228,-0.116235\C,0,-1.326507,1.239489,-0.127705\C,0,-0
 .270479,2.039015,-0.528637\C,0,1.023702,1.54182,-0.469789\C,0,1.245572
 ,0.248994,-0.017571\Br,0,3.018243,-0.413791,0.062081\C,0,0.199215,-0.5
 67946,0.381705\C,0,-1.080254,-0.049069,0.324341\H,0,-2.30394,-1.28989,
 1.63292\H,0,-4.391104,0.170811,0.577384\H,0,-3.341773,0.806512,1.84562
 2\H,0,-3.210264,1.442433,-1.126034\H,0,-3.030789,2.545752,0.233194\H,0
 ,-0.441776,3.047927,-0.883224\H,0,1.859783,2.157123,-0.772325\H,0,0.38
 547,-1.576992,0.724922\\Version=ES64L-G16RevC.01\State=1-A\HF=-3015.01
 93261\RMSD=2.167e-09\Dipole=-0.2694847,1.4395229,0.9675638\Quadrupole=
 -0.2410752,0.0872424,0.1538329,-7.6233401,-6.6156835,-6.3109748\PG=C01
  [X(C10H8Br1N1)]\\@
 The archive entry for this job was punched.


 K N O W I N G  IS A BARRIER WHICH PREVENTS LEARNING

                     -- TEACHING OF THE BENE GESSERIT
 Job cpu time:       0 days  0 hours 51 minutes 43.5 seconds.
 Elapsed time:       0 days  0 hours  2 minutes 15.0 seconds.
 File lengths (MBytes):  RWF=    115 Int=      0 D2E=      0 Chk=     16 Scr=      1
 Normal termination of Gaussian 16 at Mon Sep 23 23:52:43 2024.
