 Entering Gaussian System, Link 0=/usr/local/Gaussian/G16C/g16/g16
 Input=arbr37_wb97xd_nmr.com
 Output=arbr37_wb97xd_nmr.log
 Initial command:
 /usr/local/Gaussian/G16C/g16/l1.exe "/home/rpaton/opt/tzvp/nmr/Gau-3134695.inp" -scrdir="/home/rpaton/opt/tzvp/nmr/"
 Entering Link 1 = /usr/local/Gaussian/G16C/g16/l1.exe PID=   3134696.
  
 Copyright (c) 1988-2019, Gaussian, Inc.  All Rights Reserved.
  
 This is part of the Gaussian(R) 16 program.  It is based on
 the Gaussian(R) 09 system (copyright 2009, Gaussian, Inc.),
 the Gaussian(R) 03 system (copyright 2003, Gaussian, Inc.),
 the Gaussian(R) 98 system (copyright 1998, Gaussian, Inc.),
 the Gaussian(R) 94 system (copyright 1995, Gaussian, Inc.),
 the Gaussian 92(TM) system (copyright 1992, Gaussian, Inc.),
 the Gaussian 90(TM) system (copyright 1990, Gaussian, Inc.),
 the Gaussian 88(TM) system (copyright 1988, Gaussian, Inc.),
 the Gaussian 86(TM) system (copyright 1986, Carnegie Mellon
 University), and the Gaussian 82(TM) system (copyright 1983,
 Carnegie Mellon University). Gaussian is a federally registered
 trademark of Gaussian, Inc.
  
 This software contains proprietary and confidential information,
 including trade secrets, belonging to Gaussian, Inc.
  
 This software is provided under written license and may be
 used, copied, transmitted, or stored only in accord with that
 written license.
  
 The following legend is applicable only to US Government
 contracts under FAR:
  
                    RESTRICTED RIGHTS LEGEND
  
 Use, reproduction and disclosure by the US Government is
 subject to restrictions as set forth in subparagraphs (a)
 and (c) of the Commercial Computer Software - Restricted
 Rights clause in FAR 52.227-19.
  
 Gaussian, Inc.
 340 Quinnipiac St., Bldg. 40, Wallingford CT 06492
  
  
 ---------------------------------------------------------------
 Warning -- This program may not be used in any manner that
 competes with the business of Gaussian, Inc. or will provide
 assistance to any competitor of Gaussian, Inc.  The licensee
 of this program is prohibited from giving any competitor of
 Gaussian, Inc. access to this program.  By using this program,
 the user acknowledges that Gaussian, Inc. is engaged in the
 business of creating and licensing software in the field of
 computational chemistry and represents and warrants to the
 licensee that it is not a competitor of Gaussian, Inc. and that
 it will not use this program in any manner prohibited above.
 ---------------------------------------------------------------
  

 Cite this work as:
 Gaussian 16, Revision C.01,
 M. J. Frisch, G. W. Trucks, H. B. Schlegel, G. E. Scuseria, 
 M. A. Robb, J. R. Cheeseman, G. Scalmani, V. Barone, 
 G. A. Petersson, H. Nakatsuji, X. Li, M. Caricato, A. V. Marenich, 
 J. Bloino, B. G. Janesko, R. Gomperts, B. Mennucci, H. P. Hratchian, 
 J. V. Ortiz, A. F. Izmaylov, J. L. Sonnenberg, D. Williams-Young, 
 F. Ding, F. Lipparini, F. Egidi, J. Goings, B. Peng, A. Petrone, 
 T. Henderson, D. Ranasinghe, V. G. Zakrzewski, J. Gao, N. Rega, 
 G. Zheng, W. Liang, M. Hada, M. Ehara, K. Toyota, R. Fukuda, 
 J. Hasegawa, M. Ishida, T. Nakajima, Y. Honda, O. Kitao, H. Nakai, 
 T. Vreven, K. Throssell, J. A. Montgomery, Jr., J. E. Peralta, 
 F. Ogliaro, M. J. Bearpark, J. J. Heyd, E. N. Brothers, K. N. Kudin, 
 V. N. Staroverov, T. A. Keith, R. Kobayashi, J. Normand, 
 K. Raghavachari, A. P. Rendell, J. C. Burant, S. S. Iyengar, 
 J. Tomasi, M. Cossi, J. M. Millam, M. Klene, C. Adamo, R. Cammi, 
 J. W. Ochterski, R. L. Martin, K. Morokuma, O. Farkas, 
 J. B. Foresman, and D. J. Fox, Gaussian, Inc., Wallingford CT, 2019.
 
 ******************************************
 Gaussian 16:  ES64L-G16RevC.01  3-Jul-2019
                23-Sep-2024 
 ******************************************
 %chk=arbr37_wb97xd_nmr.chk
 %mem=48GB
 %nprocshared=24
 Will use up to   24 processors via shared memory.
 ----------------------------
 # nmr=giao mpw1pw91/def2tzvp
 ----------------------------
 1/38=1,172=1/1;
 2/12=2,17=6,18=5,40=1/2;
 3/5=44,7=101,11=2,25=1,30=1,74=-7/1,2,3,8;
 4//1;
 5/5=2,38=5/2;
 8/6=1,10=90,11=11/1;
 10/13=100,45=16/2;
 6/7=2,8=2,9=2,10=2,28=1/1;
 99/9=1/99;
 ----------------------------------------
 arbr37_wb97xd_nmrcreated by GaussianPrep
 ----------------------------------------
 Symbolic Z-matrix:
 Charge =  0 Multiplicity = 1
 Br                   -2.65045  -0.21787   0. 
 C                    -0.79086   0.15955   0. 
 C                    -0.37051   1.48205   0. 
 C                     0.98605   1.77454   0. 
 C                     1.89923   0.73212   0. 
 C                     1.45717  -0.59557   0. 
 C                     0.1105   -0.89672   0. 
 C                     2.65199  -1.50669  0. 
 C                     3.80112  -0.53759   0. 
 C                     3.36206   0.7242   0. 
 H                    -1.10177   2.27861  0. 
 H                     1.31564   2.8061   0. 
 H                    -0.24205  -1.91987   0. 
 H                     2.66966  -2.15946  -0.87801 
 H                     2.66966  -2.15947   0.878 
 H                     4.83591  -0.84856   0.00001 
 H                     3.97812   1.6126   0. 
 
                          Input orientation:                          
 ---------------------------------------------------------------------
 Center     Atomic      Atomic             Coordinates (Angstroms)
 Number     Number       Type             X           Y           Z
 ---------------------------------------------------------------------
      1         35           0       -2.650448   -0.217866    0.000000
      2          6           0       -0.790863    0.159546    0.000001
      3          6           0       -0.370512    1.482045    0.000000
      4          6           0        0.986053    1.774538    0.000000
      5          6           0        1.899229    0.732122    0.000001
      6          6           0        1.457173   -0.595565    0.000001
      7          6           0        0.110502   -0.896716    0.000001
      8          6           0        2.651992   -1.506694   -0.000003
      9          6           0        3.801117   -0.537590    0.000004
     10          6           0        3.362063    0.724202   -0.000002
     11          1           0       -1.101770    2.278609   -0.000001
     12          1           0        1.315643    2.806098   -0.000001
     13          1           0       -0.242050   -1.919872    0.000000
     14          1           0        2.669656   -2.159459   -0.878009
     15          1           0        2.669656   -2.159467    0.877998
     16          1           0        4.835907   -0.848559    0.000006
     17          1           0        3.978116    1.612604   -0.000003
 ---------------------------------------------------------------------
                    Distance matrix (angstroms):
                    1          2          3          4          5
     1  Br   0.000000
     2  C    1.897497   0.000000
     3  C    2.843907   1.387695   0.000000
     4  C    4.146542   2.401173   1.387739   0.000000
     5  C    4.647799   2.750352   2.390420   1.385829   0.000000
     6  C    4.124949   2.371468   2.767110   2.416473   1.399345
     7  C    2.843182   1.388578   2.426907   2.811083   2.419227
     8  C    5.456826   3.824867   4.250658   3.679923   2.361980
     9  C    6.459483   4.644597   4.634805   3.642873   2.286776
    10  C    6.085867   4.191137   3.808732   2.597812   1.462855
    11  H    2.937821   2.141750   1.081320   2.147811   3.376036
    12  H    4.987408   3.382544   2.143883   1.082934   2.154518
    13  H    2.949102   2.150622   3.404342   3.893187   3.408540
    14  H    5.730985   4.257215   4.824321   4.368266   3.118605
    15  H    5.730986   4.257216   4.824325   4.368271   3.118609
    16  H    7.512875   5.716364   5.704254   4.658542   3.335061
    17  H    6.876662   4.985433   4.350587   2.996442   2.257658
                    6          7          8          9         10
     6  C    0.000000
     7  C    1.379933   0.000000
     8  C    1.502581   2.613665   0.000000
     9  C    2.344661   3.708047   1.503214   0.000000
    10  C    2.317410   3.633184   2.341174   1.335997   0.000000
    11  H    3.848255   3.398866   5.330971   5.654138   4.726731
    12  H    3.404606   3.893995   4.515086   4.166273   2.919268
    13  H    2.154332   1.082193   2.923388   4.272927   4.469984
    14  H    2.164897   2.985748   1.094216   2.163694   3.092867
    15  H    2.164898   2.985747   1.094217   2.163692   3.092872
    16  H    3.388193   4.725650   2.280927   1.080505   2.155410
    17  H    3.351293   4.610328   3.389487   2.157467   1.081101
                   11         12         13         14         15
    11  H    0.000000
    12  H    2.474294   0.000000
    13  H    4.285599   4.976063   0.000000
    14  H    5.889907   5.221207   3.050628   0.000000
    15  H    5.889911   5.221213   3.050626   1.756007   0.000000
    16  H    6.710826   5.074325   5.189736   2.679928   2.679924
    17  H    5.123359   2.917737   5.503471   4.087961   4.087967
                   16         17
    16  H    0.000000
    17  H    2.606363   0.000000
 Stoichiometry    C9H7Br
 Framework group  C1[X(C9H7Br)]
 Deg. of freedom    45
 Full point group                 C1      NOp   1
 Largest Abelian subgroup         C1      NOp   1
 Largest concise Abelian subgroup C1      NOp   1
                         Standard orientation:                         
 ---------------------------------------------------------------------
 Center     Atomic      Atomic             Coordinates (Angstroms)
 Number     Number       Type             X           Y           Z
 ---------------------------------------------------------------------
      1         35           0        2.650448   -0.217866    0.000000
      2          6           0        0.790863    0.159546   -0.000001
      3          6           0        0.370512    1.482045    0.000000
      4          6           0       -0.986053    1.774538    0.000000
      5          6           0       -1.899229    0.732122   -0.000001
      6          6           0       -1.457173   -0.595565   -0.000001
      7          6           0       -0.110502   -0.896716   -0.000001
      8          6           0       -2.651992   -1.506694    0.000003
      9          6           0       -3.801117   -0.537590   -0.000004
     10          6           0       -3.362063    0.724202    0.000002
     11          1           0        1.101770    2.278609    0.000001
     12          1           0       -1.315643    2.806098    0.000001
     13          1           0        0.242050   -1.919872    0.000000
     14          1           0       -2.669656   -2.159459    0.878009
     15          1           0       -2.669656   -2.159467   -0.877998
     16          1           0       -4.835907   -0.848559   -0.000006
     17          1           0       -3.978116    1.612604    0.000003
 ---------------------------------------------------------------------
 Rotational constants (GHZ):           3.2283469           0.4641343           0.4068091
 Standard basis: def2TZVP (5D, 7F)
 There are   421 symmetry adapted cartesian basis functions of A   symmetry.
 There are   369 symmetry adapted basis functions of A   symmetry.
   369 basis functions,   629 primitive gaussians,   421 cartesian basis functions
    48 alpha electrons       48 beta electrons
       nuclear repulsion energy       683.5143613449 Hartrees.
 NAtoms=   17 NActive=   17 NUniq=   17 SFac= 1.00D+00 NAtFMM=   60 NAOKFM=F Big=F
 Integral buffers will be    131072 words long.
 Raffenetti 2 integral format.
 Two-electron integral symmetry is turned on.
 One-electron integrals computed using PRISM.
   1 Symmetry operations used in ECPInt.
 ECPInt:  NShTT=   10296 NPrTT=   34476 LenC2=    9881 LenP2D=   25330.
 LDataN:  DoStor=T MaxTD1= 6 Len=  172
 NBasis=   369 RedAO= T EigKep=  6.37D-06  NBF=   369
 NBsUse=   369 1.00D-06 EigRej= -1.00D+00 NBFU=   369
 ExpMin= 9.52D-02 ExpMax= 5.65D+05 ExpMxC= 5.46D+03 IAcc=3 IRadAn=         5 AccDes= 0.00D+00
 Harris functional with IExCor=  908 and IRadAn=       5 diagonalized for initial guess.
 HarFok:  IExCor=  908 AccDes= 0.00D+00 IRadAn=         5 IDoV= 1 UseB2=F ITyADJ=14
 ICtDFT=  3500011 ScaDFX=  1.000000  1.000000  1.000000  1.000000
 FoFCou: FMM=F IPFlag=           0 FMFlag=      100000 FMFlg1=           0
         NFxFlg=           0 DoJE=T BraDBF=F KetDBF=T FulRan=T
         wScrn=  0.000000 ICntrl=       500 IOpCl=  0 I1Cent=   200000004 NGrid=           0
         NMat0=    1 NMatS0=      1 NMatT0=    0 NMatD0=    1 NMtDS0=    0 NMtDT0=    0
 Petite list used in FoFCou.
 Requested convergence on RMS density matrix=1.00D-08 within 128 cycles.
 Requested convergence on MAX density matrix=1.00D-06.
 Requested convergence on             energy=1.00D-06.
 No special actions if energy rises.
 Integral accuracy reduced to 1.0D-05 until final iterations.
 EnCoef did     3 forward-backward iterations
 Problem detected with inexpensive integrals.
 Switching to full accuracy and repeating last cycle.
 SCF Done:  E(RmPW1PW91) =  -2921.54933152     A.U. after   16 cycles
            NFock= 16  Conv=0.37D-08     -V/T= 2.0018
 DoSCS=F DFT=T ScalE2(SS,OS)=  1.000000  1.000000
 Range of M.O.s used for correlation:     1   369
 NBasis=   369 NAE=    48 NBE=    48 NFC=     0 NFV=     0
 NROrb=    369 NOA=    48 NOB=    48 NVA=   321 NVB=   321

 **** Warning!!: The largest alpha MO coefficient is  0.74635316D+02

          Differentiating once with respect to magnetic field using GIAOs.
          Electric field/nuclear overlap derivatives assumed to be zero.
 FoFCou: FMM=F IPFlag=           0 FMFlag=      100000 FMFlg1=           0
         NFxFlg=           0 DoJE=F BraDBF=F KetDBF=T FulRan=T
         wScrn=  0.000000 ICntrl=      6100 IOpCl=  0 I1Cent=           7 NGrid=          17
         NMat0=    1 NMatS0=      1 NMatT0=    0 NMatD0=    1 NMtDS0=    0 NMtDT0=    0
 Symmetry not used in FoFCou.
   1 Symmetry operations used in ECPInt.
 ECPInt:  NShTT=   10296 NPrTT=   34476 LenC2=   10297 LenP2D=   34476.
 LDataN:  DoStor=T MaxTD1= 7 Len=  274
 FoFJK:  IHMeth= 1 ICntrl=    6127 DoSepK=F KAlg= 0 I1Cent=           0 FoldK=F
 IRaf=         1 NMat=       1 IRICut=       1 DoRegI=T DoRafI=F ISym2E= 0 IDoP0=0 IntGTp=1.
          There are     3 degrees of freedom in the 1st order CPHF.  IDoFFX=0 NUNeed=     3.
      3 vectors produced by pass  0 Test12= 5.14D-13 3.33D-08 XBig12= 2.33D+01 1.54D+00.
 AX will form     3 AO Fock derivatives at one time.
      3 vectors produced by pass  1 Test12= 5.14D-13 3.33D-08 XBig12= 1.02D-01 1.72D-01.
      3 vectors produced by pass  2 Test12= 5.14D-13 3.33D-08 XBig12= 4.46D-04 8.02D-03.
      3 vectors produced by pass  3 Test12= 5.14D-13 3.33D-08 XBig12= 1.52D-06 4.97D-04.
      3 vectors produced by pass  4 Test12= 5.14D-13 3.33D-08 XBig12= 9.46D-09 3.32D-05.
      3 vectors produced by pass  5 Test12= 5.14D-13 3.33D-08 XBig12= 4.41D-11 2.10D-06.
      2 vectors produced by pass  6 Test12= 5.14D-13 3.33D-08 XBig12= 1.57D-13 1.49D-07.
 InvSVY:  IOpt=1 It=  1 EMax= 4.44D-16
 Solved reduced A of dimension    20 with     3 vectors.
 Calculating GIAO nuclear magnetic shielding tensors.
 SCF GIAO Magnetic shielding tensor (ppm):
      1  Br   Isotropic =  2097.7092   Anisotropy =  1280.3533
   XX=  2900.3348   YX=  -247.4162   ZX=     0.0010
   XY=  -244.4337   YY=  1764.0942   ZY=    -0.0003
   XZ=     0.0012   YZ=     0.0011   ZZ=  1628.6988
   Eigenvalues:  1628.6988  1713.1509  2951.2781
      2  C    Isotropic =    46.4199   Anisotropy =   114.0708
   XX=   -41.1655   YX=    19.9009   ZX=    -0.0001
   XY=    19.9114   YY=    57.9581   ZY=     0.0000
   XZ=    -0.0006   YZ=     0.0002   ZZ=   122.4671
   Eigenvalues:   -45.0136    61.8063   122.4671
      3  C    Isotropic =    52.8621   Anisotropy =   155.0720
   XX=     8.5784   YX=   -45.6901   ZX=    -0.0001
   XY=   -50.6566   YY=    -6.2355   ZY=    -0.0002
   XZ=    -0.0002   YZ=    -0.0004   ZZ=   156.2434
   Eigenvalues:   -47.5680    49.9109   156.2434
      4  C    Isotropic =    62.0234   Anisotropy =   164.1973
   XX=    41.2483   YX=    21.5719   ZX=     0.0000
   XY=    19.5707   YY=   -26.6665   ZY=    -0.0002
   XZ=     0.0003   YZ=    -0.0006   ZZ=   171.4882
   Eigenvalues:   -32.4115    46.9933   171.4882
      5  C    Isotropic =    37.8005   Anisotropy =   173.4640
   XX=   -48.5299   YX=     9.3423   ZX=     0.0004
   XY=    20.3504   YY=     8.4883   ZY=    -0.0001
   XZ=     0.0004   YZ=     0.0002   ZZ=   153.4432
   Eigenvalues:   -52.1639    12.1224   153.4432
      6  C    Isotropic =    35.9775   Anisotropy =   182.3360
   XX=   -21.0313   YX=   -26.0150   ZX=     0.0002
   XY=   -28.6306   YY=   -28.5710   ZY=     0.0003
   XZ=     0.0011   YZ=    -0.0007   ZZ=   157.5348
   Eigenvalues:   -52.3828     2.7805   157.5348
      7  C    Isotropic =    55.4272   Anisotropy =   145.3556
   XX=    43.2852   YX=    23.5841   ZX=     0.0000
   XY=    25.7921   YY=   -29.3345   ZY=     0.0001
   XZ=    -0.0000   YZ=     0.0005   ZZ=   152.3309
   Eigenvalues:   -36.9326    50.8833   152.3309
      8  C    Isotropic =   144.5654   Anisotropy =    26.5958
   XX=   161.8945   YX=    -5.1798   ZX=    -0.0000
   XY=    -0.8863   YY=   139.3791   ZY=    -0.0000
   XZ=    -0.0001   YZ=    -0.0001   ZZ=   132.4226
   Eigenvalues:   132.4226   138.9777   162.2959
      9  C    Isotropic =    46.5144   Anisotropy =   155.8166
   XX=   -59.1210   YX=     6.3490   ZX=    -0.0009
   XY=    28.3593   YY=    48.2721   ZY=     0.0000
   XZ=    -0.0008   YZ=    -0.0006   ZZ=   150.3922
   Eigenvalues:   -61.8557    51.0068   150.3922
     10  C    Isotropic =    48.4557   Anisotropy =   135.2083
   XX=   -36.6575   YX=    54.5374   ZX=     0.0003
   XY=    28.3745   YY=    43.4301   ZY=    -0.0003
   XZ=    -0.0002   YZ=     0.0001   ZZ=   138.5946
   Eigenvalues:   -54.2514    61.0239   138.5946
     11  H    Isotropic =    24.1981   Anisotropy =     9.4634
   XX=    26.2924   YX=    -4.1504   ZX=    -0.0000
   XY=    -3.5869   YY=    26.9559   ZY=     0.0000
   XZ=    -0.0000   YZ=    -0.0000   ZZ=    19.3459
   Eigenvalues:    19.3459    22.7413    30.5070
     12  H    Isotropic =    24.2895   Anisotropy =     5.7525
   XX=    28.0283   YX=     0.8146   ZX=     0.0000
   XY=     0.3522   YY=    24.5875   ZY=    -0.0000
   XZ=     0.0000   YZ=    -0.0000   ZZ=    20.2526
   Eigenvalues:    20.2526    24.4913    28.1245
     13  H    Isotropic =    24.0475   Anisotropy =    10.9237
   XX=    29.9927   YX=     3.2502   ZX=    -0.0000
   XY=     3.2467   YY=    23.4390   ZY=     0.0000
   XZ=     0.0000   YZ=     0.0000   ZZ=    18.7108
   Eigenvalues:    18.7108    22.1017    31.3300
     14  H    Isotropic =    28.3938   Anisotropy =     8.3429
   XX=    28.1864   YX=     0.6103   ZX=    -0.1807
   XY=     0.2014   YY=    28.7558   ZY=    -3.1637
   XZ=    -1.1101   YZ=    -7.5510   ZZ=    28.2391
   Eigenvalues:    23.1269    28.0987    33.9557
     15  H    Isotropic =    28.3938   Anisotropy =     8.3429
   XX=    28.1864   YX=     0.6102   ZX=     0.1807
   XY=     0.2014   YY=    28.7558   ZY=     3.1637
   XZ=     1.1101   YZ=     7.5510   ZZ=    28.2390
   Eigenvalues:    23.1269    28.0987    33.9557
     16  H    Isotropic =    25.0073   Anisotropy =     2.9104
   XX=    24.7209   YX=    -1.2069   ZX=     0.0000
   XY=     0.8347   YY=    26.9320   ZY=     0.0000
   XZ=    -0.0000   YZ=    -0.0000   ZZ=    23.3690
   Eigenvalues:    23.3690    24.7054    26.9475
     17  H    Isotropic =    24.6524   Anisotropy =     4.5961
   XX=    24.7842   YX=     2.7180   ZX=     0.0000
   XY=     0.6832   YY=    26.7302   ZY=    -0.0000
   XZ=    -0.0000   YZ=    -0.0000   ZZ=    22.4428
   Eigenvalues:    22.4428    23.7979    27.7164
 End of Minotr F.D. properties file   721 does not exist.
 End of Minotr F.D. properties file   722 does not exist.
 End of Minotr F.D. properties file   788 does not exist.

 **********************************************************************

            Population analysis using the SCF Density.

 **********************************************************************

 Orbital symmetries:
       Occupied  (A) (A) (A) (A) (A) (A) (A) (A) (A) (A) (A) (A)
                 (A) (A) (A) (A) (A) (A) (A) (A) (A) (A) (A) (A)
                 (A) (A) (A) (A) (A) (A) (A) (A) (A) (A) (A) (A)
                 (A) (A) (A) (A) (A) (A) (A) (A) (A) (A) (A) (A)
       Virtual   (A) (A) (A) (A) (A) (A) (A) (A) (A) (A) (A) (A)
                 (A) (A) (A) (A) (A) (A) (A) (A) (A) (A) (A) (A)
                 (A) (A) (A) (A) (A) (A) (A) (A) (A) (A) (A) (A)
                 (A) (A) (A) (A) (A) (A) (A) (A) (A) (A) (A) (A)
                 (A) (A) (A) (A) (A) (A) (A) (A) (A) (A) (A) (A)
                 (A) (A) (A) (A) (A) (A) (A) (A) (A) (A) (A) (A)
                 (A) (A) (A) (A) (A) (A) (A) (A) (A) (A) (A) (A)
                 (A) (A) (A) (A) (A) (A) (A) (A) (A) (A) (A) (A)
                 (A) (A) (A) (A) (A) (A) (A) (A) (A) (A) (A) (A)
                 (A) (A) (A) (A) (A) (A) (A) (A) (A) (A) (A) (A)
                 (A) (A) (A) (A) (A) (A) (A) (A) (A) (A) (A) (A)
                 (A) (A) (A) (A) (A) (A) (A) (A) (A) (A) (A) (A)
                 (A) (A) (A) (A) (A) (A) (A) (A) (A) (A) (A) (A)
                 (A) (A) (A) (A) (A) (A) (A) (A) (A) (A) (A) (A)
                 (A) (A) (A) (A) (A) (A) (A) (A) (A) (A) (A) (A)
                 (A) (A) (A) (A) (A) (A) (A) (A) (A) (A) (A) (A)
                 (A) (A) (A) (A) (A) (A) (A) (A) (A) (A) (A) (A)
                 (A) (A) (A) (A) (A) (A) (A) (A) (A) (A) (A) (A)
                 (A) (A) (A) (A) (A) (A) (A) (A) (A) (A) (A) (A)
                 (A) (A) (A) (A) (A) (A) (A) (A) (A) (A) (A) (A)
                 (A) (A) (A) (A) (A) (A) (A) (A) (A) (A) (A) (A)
                 (A) (A) (A) (A) (A) (A) (A) (A) (A) (A) (A) (A)
                 (A) (A) (A) (A) (A) (A) (A) (A) (A) (A) (A) (A)
                 (A) (A) (A) (A) (A) (A) (A) (A) (A) (A) (A) (A)
                 (A) (A) (A) (A) (A) (A) (A) (A) (A) (A) (A) (A)
                 (A) (A) (A) (A) (A) (A) (A) (A) (A) (A) (A) (A)
                 (A) (A) (A) (A) (A) (A) (A) (A) (A)
 The electronic state is 1-A.
 Alpha  occ. eigenvalues -- -483.34074 -62.67175 -56.45198 -56.44861 -56.44852
 Alpha  occ. eigenvalues --  -10.29543 -10.25366 -10.25299 -10.25090 -10.25007
 Alpha  occ. eigenvalues --  -10.24909 -10.24785 -10.24686 -10.24470  -8.77580
 Alpha  occ. eigenvalues --   -6.58841  -6.57760  -6.57732  -2.67506  -2.67185
 Alpha  occ. eigenvalues --   -2.67164  -2.66279  -2.66279  -0.92395  -0.87306
 Alpha  occ. eigenvalues --   -0.81408  -0.78826  -0.73759  -0.71992  -0.64103
 Alpha  occ. eigenvalues --   -0.59795  -0.58587  -0.53851  -0.49508  -0.47262
 Alpha  occ. eigenvalues --   -0.47110  -0.45242  -0.44026  -0.40851  -0.40144
 Alpha  occ. eigenvalues --   -0.38559  -0.37255  -0.35876  -0.34328  -0.30136
 Alpha  occ. eigenvalues --   -0.29807  -0.27421  -0.23498
 Alpha virt. eigenvalues --   -0.03485  -0.01841   0.00956   0.03495   0.05527
 Alpha virt. eigenvalues --    0.07498   0.07994   0.09816   0.10157   0.11144
 Alpha virt. eigenvalues --    0.12375   0.13478   0.15286   0.15603   0.16549
 Alpha virt. eigenvalues --    0.18031   0.18595   0.21328   0.21537   0.21751
 Alpha virt. eigenvalues --    0.22628   0.23619   0.24140   0.24927   0.25709
 Alpha virt. eigenvalues --    0.26579   0.27117   0.28054   0.29707   0.29720
 Alpha virt. eigenvalues --    0.30720   0.30947   0.33223   0.33321   0.34592
 Alpha virt. eigenvalues --    0.34799   0.35518   0.36755   0.37446   0.37917
 Alpha virt. eigenvalues --    0.38042   0.38838   0.39894   0.41272   0.42142
 Alpha virt. eigenvalues --    0.42798   0.44122   0.44234   0.45943   0.46651
 Alpha virt. eigenvalues --    0.46764   0.47493   0.49430   0.49617   0.50398
 Alpha virt. eigenvalues --    0.53395   0.55104   0.56765   0.57029   0.59713
 Alpha virt. eigenvalues --    0.59798   0.61481   0.61619   0.63081   0.66011
 Alpha virt. eigenvalues --    0.67215   0.68427   0.68992   0.69632   0.71918
 Alpha virt. eigenvalues --    0.72162   0.74409   0.75317   0.75919   0.78090
 Alpha virt. eigenvalues --    0.79333   0.81439   0.81751   0.83193   0.85356
 Alpha virt. eigenvalues --    0.88907   0.89644   0.92444   0.93811   0.94458
 Alpha virt. eigenvalues --    0.96168   0.97246   0.98363   1.00942   1.01355
 Alpha virt. eigenvalues --    1.03159   1.03684   1.05440   1.05821   1.08346
 Alpha virt. eigenvalues --    1.12494   1.12846   1.14921   1.16731   1.17957
 Alpha virt. eigenvalues --    1.19835   1.20880   1.23474   1.24229   1.25192
 Alpha virt. eigenvalues --    1.25678   1.27875   1.30204   1.31779   1.32786
 Alpha virt. eigenvalues --    1.34485   1.36669   1.36752   1.38115   1.38557
 Alpha virt. eigenvalues --    1.41607   1.41644   1.42827   1.43023   1.47555
 Alpha virt. eigenvalues --    1.48474   1.48486   1.50234   1.51790   1.52419
 Alpha virt. eigenvalues --    1.52768   1.54699   1.55591   1.56102   1.57651
 Alpha virt. eigenvalues --    1.58688   1.60014   1.62059   1.62935   1.63237
 Alpha virt. eigenvalues --    1.65691   1.65744   1.68566   1.68728   1.71518
 Alpha virt. eigenvalues --    1.72430   1.75132   1.75588   1.78058   1.79837
 Alpha virt. eigenvalues --    1.82859   1.83642   1.85980   1.87870   1.88691
 Alpha virt. eigenvalues --    1.89668   1.92708   1.93239   1.96635   1.99298
 Alpha virt. eigenvalues --    1.99563   2.02388   2.03878   2.05782   2.07840
 Alpha virt. eigenvalues --    2.11384   2.13684   2.17773   2.18909   2.20229
 Alpha virt. eigenvalues --    2.20707   2.23141   2.24297   2.28586   2.29912
 Alpha virt. eigenvalues --    2.32027   2.33484   2.35282   2.39823   2.43893
 Alpha virt. eigenvalues --    2.46798   2.48146   2.49901   2.53704   2.53915
 Alpha virt. eigenvalues --    2.54657   2.56578   2.59971   2.62556   2.63790
 Alpha virt. eigenvalues --    2.65274   2.65535   2.67848   2.69600   2.69929
 Alpha virt. eigenvalues --    2.71547   2.73548   2.75052   2.75634   2.78397
 Alpha virt. eigenvalues --    2.80577   2.80757   2.83315   2.84950   2.86085
 Alpha virt. eigenvalues --    2.86364   2.88268   2.89282   2.89436   2.91305
 Alpha virt. eigenvalues --    2.93885   2.94940   2.96345   2.97966   2.98501
 Alpha virt. eigenvalues --    3.00025   3.01864   3.05376   3.07454   3.07811
 Alpha virt. eigenvalues --    3.10042   3.10260   3.10870   3.12301   3.12802
 Alpha virt. eigenvalues --    3.17511   3.18832   3.19928   3.20556   3.20577
 Alpha virt. eigenvalues --    3.21416   3.23884   3.24346   3.26731   3.27009
 Alpha virt. eigenvalues --    3.32054   3.32202   3.34303   3.34512   3.35791
 Alpha virt. eigenvalues --    3.36049   3.39982   3.43323   3.45100   3.45109
 Alpha virt. eigenvalues --    3.47063   3.47266   3.50572   3.50762   3.51688
 Alpha virt. eigenvalues --    3.52940   3.53300   3.57624   3.57948   3.58978
 Alpha virt. eigenvalues --    3.62726   3.62928   3.67417   3.67567   3.71698
 Alpha virt. eigenvalues --    3.76292   3.78364   3.81656   3.82633   3.87925
 Alpha virt. eigenvalues --    3.88470   3.91083   3.93939   3.96897   3.97483
 Alpha virt. eigenvalues --    4.03184   4.03277   4.06053   4.09373   4.11224
 Alpha virt. eigenvalues --    4.12924   4.13650   4.17696   4.19166   4.21176
 Alpha virt. eigenvalues --    4.23594   4.26047   4.27770   4.28119   4.31429
 Alpha virt. eigenvalues --    4.31868   4.36322   4.36429   4.38442   4.43752
 Alpha virt. eigenvalues --    4.44279   4.45936   4.48544   4.51216   4.58870
 Alpha virt. eigenvalues --    4.64387   4.69792   4.70151   4.73582   4.76226
 Alpha virt. eigenvalues --    4.76753   4.78702   4.83488   4.86571   4.90225
 Alpha virt. eigenvalues --    4.98143   5.00539   5.12122   5.14745   5.20394
 Alpha virt. eigenvalues --    5.30498   5.40173   5.46677   5.55565   5.59654
 Alpha virt. eigenvalues --    5.83414   7.79356  21.98142  22.46520  22.63624
 Alpha virt. eigenvalues --   22.75199  22.79003  22.91247  22.92578  23.06300
 Alpha virt. eigenvalues --   23.67945
          Condensed to atoms (all electrons):
               1          2          3          4          5          6
     1  Br  34.916257   0.301549  -0.073131   0.017942  -0.000129   0.011913
     2  C    0.301549   4.834633   0.385813   0.078679  -0.092600   0.053267
     3  C   -0.073131   0.385813   5.089943   0.351630   0.041179  -0.113276
     4  C    0.017942   0.078679   0.351630   5.177564   0.416994  -0.007511
     5  C   -0.000129  -0.092600   0.041179   0.416994   4.921698   0.456829
     6  C    0.011913   0.053267  -0.113276  -0.007511   0.456829   5.081298
     7  C   -0.060841   0.376447   0.040127  -0.092654   0.013814   0.298003
     8  C   -0.001453   0.001031   0.003120   0.007609  -0.135190   0.418856
     9  C    0.000108   0.003317  -0.002125   0.005289  -0.037154  -0.076977
    10  C   -0.000116  -0.004305   0.013851  -0.106559   0.355555  -0.079535
    11  H   -0.004284  -0.064446   0.450802  -0.072679   0.013952  -0.002556
    12  H   -0.000471   0.011988  -0.062666   0.453644  -0.070879   0.013821
    13  H   -0.001713  -0.064438   0.015993  -0.004235   0.012688  -0.077992
    14  H    0.000016  -0.000193  -0.000010   0.000062   0.004752  -0.014727
    15  H    0.000016  -0.000193  -0.000010   0.000062   0.004751  -0.014728
    16  H   -0.000000   0.000006   0.000043  -0.000547   0.009756   0.008043
    17  H   -0.000003  -0.000045   0.000011   0.000977  -0.055365   0.007832
               7          8          9         10         11         12
     1  Br  -0.060841  -0.001453   0.000108  -0.000116  -0.004284  -0.000471
     2  C    0.376447   0.001031   0.003317  -0.004305  -0.064446   0.011988
     3  C    0.040127   0.003120  -0.002125   0.013851   0.450802  -0.062666
     4  C   -0.092654   0.007609   0.005289  -0.106559  -0.072679   0.453644
     5  C    0.013814  -0.135190  -0.037154   0.355555   0.013952  -0.070879
     6  C    0.298003   0.418856  -0.076977  -0.079535  -0.002556   0.013821
     7  C    5.346635  -0.091090   0.002519   0.013201   0.014948  -0.002709
     8  C   -0.091090   4.810758   0.341330  -0.016808   0.000265  -0.000662
     9  C    0.002519   0.341330   4.995643   0.614261  -0.000047   0.000254
    10  C    0.013201  -0.016808   0.614261   5.013820  -0.000239  -0.009163
    11  H    0.014948   0.000265  -0.000047  -0.000239   0.545256  -0.008894
    12  H   -0.002709  -0.000662   0.000254  -0.009163  -0.008894   0.563063
    13  H    0.459096  -0.004236  -0.000331  -0.000337  -0.000088   0.000092
    14  H    0.002416   0.362636  -0.006982  -0.007910  -0.000002   0.000029
    15  H    0.002416   0.362638  -0.006984  -0.007909  -0.000002   0.000029
    16  H   -0.000253  -0.048402   0.425229  -0.040702  -0.000000  -0.000024
    17  H   -0.000843   0.013048  -0.048210   0.428127   0.000005   0.002460
              13         14         15         16         17
     1  Br  -0.001713   0.000016   0.000016  -0.000000  -0.000003
     2  C   -0.064438  -0.000193  -0.000193   0.000006  -0.000045
     3  C    0.015993  -0.000010  -0.000010   0.000043   0.000011
     4  C   -0.004235   0.000062   0.000062  -0.000547   0.000977
     5  C    0.012688   0.004752   0.004751   0.009756  -0.055365
     6  C   -0.077992  -0.014727  -0.014728   0.008043   0.007832
     7  C    0.459096   0.002416   0.002416  -0.000253  -0.000843
     8  C   -0.004236   0.362636   0.362638  -0.048402   0.013048
     9  C   -0.000331  -0.006982  -0.006984   0.425229  -0.048210
    10  C   -0.000337  -0.007910  -0.007909  -0.040702   0.428127
    11  H   -0.000088  -0.000002  -0.000002  -0.000000   0.000005
    12  H    0.000092   0.000029   0.000029  -0.000024   0.002460
    13  H    0.544141   0.001125   0.001125  -0.000011   0.000018
    14  H    0.001125   0.568315  -0.029547   0.000307  -0.000356
    15  H    0.001125  -0.029547   0.568316   0.000307  -0.000356
    16  H   -0.000011   0.000307   0.000307   0.530999  -0.006340
    17  H    0.000018  -0.000356  -0.000356  -0.006340   0.541983
 Mulliken charges:
               1
     1  Br  -0.105661
     2  C    0.179492
     3  C   -0.141295
     4  C   -0.226268
     5  C    0.139350
     6  C    0.037441
     7  C   -0.321234
     8  C   -0.023451
     9  C   -0.209140
    10  C   -0.165230
    11  H    0.128009
    12  H    0.110090
    13  H    0.119105
    14  H    0.120071
    15  H    0.120070
    16  H    0.121592
    17  H    0.117058
 Sum of Mulliken charges =  -0.00000
 Mulliken charges with hydrogens summed into heavy atoms:
               1
     1  Br  -0.105661
     2  C    0.179492
     3  C   -0.013286
     4  C   -0.116178
     5  C    0.139350
     6  C    0.037441
     7  C   -0.202129
     8  C    0.216690
     9  C   -0.087547
    10  C   -0.048172
 Electronic spatial extent (au):  <R**2>=           2427.1267
 Charge=             -0.0000 electrons
 Dipole moment (field-independent basis, Debye):
    X=             -2.4238    Y=             -0.2422    Z=              0.0000  Tot=              2.4359
 Quadrupole moment (field-independent basis, Debye-Ang):
   XX=            -66.4280   YY=            -62.6323   ZZ=            -73.8793
   XY=              1.7995   XZ=             -0.0000   YZ=             -0.0000
 Traceless Quadrupole moment (field-independent basis, Debye-Ang):
   XX=              1.2186   YY=              5.0142   ZZ=             -6.2328
   XY=              1.7995   XZ=             -0.0000   YZ=             -0.0000
 Octapole moment (field-independent basis, Debye-Ang**2):
  XXX=             58.3426  YYY=             -2.1717  ZZZ=              0.0000  XYY=             17.8149
  XXY=             -6.1448  XXZ=              0.0000  XZZ=             32.6821  YZZ=             -6.3458
  YYZ=              0.0000  XYZ=             -0.0000
 Hexadecapole moment (field-independent basis, Debye-Ang**3):
 XXXX=          -2169.9705 YYYY=           -474.0374 ZZZZ=            -91.5965 XXXY=            -10.3243
 XXXZ=              0.0002 YYYX=            -19.0003 YYYZ=              0.0000 ZZZX=             -0.0001
 ZZZY=             -0.0000 XXYY=           -437.4818 XXZZ=           -429.7099 YYZZ=           -104.7930
 XXYZ=              0.0001 YYXZ=             -0.0001 ZZXY=              1.0305
 N-N= 6.835143613449D+02 E-N=-8.325028000347D+03  KE= 2.916207994301D+03
 Unable to Open any file for archive entry.
 1\1\GINC-DYNAMO\SP\RmPW1PW91\def2TZVP\C9H7Br1\RPATON\23-Sep-2024\0\\# 
 nmr=giao mpw1pw91/def2tzvp\\arbr37_wb97xd_nmrcreated by GaussianPrep\\
 0,1\Br,0,-2.650448,-0.217866,0.\C,0,-0.790863,0.159546,0.000001\C,0,-0
 .370512,1.482045,0.\C,0,0.986053,1.774538,0.\C,0,1.899229,0.732122,0.0
 00001\C,0,1.457173,-0.595565,0.000001\C,0,0.110502,-0.896716,0.000001\
 C,0,2.651992,-1.506694,-0.000003\C,0,3.801117,-0.53759,0.000004\C,0,3.
 362063,0.724202,-0.000002\H,0,-1.10177,2.278609,-0.000001\H,0,1.315643
 ,2.806098,-0.000001\H,0,-0.24205,-1.919872,0.\H,0,2.669656,-2.159459,-
 0.878009\H,0,2.669656,-2.159467,0.877998\H,0,4.835907,-0.848559,0.0000
 06\H,0,3.978116,1.612604,-0.000003\\Version=ES64L-G16RevC.01\State=1-A
 \HF=-2921.5493315\RMSD=3.684e-09\Dipole=0.9535931,-0.095282,-0.0000031
 \Quadrupole=0.9059638,3.7279502,-4.633914,-1.33787,-0.000007,0.0000008
 \PG=C01 [X(C9H7Br1)]\\@
 The archive entry for this job was punched.


 WE ARE PERHAPS NOT FAR REMOVED FROM THE TIME WHEN WE SHALL BE ABLE TO SUBMIT
 THE BULK OF CHEMICAL PHENOMENA TO CALCULATION.

            -- JOSEPH LOUIS GAY-LUSSAC
               MEMOIRES DE LA SOCIETE D'ARCUEIL, 2, 207 (1808)
 Job cpu time:       0 days  0 hours 30 minutes 54.4 seconds.
 Elapsed time:       0 days  0 hours  1 minutes 21.0 seconds.
 File lengths (MBytes):  RWF=     84 Int=      0 D2E=      0 Chk=     12 Scr=      1
 Normal termination of Gaussian 16 at Mon Sep 23 23:40:49 2024.
