Job Start Time: Mon Jan 29 15:11:05 MST 2024
SLURM Job ID: 229828
SLURM Job Name: Ac2_rdkit_conf_4_SP_charge
 Entering Gaussian System, Link 0=/opt/apps/Gaussian/G16C/g16/g16
 Initial command:
 /opt/apps/Gaussian/G16C/g16/l1.exe "/tmp/Gau-1831814.inp" -scrdir="/tmp/"
 Entering Link 1 = /opt/apps/Gaussian/G16C/g16/l1.exe PID=   1831816.
  
 Copyright (c) 1988-2019, Gaussian, Inc.  All Rights Reserved.
  
 This is part of the Gaussian(R) 16 program.  It is based on
 the Gaussian(R) 09 system (copyright 2009, Gaussian, Inc.),
 the Gaussian(R) 03 system (copyright 2003, Gaussian, Inc.),
 the Gaussian(R) 98 system (copyright 1998, Gaussian, Inc.),
 the Gaussian(R) 94 system (copyright 1995, Gaussian, Inc.),
 the Gaussian 92(TM) system (copyright 1992, Gaussian, Inc.),
 the Gaussian 90(TM) system (copyright 1990, Gaussian, Inc.),
 the Gaussian 88(TM) system (copyright 1988, Gaussian, Inc.),
 the Gaussian 86(TM) system (copyright 1986, Carnegie Mellon
 University), and the Gaussian 82(TM) system (copyright 1983,
 Carnegie Mellon University). Gaussian is a federally registered
 trademark of Gaussian, Inc.
  
 This software contains proprietary and confidential information,
 including trade secrets, belonging to Gaussian, Inc.
  
 This software is provided under written license and may be
 used, copied, transmitted, or stored only in accord with that
 written license.
  
 The following legend is applicable only to US Government
 contracts under FAR:
  
                    RESTRICTED RIGHTS LEGEND
  
 Use, reproduction and disclosure by the US Government is
 subject to restrictions as set forth in subparagraphs (a)
 and (c) of the Commercial Computer Software - Restricted
 Rights clause in FAR 52.227-19.
  
 Gaussian, Inc.
 340 Quinnipiac St., Bldg. 40, Wallingford CT 06492
  
  
 ---------------------------------------------------------------
 Warning -- This program may not be used in any manner that
 competes with the business of Gaussian, Inc. or will provide
 assistance to any competitor of Gaussian, Inc.  The licensee
 of this program is prohibited from giving any competitor of
 Gaussian, Inc. access to this program.  By using this program,
 the user acknowledges that Gaussian, Inc. is engaged in the
 business of creating and licensing software in the field of
 computational chemistry and represents and warrants to the
 licensee that it is not a competitor of Gaussian, Inc. and that
 it will not use this program in any manner prohibited above.
 ---------------------------------------------------------------
  

 Cite this work as:
 Gaussian 16, Revision C.01,
 M. J. Frisch, G. W. Trucks, H. B. Schlegel, G. E. Scuseria, 
 M. A. Robb, J. R. Cheeseman, G. Scalmani, V. Barone, 
 G. A. Petersson, H. Nakatsuji, X. Li, M. Caricato, A. V. Marenich, 
 J. Bloino, B. G. Janesko, R. Gomperts, B. Mennucci, H. P. Hratchian, 
 J. V. Ortiz, A. F. Izmaylov, J. L. Sonnenberg, D. Williams-Young, 
 F. Ding, F. Lipparini, F. Egidi, J. Goings, B. Peng, A. Petrone, 
 T. Henderson, D. Ranasinghe, V. G. Zakrzewski, J. Gao, N. Rega, 
 G. Zheng, W. Liang, M. Hada, M. Ehara, K. Toyota, R. Fukuda, 
 J. Hasegawa, M. Ishida, T. Nakajima, Y. Honda, O. Kitao, H. Nakai, 
 T. Vreven, K. Throssell, J. A. Montgomery, Jr., J. E. Peralta, 
 F. Ogliaro, M. J. Bearpark, J. J. Heyd, E. N. Brothers, K. N. Kudin, 
 V. N. Staroverov, T. A. Keith, R. Kobayashi, J. Normand, 
 K. Raghavachari, A. P. Rendell, J. C. Burant, S. S. Iyengar, 
 J. Tomasi, M. Cossi, J. M. Millam, M. Klene, C. Adamo, R. Cammi, 
 J. W. Ochterski, R. L. Martin, K. Morokuma, O. Farkas, 
 J. B. Foresman, and D. J. Fox, Gaussian, Inc., Wallingford CT, 2019.
 
 ******************************************
 Gaussian 16:  AS64L-G16RevC.01  3-Jul-2019
                29-Jan-2024 
 ******************************************
 %nprocshared=8
 Will use up to    8 processors via shared memory.
 %mem=16GB
 --------------------------------------
 # pop=(nbo6, hirshfeld) m062x/def2tzvp
 --------------------------------------
 1/38=1,172=1/1;
 2/12=2,17=6,18=5,40=1/2;
 3/5=44,7=101,11=2,25=1,30=1,74=-55/1,2,3;
 4//1;
 5/5=2,38=5/2;
 6/7=2,8=2,9=2,10=2,28=1,40=1,79=1,113=1,114=1,124=3103,126=1/1,12;
 99/5=1,9=1/99;
 --------------------------
 Ac2_rdkit_conf_4_SP_charge
 --------------------------
 Symbolic Z-matrix:
 Charge =  0 Multiplicity = 1
 C                    -3.30886   1.53999   0.00047 
 C                    -2.60312   0.19257   0.00003 
 C                    -2.94261  -0.5869    1.2632 
 C                    -2.94307  -0.5863   -1.26339 
 O                    -1.19626   0.56495  -0.0001 
 C                    -0.24297  -0.37789  -0.00022 
 O                    -0.41661  -1.57534  -0.00001 
 N                     0.9847    0.19552  -0.00014 
 C                     2.16116  -0.622    -0.00006 
 C                     3.3791    0.2613   -0.00004 
 O                     3.36119   1.45984  -0.00003 
 O                     4.50615  -0.46066   0.00016 
 H                    -3.03263   2.1125    0.88615 
 H                    -4.38889   1.39249   0.00062 
 H                    -3.03293   2.11291  -0.88503 
 H                    -2.46069  -1.56127   1.26641 
 H                    -2.62628  -0.02652   2.1443 
 H                    -4.02334  -0.72627   1.31664 
 H                    -2.627    -0.02552  -2.14433 
 H                    -4.02382  -0.72558  -1.31653 
 H                    -2.46121  -1.56069  -1.26722 
 H                     1.08896   1.19779  -0.0002 
 H                     2.20548  -1.27596  -0.87545 
 H                     2.20541  -1.27591   0.87537 
 H                     5.25052   0.15849   0.00023 
 
                          Input orientation:                          
 ---------------------------------------------------------------------
 Center     Atomic      Atomic             Coordinates (Angstroms)
 Number     Number       Type             X           Y           Z
 ---------------------------------------------------------------------
      1          6           0       -3.308862    1.539993    0.000472
      2          6           0       -2.603121    0.192574    0.000031
      3          6           0       -2.942612   -0.586903    1.263197
      4          6           0       -2.943069   -0.586303   -1.263386
      5          8           0       -1.196259    0.564946   -0.000103
      6          6           0       -0.242965   -0.377887   -0.000222
      7          8           0       -0.416612   -1.575343   -0.000014
      8          7           0        0.984700    0.195520   -0.000139
      9          6           0        2.161161   -0.621998   -0.000062
     10          6           0        3.379096    0.261295   -0.000041
     11          8           0        3.361191    1.459841   -0.000029
     12          8           0        4.506147   -0.460661    0.000158
     13          1           0       -3.032631    2.112495    0.886151
     14          1           0       -4.388890    1.392494    0.000621
     15          1           0       -3.032934    2.112914   -0.885031
     16          1           0       -2.460693   -1.561266    1.266412
     17          1           0       -2.626275   -0.026517    2.144299
     18          1           0       -4.023335   -0.726266    1.316636
     19          1           0       -2.626995   -0.025521   -2.144331
     20          1           0       -4.023818   -0.725578   -1.316533
     21          1           0       -2.461207   -1.560689   -1.267221
     22          1           0        1.088965    1.197792   -0.000203
     23          1           0        2.205485   -1.275955   -0.875452
     24          1           0        2.205408   -1.275905    0.875368
     25          1           0        5.250519    0.158486    0.000230
 ---------------------------------------------------------------------
                    Distance matrix (angstroms):
                    1          2          3          4          5
     1  C    0.000000
     2  C    1.521055   0.000000
     3  C    2.500460   1.522638   0.000000
     4  C    2.500455   1.522641   2.526583   0.000000
     5  O    2.326759   1.455308   2.443856   2.443891   0.000000
     6  C    3.616350   2.428119   2.987977   2.988241   1.340785
     7  O    4.250933   2.811824   2.992222   2.992874   2.277869
     8  N    4.499142   3.587822   4.199046   4.199334   2.212026
     9  C    5.881782   4.833416   5.257904   5.258367   3.561054
    10  C    6.809101   5.982612   6.502246   6.502633   4.585420
    11  O    6.670535   6.097457   6.747061   6.747331   4.644479
    12  O    8.067031   7.139216   7.556138   7.556663   5.793902
    13  H    1.090179   2.157727   2.727089   3.451383   2.559808
    14  H    1.090053   2.151460   2.757504   2.757490   3.298140
    15  H    1.090179   2.157726   3.451384   2.727086   2.559820
    16  H    3.455402   2.167939   1.087032   2.753746   2.779142
    17  H    2.741509   2.155556   1.091074   3.467858   2.644472
    18  H    2.716374   2.143531   1.090981   2.800550   3.375409
    19  H    2.741525   2.155556   3.467854   1.091074   2.644498
    20  H    2.716335   2.143531   2.800579   1.090981   3.375430
    21  H    3.455401   2.167948   2.753729   1.087030   2.779210
    22  H    4.411121   3.826482   4.586385   4.586494   2.371232
    23  H    6.253385   5.103503   5.617074   5.209004   3.965730
    24  H    6.253151   5.103391   5.208382   5.617529   3.965668
    25  H    8.670154   7.853714   8.323346   8.323840   6.459579
                    6          7          8          9         10
     6  C    0.000000
     7  O    1.209981   0.000000
     8  N    1.354975   2.258236   0.000000
     9  C    2.416488   2.748414   1.432619   0.000000
    10  C    3.678027   4.216709   2.395299   1.504517   0.000000
    11  O    4.045638   4.846043   2.691880   2.402941   1.198680
    12  O    4.749833   5.047383   3.582061   2.350530   1.338456
    13  H    3.843162   4.607493   4.538640   5.936186   6.732200
    14  H    4.508098   4.958533   5.505290   6.852835   7.849918
    15  H    3.843293   4.607780   4.538812   5.936458   6.732446
    16  H    2.814794   2.404641   4.069543   4.883412   6.247301
    17  H    3.225306   3.446672   4.205598   5.279434   6.383221
    18  H    4.018293   3.932296   5.259658   6.323967   7.583199
    19  H    3.225673   3.447584   4.206038   5.280162   6.383837
    20  H    4.018509   3.932843   5.259902   6.324381   7.583548
    21  H    2.815121   2.405493   4.069895   4.883965   6.247760
    22  H    2.063202   3.155478   1.007681   2.112165   2.474212
    23  H    2.750902   2.780543   2.102790   1.093587   2.122933
    24  H    2.750932   2.780458   2.102791   1.093586   2.122939
    25  H    5.519607   5.926427   4.265980   3.186422   1.874245
                   11         12         13         14         15
    11  O    0.000000
    12  O    2.235901   0.000000
    13  H    6.487853   8.014942   0.000000
    14  H    7.750374   9.086026   1.772570   0.000000
    15  H    6.488033   8.015272   1.771182   1.772569   0.000000
    16  H    6.680217   7.166002   3.737410   3.747648   4.296017
    17  H    6.531244   7.460380   2.514644   3.117011   3.730868
    18  H    7.813059   8.634566   3.037330   2.520847   3.726818
    19  H    6.531669   7.461226   3.730881   3.117027   2.514662
    20  H    7.813296   8.635054   3.726785   2.520794   3.037282
    21  H    6.680546   7.166612   4.296023   3.747623   3.737419
    22  H    2.287287   3.798368   4.313915   5.481314   4.313980
    23  H    3.096224   2.593153   6.482492   7.167559   6.239035
    24  H    3.096201   2.593071   6.238463   7.167308   6.482540
    25  H    2.294141   0.968211   8.556494   9.718075   8.556814
                   16         17         18         19         20
    16  H    0.000000
    17  H    1.775826   0.000000
    18  H    1.772455   1.768177   0.000000
    19  H    3.744240   4.288630   3.797249   0.000000
    20  H    3.132625   3.797258   2.633169   1.768175   0.000000
    21  H    2.533633   3.744249   3.132543   1.775823   1.772455
    22  H    4.670844   4.461035   5.618868   4.461181   5.618952
    23  H    5.142198   5.833172   6.626131   5.150389   6.269105
    24  H    4.691145   5.149400   6.268497   5.833880   6.626503
    25  H    8.001472   8.165485   9.408511   8.166286   9.408972
                   21         22         23         24         25
    21  H    0.000000
    22  H    4.671003   0.000000
    23  H    4.691756   2.851684   0.000000
    24  H    5.142867   2.851709   1.750820   0.000000
    25  H    8.002044   4.289369   3.478027   3.477937   0.000000
 Stoichiometry    C7H13NO4
 Framework group  C1[X(C7H13NO4)]
 Deg. of freedom    69
 Full point group                 C1      NOp   1
 Largest Abelian subgroup         C1      NOp   1
 Largest concise Abelian subgroup C1      NOp   1
                         Standard orientation:                         
 ---------------------------------------------------------------------
 Center     Atomic      Atomic             Coordinates (Angstroms)
 Number     Number       Type             X           Y           Z
 ---------------------------------------------------------------------
      1          6           0        3.308862    1.539993   -0.000472
      2          6           0        2.603121    0.192574   -0.000031
      3          6           0        2.942612   -0.586903   -1.263197
      4          6           0        2.943069   -0.586303    1.263386
      5          8           0        1.196259    0.564946    0.000103
      6          6           0        0.242965   -0.377887    0.000222
      7          8           0        0.416612   -1.575343    0.000014
      8          7           0       -0.984700    0.195520    0.000139
      9          6           0       -2.161161   -0.621998    0.000062
     10          6           0       -3.379096    0.261295    0.000041
     11          8           0       -3.361191    1.459841    0.000029
     12          8           0       -4.506147   -0.460661   -0.000158
     13          1           0        3.032631    2.112495   -0.886151
     14          1           0        4.388890    1.392494   -0.000621
     15          1           0        3.032934    2.112914    0.885031
     16          1           0        2.460693   -1.561266   -1.266412
     17          1           0        2.626275   -0.026517   -2.144299
     18          1           0        4.023335   -0.726266   -1.316636
     19          1           0        2.626995   -0.025521    2.144331
     20          1           0        4.023818   -0.725578    1.316533
     21          1           0        2.461207   -1.560689    1.267221
     22          1           0       -1.088965    1.197792    0.000203
     23          1           0       -2.205485   -1.275955    0.875452
     24          1           0       -2.205408   -1.275905   -0.875368
     25          1           0       -5.250519    0.158486   -0.000230
 ---------------------------------------------------------------------
 Rotational constants (GHZ):           2.4510163           0.3742939           0.3505770
 Standard basis: def2TZVP (5D, 7F)
 There are   510 symmetry adapted cartesian basis functions of A   symmetry.
 There are   450 symmetry adapted basis functions of A   symmetry.
   450 basis functions,   716 primitive gaussians,   510 cartesian basis functions
    47 alpha electrons       47 beta electrons
       nuclear repulsion energy       744.8979756228 Hartrees.
 NAtoms=   25 NActive=   25 NUniq=   25 SFac= 1.00D+00 NAtFMM=   60 NAOKFM=F Big=F
 Integral buffers will be    131072 words long.
 Raffenetti 2 integral format.
 Two-electron integral symmetry is turned on.
 One-electron integrals computed using PRISM.
   1 Symmetry operations used in ECPInt.
 ECPInt:  NShTT=   17020 NPrTT=   51024 LenC2=   15381 LenP2D=   34630.
 LDataN:  DoStor=T MaxTD1= 6 Len=  172
 NBasis=   450 RedAO= T EigKep=  1.97D-04  NBF=   450
 NBsUse=   450 1.00D-06 EigRej= -1.00D+00 NBFU=   450
 ExpMin= 9.52D-02 ExpMax= 2.70D+04 ExpMxC= 9.22D+02 IAcc=3 IRadAn=         5 AccDes= 0.00D+00
 Harris functional with IExCor= 1009 and IRadAn=       5 diagonalized for initial guess.
 HarFok:  IExCor= 1009 AccDes= 0.00D+00 IRadAn=         5 IDoV= 1 UseB2=F ITyADJ=14
 ICtDFT=  3500011 ScaDFX=  1.000000  1.000000  1.000000  1.000000
 FoFCou: FMM=F IPFlag=           0 FMFlag=      100000 FMFlg1=           0
         NFxFlg=           0 DoJE=T BraDBF=F KetDBF=T FulRan=T
         wScrn=  0.000000 ICntrl=       500 IOpCl=  0 I1Cent=   200000004 NGrid=           0
         NMat0=    1 NMatS0=      1 NMatT0=    0 NMatD0=    1 NMtDS0=    0 NMtDT0=    0
 Petite list used in FoFCou.
 Requested convergence on RMS density matrix=1.00D-08 within 128 cycles.
 Requested convergence on MAX density matrix=1.00D-06.
 Requested convergence on             energy=1.00D-06.
 No special actions if energy rises.
 Integral accuracy reduced to 1.0D-05 until final iterations.
 Initial convergence to 1.0D-05 achieved.  Increase integral accuracy.
 SCF Done:  E(RM062X) =  -630.271417833     A.U. after   13 cycles
            NFock= 13  Conv=0.96D-08     -V/T= 2.0045

 **********************************************************************

            Population analysis using the SCF Density.

 **********************************************************************

 Orbital symmetries:
       Occupied  (A) (A) (A) (A) (A) (A) (A) (A) (A) (A) (A) (A)
                 (A) (A) (A) (A) (A) (A) (A) (A) (A) (A) (A) (A)
                 (A) (A) (A) (A) (A) (A) (A) (A) (A) (A) (A) (A)
                 (A) (A) (A) (A) (A) (A) (A) (A) (A) (A) (A)
       Virtual   (A) (A) (A) (A) (A) (A) (A) (A) (A) (A) (A) (A)
                 (A) (A) (A) (A) (A) (A) (A) (A) (A) (A) (A) (A)
                 (A) (A) (A) (A) (A) (A) (A) (A) (A) (A) (A) (A)
                 (A) (A) (A) (A) (A) (A) (A) (A) (A) (A) (A) (A)
                 (A) (A) (A) (A) (A) (A) (A) (A) (A) (A) (A) (A)
                 (A) (A) (A) (A) (A) (A) (A) (A) (A) (A) (A) (A)
                 (A) (A) (A) (A) (A) (A) (A) (A) (A) (A) (A) (A)
                 (A) (A) (A) (A) (A) (A) (A) (A) (A) (A) (A) (A)
                 (A) (A) (A) (A) (A) (A) (A) (A) (A) (A) (A) (A)
                 (A) (A) (A) (A) (A) (A) (A) (A) (A) (A) (A) (A)
                 (A) (A) (A) (A) (A) (A) (A) (A) (A) (A) (A) (A)
                 (A) (A) (A) (A) (A) (A) (A) (A) (A) (A) (A) (A)
                 (A) (A) (A) (A) (A) (A) (A) (A) (A) (A) (A) (A)
                 (A) (A) (A) (A) (A) (A) (A) (A) (A) (A) (A) (A)
                 (A) (A) (A) (A) (A) (A) (A) (A) (A) (A) (A) (A)
                 (A) (A) (A) (A) (A) (A) (A) (A) (A) (A) (A) (A)
                 (A) (A) (A) (A) (A) (A) (A) (A) (A) (A) (A) (A)
                 (A) (A) (A) (A) (A) (A) (A) (A) (A) (A) (A) (A)
                 (A) (A) (A) (A) (A) (A) (A) (A) (A) (A) (A) (A)
                 (A) (A) (A) (A) (A) (A) (A) (A) (A) (A) (A) (A)
                 (A) (A) (A) (A) (A) (A) (A) (A) (A) (A) (A) (A)
                 (A) (A) (A) (A) (A) (A) (A) (A) (A) (A) (A) (A)
                 (A) (A) (A) (A) (A) (A) (A) (A) (A) (A) (A) (A)
                 (A) (A) (A) (A) (A) (A) (A) (A) (A) (A) (A) (A)
                 (A) (A) (A) (A) (A) (A) (A) (A) (A) (A) (A) (A)
                 (A) (A) (A) (A) (A) (A) (A) (A) (A) (A) (A) (A)
                 (A) (A) (A) (A) (A) (A) (A) (A) (A) (A) (A) (A)
                 (A) (A) (A) (A) (A) (A) (A) (A) (A) (A) (A) (A)
                 (A) (A) (A) (A) (A) (A) (A) (A) (A) (A) (A) (A)
                 (A) (A) (A) (A) (A) (A) (A) (A) (A) (A) (A) (A)
                 (A) (A) (A) (A) (A) (A) (A) (A) (A) (A) (A) (A)
                 (A) (A) (A) (A) (A) (A) (A) (A) (A) (A) (A) (A)
                 (A) (A) (A) (A) (A) (A) (A) (A) (A) (A) (A) (A)
                 (A) (A) (A) (A) (A) (A) (A)
 The electronic state is 1-A.
 Alpha  occ. eigenvalues --  -19.69267 -19.65915 -19.64017 -19.59515 -14.77281
 Alpha  occ. eigenvalues --  -10.69730 -10.68775 -10.60616 -10.59907 -10.52666
 Alpha  occ. eigenvalues --  -10.52073 -10.52071  -1.26247  -1.23305  -1.16744
 Alpha  occ. eigenvalues --   -1.13755  -1.04684  -0.91680  -0.85680  -0.78792
 Alpha  occ. eigenvalues --   -0.78583  -0.73978  -0.69390  -0.67042  -0.60396
 Alpha  occ. eigenvalues --   -0.59601  -0.59003  -0.57621  -0.56229  -0.55775
 Alpha  occ. eigenvalues --   -0.52720  -0.51863  -0.51850  -0.49140  -0.48850
 Alpha  occ. eigenvalues --   -0.48139  -0.45617  -0.44934  -0.43127  -0.42685
 Alpha  occ. eigenvalues --   -0.42185  -0.41428  -0.40134  -0.38451  -0.36479
 Alpha  occ. eigenvalues --   -0.34961  -0.32935
 Alpha virt. eigenvalues --    0.03476   0.05385   0.06243   0.08541   0.09169
 Alpha virt. eigenvalues --    0.10550   0.10837   0.11987   0.12364   0.13807
 Alpha virt. eigenvalues --    0.15091   0.15335   0.15733   0.16568   0.17722
 Alpha virt. eigenvalues --    0.18517   0.18663   0.19043   0.20009   0.20604
 Alpha virt. eigenvalues --    0.21454   0.21699   0.22915   0.24068   0.24244
 Alpha virt. eigenvalues --    0.24578   0.25261   0.28984   0.29743   0.31036
 Alpha virt. eigenvalues --    0.31953   0.32026   0.33285   0.33871   0.36482
 Alpha virt. eigenvalues --    0.36793   0.36934   0.37948   0.39048   0.39063
 Alpha virt. eigenvalues --    0.39945   0.40627   0.42419   0.43203   0.44373
 Alpha virt. eigenvalues --    0.45102   0.45709   0.45917   0.46163   0.47078
 Alpha virt. eigenvalues --    0.48556   0.48738   0.48945   0.49499   0.50429
 Alpha virt. eigenvalues --    0.50709   0.51224   0.51519   0.51995   0.52241
 Alpha virt. eigenvalues --    0.53771   0.53846   0.54506   0.55346   0.56130
 Alpha virt. eigenvalues --    0.57475   0.60000   0.60732   0.61066   0.62301
 Alpha virt. eigenvalues --    0.64225   0.64669   0.65151   0.66821   0.67575
 Alpha virt. eigenvalues --    0.68052   0.70815   0.72047   0.73035   0.75490
 Alpha virt. eigenvalues --    0.75980   0.78793   0.79039   0.80860   0.83184
 Alpha virt. eigenvalues --    0.84059   0.85835   0.86625   0.87451   0.88137
 Alpha virt. eigenvalues --    0.89638   0.90135   0.92112   0.92892   0.94370
 Alpha virt. eigenvalues --    0.98615   0.99631   0.99666   1.01610   1.02842
 Alpha virt. eigenvalues --    1.03854   1.04984   1.05866   1.06381   1.09581
 Alpha virt. eigenvalues --    1.12270   1.12992   1.13027   1.14436   1.16341
 Alpha virt. eigenvalues --    1.16752   1.19347   1.21723   1.26272   1.26445
 Alpha virt. eigenvalues --    1.29059   1.31489   1.31818   1.33910   1.35352
 Alpha virt. eigenvalues --    1.37502   1.39566   1.41719   1.43458   1.45644
 Alpha virt. eigenvalues --    1.45801   1.46289   1.46892   1.49675   1.51552
 Alpha virt. eigenvalues --    1.53128   1.55123   1.56489   1.57242   1.58292
 Alpha virt. eigenvalues --    1.59369   1.59530   1.60509   1.63194   1.63486
 Alpha virt. eigenvalues --    1.63718   1.65264   1.65343   1.66609   1.67166
 Alpha virt. eigenvalues --    1.68056   1.68925   1.69877   1.71746   1.72190
 Alpha virt. eigenvalues --    1.75203   1.77333   1.79276   1.81433   1.81442
 Alpha virt. eigenvalues --    1.82998   1.83651   1.86108   1.86719   1.88795
 Alpha virt. eigenvalues --    1.91781   1.93539   1.93739   1.96294   1.97531
 Alpha virt. eigenvalues --    1.98263   2.02243   2.03187   2.04270   2.05964
 Alpha virt. eigenvalues --    2.06559   2.09580   2.12032   2.12691   2.14553
 Alpha virt. eigenvalues --    2.14938   2.16073   2.16362   2.17836   2.18908
 Alpha virt. eigenvalues --    2.20880   2.21602   2.22951   2.24769   2.27027
 Alpha virt. eigenvalues --    2.28100   2.28685   2.30656   2.31560   2.32744
 Alpha virt. eigenvalues --    2.35118   2.35533   2.37447   2.37687   2.38584
 Alpha virt. eigenvalues --    2.38930   2.41776   2.42116   2.42702   2.43704
 Alpha virt. eigenvalues --    2.44468   2.44567   2.46981   2.49141   2.50176
 Alpha virt. eigenvalues --    2.51877   2.55298   2.56236   2.56503   2.57900
 Alpha virt. eigenvalues --    2.60421   2.60669   2.62038   2.62993   2.63140
 Alpha virt. eigenvalues --    2.65025   2.66825   2.68013   2.69536   2.69771
 Alpha virt. eigenvalues --    2.72618   2.76294   2.76900   2.79675   2.80440
 Alpha virt. eigenvalues --    2.82143   2.82410   2.84305   2.87175   2.87760
 Alpha virt. eigenvalues --    2.88282   2.89343   2.91931   2.92842   2.94487
 Alpha virt. eigenvalues --    2.98250   2.98873   3.00328   3.02994   3.04006
 Alpha virt. eigenvalues --    3.05173   3.06334   3.08707   3.10909   3.11809
 Alpha virt. eigenvalues --    3.13311   3.13454   3.15260   3.15438   3.16539
 Alpha virt. eigenvalues --    3.17468   3.20367   3.21079   3.21866   3.22328
 Alpha virt. eigenvalues --    3.22375   3.23461   3.24707   3.27952   3.28365
 Alpha virt. eigenvalues --    3.28439   3.30324   3.32508   3.34500   3.34510
 Alpha virt. eigenvalues --    3.34923   3.35451   3.36410   3.37726   3.38602
 Alpha virt. eigenvalues --    3.39948   3.40019   3.41411   3.41705   3.43002
 Alpha virt. eigenvalues --    3.45632   3.47526   3.47697   3.49743   3.52432
 Alpha virt. eigenvalues --    3.54116   3.57220   3.60605   3.61879   3.62742
 Alpha virt. eigenvalues --    3.65289   3.67242   3.67923   3.71587   3.73153
 Alpha virt. eigenvalues --    3.74012   3.77088   3.78852   3.82481   3.84150
 Alpha virt. eigenvalues --    3.84873   3.91506   3.95690   3.96726   4.00245
 Alpha virt. eigenvalues --    4.02618   4.03881   4.04830   4.05896   4.10330
 Alpha virt. eigenvalues --    4.11216   4.13041   4.13478   4.16293   4.18912
 Alpha virt. eigenvalues --    4.23508   4.29643   4.30764   4.36058   4.36364
 Alpha virt. eigenvalues --    4.38255   4.41762   4.42374   4.46571   4.47856
 Alpha virt. eigenvalues --    4.47911   4.50181   4.55206   4.57105   4.61379
 Alpha virt. eigenvalues --    4.69152   4.69362   4.72729   4.74380   4.80762
 Alpha virt. eigenvalues --    4.81879   4.85519   4.88600   4.91346   4.97406
 Alpha virt. eigenvalues --    5.04662   5.09399   5.14777   5.17679   5.19998
 Alpha virt. eigenvalues --    5.21104   5.25807   5.26103   5.29934   5.33022
 Alpha virt. eigenvalues --    5.36885   5.38605   5.39724   5.44706   5.49228
 Alpha virt. eigenvalues --    5.49547   5.53377   5.59725   5.61922   5.71098
 Alpha virt. eigenvalues --    5.73846   5.76077   5.81909   5.88032   5.88810
 Alpha virt. eigenvalues --    5.95351   6.05758   6.16451   6.19078   6.20535
 Alpha virt. eigenvalues --    6.21886   6.28807   6.29855   6.37123   6.41056
 Alpha virt. eigenvalues --    6.42425   6.43735   6.48074   6.56544   6.65383
 Alpha virt. eigenvalues --    6.67512   6.69023   6.71911   6.75704   6.79465
 Alpha virt. eigenvalues --    6.80495   6.88289   6.95242   6.96268   7.08091
 Alpha virt. eigenvalues --    7.09205   7.11211   7.18154   7.30831   7.42221
 Alpha virt. eigenvalues --    7.45492  22.50989  22.54372  22.56279  22.65658
 Alpha virt. eigenvalues --   22.76268  23.35141  23.69175  32.61893  43.93951
 Alpha virt. eigenvalues --   43.98572  44.11038  44.61646
          Condensed to atoms (all electrons):
               1          2          3          4          5          6
     1  C    5.157042   0.309701  -0.098894  -0.098903  -0.056267  -0.002873
     2  C    0.309701   5.056067   0.296068   0.296122   0.173994  -0.048200
     3  C   -0.098894   0.296068   5.243083  -0.096100  -0.043504  -0.006836
     4  C   -0.098903   0.296122  -0.096100   5.242964  -0.043480  -0.006828
     5  O   -0.056267   0.173994  -0.043504  -0.043480   8.058456   0.373939
     6  C   -0.002873  -0.048200  -0.006836  -0.006828   0.373939   4.221073
     7  O    0.001590   0.044982  -0.030753  -0.030743  -0.077812   0.605055
     8  N    0.000288   0.010762  -0.001939  -0.001936  -0.107604   0.424261
     9  C   -0.000047  -0.000809   0.000117   0.000117   0.005113  -0.042783
    10  C   -0.000010  -0.000100   0.000009   0.000009   0.000310   0.005235
    11  O    0.000002  -0.000012   0.000001   0.000001   0.000005   0.001969
    12  O    0.000000  -0.000001   0.000000   0.000000   0.000001  -0.000063
    13  H    0.404400  -0.028935  -0.012942   0.014250  -0.000466  -0.000901
    14  H    0.409988  -0.027202  -0.010994  -0.010998   0.005789   0.000537
    15  H    0.404404  -0.028940   0.014249  -0.012941  -0.000467  -0.000900
    16  H    0.012059  -0.025518   0.409408  -0.010321  -0.001916  -0.004859
    17  H   -0.010336  -0.031895   0.397836   0.013560   0.001684  -0.002505
    18  H   -0.014312  -0.023162   0.397753  -0.006702   0.005177   0.001975
    19  H   -0.010335  -0.031903   0.013562   0.397850   0.001684  -0.002510
    20  H   -0.014313  -0.023173  -0.006697   0.397773   0.005177   0.001973
    21  H    0.012061  -0.025503  -0.010331   0.409381  -0.001924  -0.004846
    22  H   -0.000232  -0.000715   0.000284   0.000284   0.008505  -0.029583
    23  H    0.000001  -0.000076   0.000024   0.000027   0.000259  -0.003598
    24  H    0.000001  -0.000077   0.000027   0.000024   0.000259  -0.003595
    25  H   -0.000000   0.000000  -0.000000  -0.000000  -0.000000   0.000015
               7          8          9         10         11         12
     1  C    0.001590   0.000288  -0.000047  -0.000010   0.000002   0.000000
     2  C    0.044982   0.010762  -0.000809  -0.000100  -0.000012  -0.000001
     3  C   -0.030753  -0.001939   0.000117   0.000009   0.000001   0.000000
     4  C   -0.030743  -0.001936   0.000117   0.000009   0.000001   0.000000
     5  O   -0.077812  -0.107604   0.005113   0.000310   0.000005   0.000001
     6  C    0.605055   0.424261  -0.042783   0.005235   0.001969  -0.000063
     7  O    7.971830  -0.099747   0.012558   0.003530  -0.000068   0.000010
     8  N   -0.099747   6.693364   0.197361  -0.012635  -0.003756   0.005563
     9  C    0.012558   0.197361   5.132536   0.278268  -0.093216  -0.121083
    10  C    0.003530  -0.012635   0.278268   4.433805   0.636753   0.391400
    11  O   -0.000068  -0.003756  -0.093216   0.636753   7.846026  -0.082166
    12  O    0.000010   0.005563  -0.121083   0.391400  -0.082166   7.906201
    13  H    0.000001  -0.000044   0.000001  -0.000001  -0.000000  -0.000000
    14  H    0.000087   0.000007  -0.000000  -0.000000   0.000000  -0.000000
    15  H    0.000001  -0.000044   0.000001  -0.000001  -0.000000  -0.000000
    16  H    0.007599   0.000265  -0.000006   0.000002   0.000000   0.000000
    17  H   -0.000402   0.000138  -0.000003  -0.000003  -0.000000  -0.000000
    18  H    0.000878   0.000024  -0.000002   0.000000   0.000000  -0.000000
    19  H   -0.000398   0.000137  -0.000003  -0.000003  -0.000000  -0.000000
    20  H    0.000876   0.000024  -0.000002   0.000000   0.000000  -0.000000
    21  H    0.007608   0.000265  -0.000006   0.000002   0.000000   0.000000
    22  H    0.003269   0.370839  -0.038992  -0.008612   0.019407   0.001044
    23  H    0.003562  -0.041899   0.413681  -0.023879   0.001427   0.004207
    24  H    0.003565  -0.041900   0.413679  -0.023885   0.001426   0.004210
    25  H    0.000003  -0.000682   0.018698  -0.025595   0.005428   0.291661
              13         14         15         16         17         18
     1  C    0.404400   0.409988   0.404404   0.012059  -0.010336  -0.014312
     2  C   -0.028935  -0.027202  -0.028940  -0.025518  -0.031895  -0.023162
     3  C   -0.012942  -0.010994   0.014249   0.409408   0.397836   0.397753
     4  C    0.014250  -0.010998  -0.012941  -0.010321   0.013560  -0.006702
     5  O   -0.000466   0.005789  -0.000467  -0.001916   0.001684   0.005177
     6  C   -0.000901   0.000537  -0.000900  -0.004859  -0.002505   0.001975
     7  O    0.000001   0.000087   0.000001   0.007599  -0.000402   0.000878
     8  N   -0.000044   0.000007  -0.000044   0.000265   0.000138   0.000024
     9  C    0.000001  -0.000000   0.000001  -0.000006  -0.000003  -0.000002
    10  C   -0.000001  -0.000000  -0.000001   0.000002  -0.000003   0.000000
    11  O   -0.000000   0.000000  -0.000000   0.000000  -0.000000   0.000000
    12  O   -0.000000  -0.000000  -0.000000   0.000000  -0.000000  -0.000000
    13  H    0.515185  -0.023636  -0.020819  -0.000137   0.002841   0.000624
    14  H   -0.023636   0.535561  -0.023639  -0.000057   0.000823   0.001381
    15  H   -0.020819  -0.023639   0.515189  -0.000376  -0.000380  -0.000026
    16  H   -0.000137  -0.000057  -0.000376   0.467541  -0.020678  -0.019571
    17  H    0.002841   0.000823  -0.000380  -0.020678   0.521381  -0.021380
    18  H    0.000624   0.001381  -0.000026  -0.019571  -0.021380   0.531652
    19  H   -0.000380   0.000823   0.002840  -0.000110  -0.000536  -0.000119
    20  H   -0.000026   0.001381   0.000625   0.000373  -0.000119  -0.000186
    21  H   -0.000376  -0.000056  -0.000137   0.002230  -0.000110   0.000373
    22  H    0.000026   0.000009   0.000026  -0.000062   0.000026  -0.000007
    23  H   -0.000000  -0.000000   0.000000  -0.000017   0.000001  -0.000001
    24  H    0.000000  -0.000000  -0.000000   0.000052  -0.000008   0.000002
    25  H   -0.000000   0.000000  -0.000000  -0.000000  -0.000000   0.000000
              19         20         21         22         23         24
     1  C   -0.010335  -0.014313   0.012061  -0.000232   0.000001   0.000001
     2  C   -0.031903  -0.023173  -0.025503  -0.000715  -0.000076  -0.000077
     3  C    0.013562  -0.006697  -0.010331   0.000284   0.000024   0.000027
     4  C    0.397850   0.397773   0.409381   0.000284   0.000027   0.000024
     5  O    0.001684   0.005177  -0.001924   0.008505   0.000259   0.000259
     6  C   -0.002510   0.001973  -0.004846  -0.029583  -0.003598  -0.003595
     7  O   -0.000398   0.000876   0.007608   0.003269   0.003562   0.003565
     8  N    0.000137   0.000024   0.000265   0.370839  -0.041899  -0.041900
     9  C   -0.000003  -0.000002  -0.000006  -0.038992   0.413681   0.413679
    10  C   -0.000003   0.000000   0.000002  -0.008612  -0.023879  -0.023885
    11  O   -0.000000   0.000000   0.000000   0.019407   0.001427   0.001426
    12  O   -0.000000  -0.000000   0.000000   0.001044   0.004207   0.004210
    13  H   -0.000380  -0.000026  -0.000376   0.000026  -0.000000   0.000000
    14  H    0.000823   0.001381  -0.000056   0.000009  -0.000000  -0.000000
    15  H    0.002840   0.000625  -0.000137   0.000026   0.000000  -0.000000
    16  H   -0.000110   0.000373   0.002230  -0.000062  -0.000017   0.000052
    17  H   -0.000536  -0.000119  -0.000110   0.000026   0.000001  -0.000008
    18  H   -0.000119  -0.000186   0.000373  -0.000007  -0.000001   0.000002
    19  H    0.521370  -0.021380  -0.020681   0.000026  -0.000008   0.000001
    20  H   -0.021380   0.531637  -0.019574  -0.000007   0.000002  -0.000001
    21  H   -0.020681  -0.019574   0.467580  -0.000062   0.000052  -0.000017
    22  H    0.000026  -0.000007  -0.000062   0.399235   0.003001   0.003002
    23  H   -0.000008   0.000002   0.000052   0.003001   0.502497  -0.035408
    24  H    0.000001  -0.000001  -0.000017   0.003002  -0.035408   0.502494
    25  H   -0.000000   0.000000  -0.000000  -0.000184  -0.000660  -0.000660
              25
     1  C   -0.000000
     2  C    0.000000
     3  C   -0.000000
     4  C   -0.000000
     5  O   -0.000000
     6  C    0.000015
     7  O    0.000003
     8  N   -0.000682
     9  C    0.018698
    10  C   -0.025595
    11  O    0.005428
    12  O    0.291661
    13  H   -0.000000
    14  H    0.000000
    15  H   -0.000000
    16  H   -0.000000
    17  H   -0.000000
    18  H    0.000000
    19  H   -0.000000
    20  H    0.000000
    21  H   -0.000000
    22  H   -0.000184
    23  H   -0.000660
    24  H   -0.000660
    25  H    0.369920
 Mulliken charges:
               1
     1  C   -0.405016
     2  C    0.108524
     3  C   -0.453433
     4  C   -0.453411
     5  O   -0.306912
     6  C    0.524849
     7  O   -0.427082
     8  N   -0.391112
     9  C   -0.175177
    10  C    0.345400
    11  O   -0.333228
    12  O   -0.400986
    13  H    0.151336
    14  H    0.140198
    15  H    0.151336
    16  H    0.184101
    17  H    0.150067
    18  H    0.145628
    19  H    0.150074
    20  H    0.145637
    21  H    0.184071
    22  H    0.269468
    23  H    0.176803
    24  H    0.176807
    25  H    0.342056
 Sum of Mulliken charges =  -0.00000
 Mulliken charges with hydrogens summed into heavy atoms:
               1
     1  C    0.037853
     2  C    0.108524
     3  C    0.026363
     4  C    0.026372
     5  O   -0.306912
     6  C    0.524849
     7  O   -0.427082
     8  N   -0.121644
     9  C    0.178434
    10  C    0.345400
    11  O   -0.333228
    12  O   -0.058929
 Electronic spatial extent (au):  <R**2>=           3142.9260
 Charge=             -0.0000 electrons
 Dipole moment (field-independent basis, Debye):
    X=             -0.7270    Y=              0.7117    Z=              0.0002  Tot=              1.0173
 Quadrupole moment (field-independent basis, Debye-Ang):
   XX=            -54.4523   YY=            -80.2813   ZZ=            -71.0661
   XY=              3.3934   XZ=              0.0008   YZ=             -0.0004
 Traceless Quadrupole moment (field-independent basis, Debye-Ang):
   XX=             14.1476   YY=            -11.6814   ZZ=             -2.4662
   XY=              3.3934   XZ=              0.0008   YZ=             -0.0004
 Octapole moment (field-independent basis, Debye-Ang**2):
  XXX=            -87.2652  YYY=              3.9814  ZZZ=             -0.0002  XYY=              2.7034
  XXY=             -0.5915  XXZ=             -0.0038  XZZ=            -11.1360  YZZ=              0.3432
  YYZ=              0.0007  XYZ=              0.0012
 Hexadecapole moment (field-independent basis, Debye-Ang**3):
 XXXX=          -2666.7926 YYYY=           -478.7261 ZZZZ=           -255.9753 XXXY=            -58.4831
 XXXZ=              0.0387 YYYX=             14.5415 YYYZ=              0.0024 ZZZX=              0.0045
 ZZZY=             -0.0006 XXYY=           -694.8201 XXZZ=           -598.4696 YYZZ=           -116.0771
 XXYZ=             -0.0067 YYXZ=              0.0033 ZZXY=              1.7827
 N-N= 7.448979756228D+02 E-N=-2.964825145935D+03  KE= 6.274596270185D+02
 There are a total of      570950 grid points.
 ElSum from          density=       94.0000025347
 ElSum from atomic densities=       94.0000056227
 Hirshfeld populations at iteration   1 (CA, CB, DipXYZ):
               1          2          3          4          5
     1  C    3.044893   3.044893   0.011226  -0.002390  -0.000002
     2  C    2.951836   2.951836  -0.055098   0.004312   0.000013
     3  C    3.047299   3.047299   0.011670  -0.001649   0.002901
     4  C    3.047293   3.047293   0.011667  -0.001664  -0.002907
     5  O    4.070033   4.070033   0.054472  -0.122068  -0.000015
     6  C    2.887049   2.887049   0.030692   0.069607   0.000076
     7  O    4.150499   4.150499   0.020521   0.120561  -0.000039
     8  N    3.551927   3.551927  -0.028697  -0.013695   0.000002
     9  C    2.999347   2.999347   0.025661   0.028720  -0.000004
    10  C    2.890081   2.890081  -0.033750  -0.077106   0.000027
    11  O    4.135804   4.135804   0.027191  -0.108476  -0.000008
    12  O    4.085650   4.085650   0.000249   0.127036   0.000000
    13  H    0.483056   0.483056  -0.029648   0.080907  -0.115584
    14  H    0.482193   0.482193   0.143549  -0.014484  -0.000021
    15  H    0.483057   0.483057  -0.029608   0.080960   0.115554
    16  H    0.483502   0.483502  -0.037421  -0.128583  -0.016865
    17  H    0.483920   0.483920  -0.038317   0.067251  -0.120353
    18  H    0.482647   0.482647   0.141230  -0.023054  -0.010448
    19  H    0.483919   0.483919  -0.038279   0.067306   0.120334
    20  H    0.482643   0.482643   0.141240  -0.023038   0.010412
    21  H    0.483497   0.483497  -0.037438  -0.128584   0.016934
    22  H    0.439426   0.439426   0.006657   0.177782   0.000011
    23  H    0.472474   0.472474  -0.011395  -0.093456   0.123766
    24  H    0.472472   0.472472  -0.011383  -0.093449  -0.123774
    25  H    0.405486   0.405486  -0.193557   0.113481  -0.000022
       Tot  47.000001  47.000001   0.081433   0.106226  -0.000009

 Dip from Atomic Chgs             -0.367460   0.173724   0.000100
         Total Dipole             -0.286027   0.279949   0.000091

 Hirshfeld charges, spin densities, dipoles, and CM5 charges using IRadAn=      5:
              Q-H        S-H        Dx         Dy         Dz        Q-CM5   
     1  C   -0.089787   0.000000   0.011226  -0.002390  -0.000002  -0.234316
     2  C    0.096327   0.000000  -0.055098   0.004312   0.000013   0.086359
     3  C   -0.094598   0.000000   0.011670  -0.001649   0.002901  -0.239163
     4  C   -0.094586   0.000000   0.011667  -0.001664  -0.002907  -0.239153
     5  O   -0.140066   0.000000   0.054472  -0.122068  -0.000015  -0.210098
     6  C    0.225903   0.000000   0.030692   0.069607   0.000076   0.353118
     7  O   -0.300999   0.000000   0.020521   0.120561  -0.000039  -0.351071
     8  N   -0.103855   0.000000  -0.028697  -0.013695   0.000002  -0.460196
     9  C    0.001307   0.000000   0.025661   0.028720  -0.000004  -0.032991
    10  C    0.219839   0.000000  -0.033750  -0.077106   0.000027   0.273672
    11  O   -0.271608   0.000000   0.027191  -0.108476  -0.000008  -0.323982
    12  O   -0.171300   0.000000   0.000249   0.127036   0.000000  -0.369691
    13  H    0.033888   0.000000  -0.029648   0.080907  -0.115584   0.089314
    14  H    0.035613   0.000000   0.143549  -0.014484  -0.000021   0.088920
    15  H    0.033887   0.000000  -0.029608   0.080960   0.115554   0.089312
    16  H    0.032996   0.000000  -0.037421  -0.128583  -0.016865   0.092671
    17  H    0.032161   0.000000  -0.038317   0.067251  -0.120353   0.087426
    18  H    0.034705   0.000000   0.141230  -0.023054  -0.010448   0.088011
    19  H    0.032162   0.000000  -0.038279   0.067306   0.120334   0.087426
    20  H    0.034714   0.000000   0.141240  -0.023038   0.010412   0.088020
    21  H    0.033005   0.000000  -0.037438  -0.128584   0.016934   0.092669
    22  H    0.121149   0.000000   0.006657   0.177782   0.000011   0.327753
    23  H    0.055053   0.000000  -0.011395  -0.093456   0.123766   0.124933
    24  H    0.055057   0.000000  -0.011383  -0.093449  -0.123774   0.124938
    25  H    0.189028   0.000000  -0.193557   0.113481  -0.000022   0.366118
       Tot  -0.000003   0.000000   0.081433   0.106226  -0.000009  -0.000003
 Hirshfeld charges with hydrogens summed into heavy atoms:
              Q-H       Q-CM5   
     1  C    0.013602   0.033230
     2  C    0.096327   0.086359
     3  C    0.005265   0.028944
     4  C    0.005296   0.028962
     5  O   -0.140066  -0.210098
     6  C    0.225903   0.353118
     7  O   -0.300999  -0.351071
     8  N    0.017294  -0.132444
     9  C    0.111416   0.216880
    10  C    0.219839   0.273672
    11  O   -0.271608  -0.323982
    12  O    0.017728  -0.003573
 
 EQQ=  0.00000000000     EQD=  0.00000000000     EDD=-0.826693378893E-03
 EQQ+QD+DD=-0.826693378893E-03
 
 Running external command "gaunbo6 R"
         input file       "/tmp/Gau-1831816.EIn"
         output file      "/tmp/Gau-1831816.EOu"
         message file     "/tmp/Gau-1831816.EMs"
         fchk file        "/tmp/Gau-1831816.EFC"
         mat. el file     "/tmp/Gau-1831816.EUF"

 Writing WrtUnf unformatted file "/tmp/Gau-1831816.EUF"
 Gaussian matrix elements                                         Version   2 NLab=11 Len12L=8 Len4L=8
 Write SHELL TO ATOM MAP                   from file      0 offset           0 length                 184 to matrix element file.
 Write SHELL TYPES                         from file      0 offset           0 length                 184 to matrix element file.
 Write NUMBER OF PRIMITIVES PER SHELL      from file      0 offset           0 length                 184 to matrix element file.
 Write PRIMITIVE EXPONENTS                 from file      0 offset           0 length                 318 to matrix element file.
 Write CONTRACTION COEFFICIENTS            from file      0 offset           0 length                 318 to matrix element file.
 Write P(S=P) CONTRACTION COEFFICIENTS     from file      0 offset           0 length                 318 to matrix element file.
 Write COORDINATES OF EACH SHELL           from file      0 offset           0 length                 552 to matrix element file.
 Write BONDS PER ATOM                      from file      0 offset           0 length                  25 to matrix element file.
 Write BONDED ATOMS                        from file      0 offset           0 length                  48 to matrix element file.
 Write BOND TYPES                          from file      0 offset           0 length                  48 to matrix element file.
 Write ONIOM CHARGE/MULT                   from file      0 offset           0 length                  32 to matrix element file.
 Write ONIOM ATOM LAYERS                   from file      0 offset           0 length                  25 to matrix element file.
 Write ONIOM ATOM MODIFIERS                from file      0 offset           0 length                  25 to matrix element file.
 Write ONIOM ATOM TYPES                    from file      0 offset           0 length                  25 to matrix element file.
 Write ONIOM LINK ATOMS                    from file      0 offset           0 length                  25 to matrix element file.
 Write ONIOM LINK CHARGES                  from file      0 offset           0 length                  25 to matrix element file.
 Write ONIOM LINK DISTANCES                from file      0 offset           0 length                 100 to matrix element file.
 Write SYMINF INTS                         from file      0 offset           0 length                  26 to matrix element file.
 Write ROTTR TO SO                         from file      0 offset           0 length                  12 to matrix element file.
 Write GAUSSIAN SCALARS                    from file    501 offset           0 to matrix element file.
 Write OPTIMIZATION FLAGS                  from file      0 offset           0 length                  25 to matrix element file.
 Write INTEGER ISO                         from file      0 offset           0 length                  25 to matrix element file.
 Write INTEGER SPIN                        from file      0 offset           0 length                  25 to matrix element file.
 Write REAL ZEFFECTIVE                     from file      0 offset           0 length                  25 to matrix element file.
 Write REAL QUADRUPOLEMOMENT               from file      0 offset           0 length                  25 to matrix element file.
 Write REAL GFACTOR                        from file      0 offset           0 length                  25 to matrix element file.
 Write REAL ZNUCLEAR                       from file      0 offset           0 length                  25 to matrix element file.
 Write MULLIKEN CHARGES                    from file      0 offset           0 length                  25 to matrix element file.
 Write TYPE 6 CHARGES                      from file      0 offset           0 length                  25 to matrix element file.
 Write TYPE 7 CHARGES                      from file      0 offset           0 length                  25 to matrix element file.
 Write NUCLEAR GRADIENT                    from file  10584 offset           0 length                  75 to matrix element file.
 Array NUCLEAR FORCE CONSTANTS              on  file  10585 does not exist.
 Write ELECTRIC DIPOLE MOMENT              from file      0 offset           0 length                   3 to matrix element file.
 Write NON-ADIABATIC COUPLING              from file  10810 offset           0 length                  75 to matrix element file.
 Write FINITE EM FIELD                     from file  10521 offset           0 length                  35 to matrix element file.
 Write OVERLAP                             from file  10514 offset           0 length              101475 to matrix element file.
 Write CORE HAMILTONIAN ALPHA              from file  10515 offset           0 length              101475 to matrix element file.
 Write CORE HAMILTONIAN BETA               from file  10515 offset      101475 length              101475 to matrix element file.
 Write KINETIC ENERGY                      from file  10516 offset           0 length              101475 to matrix element file.
 Write ORTHOGONAL BASIS                    from file  10685 offset           0 length              202500 to matrix element file.
 Write DIPOLE INTEGRALS                    from file  10518 offset           0 length              304425 to matrix element file.
 Array DIP VEL INTEGRALS                    on  file  10572 does not exist.
 Array R X DEL INTEGRALS                    on  file  10572 does not exist.
 Write ALPHA ORBITAL ENERGIES              from file      0 offset           0 length                 450 to matrix element file.
 Write ALPHA MO COEFFICIENTS               from file  10524 offset           0 length              202500 to matrix element file.
 Write ALPHA DENSITY MATRIX                from file      0 offset           0 length              101475 to matrix element file.
 Write ALPHA FOCK MATRIX                   from file  10536 offset           0 length              101475 to matrix element file.
 Write ENERGY-WEIGHTED DENSITY             from file  10571 offset           0 length              101475 to matrix element file.
 Write ALPHA SCF DENSITY MATRIX            from file      0 offset           0 length              101475 to matrix element file.
 No 2e integrals to process.
 Perform NBO analysis...

 *********************************** NBO 7.0 ***********************************
             N A T U R A L   A T O M I C   O R B I T A L   A N D
          N A T U R A L   B O N D   O R B I T A L   A N A L Y S I S
 **************************** Robert Paton (I101709) ***************************
  (c) Copyright 1996-2019 Board of Regents of the University of Wisconsin System
      on behalf of the Theoretical Chemistry Institute.  All rights reserved.

          Cite this program [NBO 7.0.5 (4-Jun-2019)] as:

          NBO 7.0.  E. D. Glendening, J. K. Badenhoop, A. E. Reed,
          J. E. Carpenter, J. A. Bohmann, C. M. Morales, P. Karafiloglou,
          C. R. Landis, and F. Weinhold, Theoretical Chemistry Institute,
          University of Wisconsin, Madison, WI (2018)

 Filename set to /tmp/Gau-1831816

 Job title:  Ac2_rdkit_conf_4_SP_charge


 NATURAL POPULATIONS:  Natural atomic orbital occupancies

  NAO Atom No lang   Type(AO)    Occupancy      Energy
 -------------------------------------------------------
   1    C  1  s      Cor( 1s)     1.99999     -10.52654
   2    C  1  s      Val( 2s)     1.10996      -0.23727
   3    C  1  s      Ryd( 3s)     0.00017       1.49777
   4    C  1  s      Ryd( 4s)     0.00003       2.09879
   5    C  1  s      Ryd( 5s)     0.00000      21.51973
   6    C  1  px     Val( 2p)     1.17543      -0.10757
   7    C  1  px     Ryd( 3p)     0.00114       0.87950
   8    C  1  px     Ryd( 4p)     0.00007       1.58617
   9    C  1  py     Val( 2p)     1.09178      -0.09491
  10    C  1  py     Ryd( 3p)     0.00055       0.81961
  11    C  1  py     Ryd( 4p)     0.00016       1.80704
  12    C  1  pz     Val( 2p)     1.22139      -0.11632
  13    C  1  pz     Ryd( 3p)     0.00123       0.90261
  14    C  1  pz     Ryd( 4p)     0.00002       1.50130
  15    C  1  dxy    Ryd( 3d)     0.00146       1.86509
  16    C  1  dxy    Ryd( 4d)     0.00003       3.11651
  17    C  1  dxz    Ryd( 3d)     0.00065       1.59301
  18    C  1  dxz    Ryd( 4d)     0.00002       2.89997
  19    C  1  dyz    Ryd( 3d)     0.00115       1.79637
  20    C  1  dyz    Ryd( 4d)     0.00006       3.26869
  21    C  1  dx2y2  Ryd( 3d)     0.00120       1.86712
  22    C  1  dx2y2  Ryd( 4d)     0.00005       3.24651
  23    C  1  dz2    Ryd( 3d)     0.00171       1.82840
  24    C  1  dz2    Ryd( 4d)     0.00002       3.16763
  25    C  1  f(0)   Ryd( 4f)     0.00001       3.24774
  26    C  1  f(c1)  Ryd( 4f)     0.00016       3.41768
  27    C  1  f(s1)  Ryd( 4f)     0.00041       3.64214
  28    C  1  f(c2)  Ryd( 4f)     0.00005       3.38911
  29    C  1  f(s2)  Ryd( 4f)     0.00002       3.38767
  30    C  1  f(c3)  Ryd( 4f)     0.00037       3.47929
  31    C  1  f(s3)  Ryd( 4f)     0.00003       3.43205

  32    C  2  s      Cor( 1s)     1.99999     -10.60601
  33    C  2  s      Val( 2s)     0.93848      -0.20158
  34    C  2  s      Ryd( 3s)     0.00061       1.94927
  35    C  2  s      Ryd( 4s)     0.00004       2.39107
  36    C  2  s      Ryd( 5s)     0.00000      18.51257
  37    C  2  px     Val( 2p)     0.72003      -0.04554
  38    C  2  px     Ryd( 3p)     0.00252       1.16208
  39    C  2  px     Ryd( 4p)     0.00012       1.31455
  40    C  2  py     Val( 2p)     1.02320      -0.08273
  41    C  2  py     Ryd( 3p)     0.00377       1.29220
  42    C  2  py     Ryd( 4p)     0.00020       1.51226
  43    C  2  pz     Val( 2p)     1.03502      -0.08250
  44    C  2  pz     Ryd( 3p)     0.00151       1.23831
  45    C  2  pz     Ryd( 4p)     0.00007       1.32949
  46    C  2  dxy    Ryd( 4d)     0.00052       3.89132
  47    C  2  dxy    Ryd( 3d)     0.00045       2.08372
  48    C  2  dxz    Ryd( 4d)     0.00061       3.43830
  49    C  2  dxz    Ryd( 3d)     0.00041       1.81241
  50    C  2  dyz    Ryd( 4d)     0.00051       3.93068
  51    C  2  dyz    Ryd( 3d)     0.00024       2.16908
  52    C  2  dx2y2  Ryd( 4d)     0.00060       4.15287
  53    C  2  dx2y2  Ryd( 3d)     0.00033       2.05871
  54    C  2  dz2    Ryd( 4d)     0.00054       4.17449
  55    C  2  dz2    Ryd( 3d)     0.00025       2.36757
  56    C  2  f(0)   Ryd( 4f)     0.00001       3.73275
  57    C  2  f(c1)  Ryd( 4f)     0.00005       3.68354
  58    C  2  f(s1)  Ryd( 4f)     0.00024       3.88200
  59    C  2  f(c2)  Ryd( 4f)     0.00002       3.61817
  60    C  2  f(s2)  Ryd( 4f)     0.00003       3.54989
  61    C  2  f(c3)  Ryd( 4f)     0.00011       3.83360
  62    C  2  f(s3)  Ryd( 4f)     0.00003       3.74302

  63    C  3  s      Cor( 1s)     1.99999     -10.52059
  64    C  3  s      Val( 2s)     1.11340      -0.23328
  65    C  3  s      Ryd( 3s)     0.00025       1.55181
  66    C  3  s      Ryd( 4s)     0.00005       2.09283
  67    C  3  s      Ryd( 5s)     0.00000      21.62313
  68    C  3  px     Val( 2p)     1.20793      -0.11098
  69    C  3  px     Ryd( 3p)     0.00069       0.91157
  70    C  3  px     Ryd( 4p)     0.00008       1.53693
  71    C  3  py     Val( 2p)     1.20077      -0.10669
  72    C  3  py     Ryd( 3p)     0.00108       0.90249
  73    C  3  py     Ryd( 4p)     0.00010       1.58996
  74    C  3  pz     Val( 2p)     1.10698      -0.09312
  75    C  3  pz     Ryd( 3p)     0.00063       0.82910
  76    C  3  pz     Ryd( 4p)     0.00014       1.74304
  77    C  3  dxy    Ryd( 3d)     0.00100       1.67251
  78    C  3  dxy    Ryd( 4d)     0.00003       3.09601
  79    C  3  dxz    Ryd( 3d)     0.00051       1.60314
  80    C  3  dxz    Ryd( 4d)     0.00006       3.01535
  81    C  3  dyz    Ryd( 3d)     0.00193       1.89191
  82    C  3  dyz    Ryd( 4d)     0.00003       3.29869
  83    C  3  dx2y2  Ryd( 3d)     0.00167       1.74743
  84    C  3  dx2y2  Ryd( 4d)     0.00003       3.22700
  85    C  3  dz2    Ryd( 3d)     0.00140       1.81562
  86    C  3  dz2    Ryd( 4d)     0.00004       3.28861
  87    C  3  f(0)   Ryd( 4f)     0.00005       3.40205
  88    C  3  f(c1)  Ryd( 4f)     0.00013       3.48391
  89    C  3  f(s1)  Ryd( 4f)     0.00045       3.55718
  90    C  3  f(c2)  Ryd( 4f)     0.00005       3.32351
  91    C  3  f(s2)  Ryd( 4f)     0.00006       3.36393
  92    C  3  f(c3)  Ryd( 4f)     0.00032       3.63026
  93    C  3  f(s3)  Ryd( 4f)     0.00004       3.26223

  94    C  4  s      Cor( 1s)     1.99999     -10.52060
  95    C  4  s      Val( 2s)     1.11340      -0.23329
  96    C  4  s      Ryd( 3s)     0.00025       1.55197
  97    C  4  s      Ryd( 4s)     0.00005       2.09309
  98    C  4  s      Ryd( 5s)     0.00000      21.62281
  99    C  4  px     Val( 2p)     1.20791      -0.11098
 100    C  4  px     Ryd( 3p)     0.00069       0.91155
 101    C  4  px     Ryd( 4p)     0.00008       1.53684
 102    C  4  py     Val( 2p)     1.20081      -0.10671
 103    C  4  py     Ryd( 3p)     0.00108       0.90257
 104    C  4  py     Ryd( 4p)     0.00010       1.58968
 105    C  4  pz     Val( 2p)     1.10695      -0.09312
 106    C  4  pz     Ryd( 3p)     0.00063       0.82913
 107    C  4  pz     Ryd( 4p)     0.00014       1.74306
 108    C  4  dxy    Ryd( 3d)     0.00100       1.67249
 109    C  4  dxy    Ryd( 4d)     0.00003       3.09592
 110    C  4  dxz    Ryd( 3d)     0.00051       1.60322
 111    C  4  dxz    Ryd( 4d)     0.00006       3.01535
 112    C  4  dyz    Ryd( 3d)     0.00193       1.89180
 113    C  4  dyz    Ryd( 4d)     0.00003       3.29868
 114    C  4  dx2y2  Ryd( 3d)     0.00167       1.74741
 115    C  4  dx2y2  Ryd( 4d)     0.00003       3.22698
 116    C  4  dz2    Ryd( 3d)     0.00140       1.81575
 117    C  4  dz2    Ryd( 4d)     0.00004       3.28861
 118    C  4  f(0)   Ryd( 4f)     0.00005       3.40199
 119    C  4  f(c1)  Ryd( 4f)     0.00013       3.48381
 120    C  4  f(s1)  Ryd( 4f)     0.00045       3.55728
 121    C  4  f(c2)  Ryd( 4f)     0.00005       3.32371
 122    C  4  f(s2)  Ryd( 4f)     0.00006       3.36380
 123    C  4  f(c3)  Ryd( 4f)     0.00032       3.63025
 124    C  4  f(s3)  Ryd( 4f)     0.00004       3.26213

 125    O  5  s      Cor( 1s)     2.00000     -19.65906
 126    O  5  s      Val( 2s)     1.60261      -0.79435
 127    O  5  s      Ryd( 3s)     0.00117       2.19699
 128    O  5  s      Ryd( 4s)     0.00006       7.28890
 129    O  5  s      Ryd( 5s)     0.00000      39.12805
 130    O  5  px     Val( 2p)     1.36955      -0.31220
 131    O  5  px     Ryd( 3p)     0.00127       1.17968
 132    O  5  px     Ryd( 4p)     0.00014       4.04528
 133    O  5  py     Val( 2p)     1.70666      -0.37933
 134    O  5  py     Ryd( 3p)     0.00276       0.84772
 135    O  5  py     Ryd( 4p)     0.00021       3.55209
 136    O  5  pz     Val( 2p)     1.83156      -0.39298
 137    O  5  pz     Ryd( 3p)     0.00340       0.75256
 138    O  5  pz     Ryd( 4p)     0.00006       3.03522
 139    O  5  dxy    Ryd( 3d)     0.00429       2.52180
 140    O  5  dxy    Ryd( 4d)     0.00004       6.71459
 141    O  5  dxz    Ryd( 3d)     0.00029       2.11442
 142    O  5  dxz    Ryd( 4d)     0.00004       6.60668
 143    O  5  dyz    Ryd( 3d)     0.00266       1.86895
 144    O  5  dyz    Ryd( 4d)     0.00002       6.45627
 145    O  5  dx2y2  Ryd( 3d)     0.00226       2.42861
 146    O  5  dx2y2  Ryd( 4d)     0.00003       6.72768
 147    O  5  dz2    Ryd( 3d)     0.00233       2.10218
 148    O  5  dz2    Ryd( 4d)     0.00001       6.59057
 149    O  5  f(0)   Ryd( 4f)     0.00012       5.53709
 150    O  5  f(c1)  Ryd( 4f)     0.00012       5.55797
 151    O  5  f(s1)  Ryd( 4f)     0.00005       5.43256
 152    O  5  f(c2)  Ryd( 4f)     0.00003       5.51701
 153    O  5  f(s2)  Ryd( 4f)     0.00003       5.68770
 154    O  5  f(c3)  Ryd( 4f)     0.00010       6.07464
 155    O  5  f(s3)  Ryd( 4f)     0.00009       6.04082

 156    C  6  s      Cor( 1s)     1.99999     -10.68766
 157    C  6  s      Val( 2s)     0.72847      -0.06202
 158    C  6  s      Ryd( 4s)     0.00284       1.39796
 159    C  6  s      Ryd( 3s)     0.00022       1.23444
 160    C  6  s      Ryd( 5s)     0.00000      22.66295
 161    C  6  px     Val( 2p)     0.79571      -0.00195
 162    C  6  px     Ryd( 4p)     0.00449       1.41817
 163    C  6  px     Ryd( 3p)     0.00024       1.33187
 164    C  6  py     Val( 2p)     0.76177       0.05392
 165    C  6  py     Ryd( 4p)     0.01772       1.36921
 166    C  6  py     Ryd( 3p)     0.00018       0.99944
 167    C  6  pz     Val( 2p)     0.78078      -0.12051
 168    C  6  pz     Ryd( 4p)     0.00095       1.01495
 169    C  6  pz     Ryd( 3p)     0.00019       0.85411
 170    C  6  dxy    Ryd( 4d)     0.00185       4.19665
 171    C  6  dxy    Ryd( 3d)     0.00033       3.10619
 172    C  6  dxz    Ryd( 4d)     0.00194       2.52367
 173    C  6  dxz    Ryd( 3d)     0.00014       2.23690
 174    C  6  dyz    Ryd( 4d)     0.00315       2.73767
 175    C  6  dyz    Ryd( 3d)     0.00021       2.25345
 176    C  6  dx2y2  Ryd( 4d)     0.00084       3.62152
 177    C  6  dx2y2  Ryd( 3d)     0.00048       3.18968
 178    C  6  dz2    Ryd( 4d)     0.00017       3.41221
 179    C  6  dz2    Ryd( 3d)     0.00021       2.52406
 180    C  6  f(0)   Ryd( 4f)     0.00026       3.39832
 181    C  6  f(c1)  Ryd( 4f)     0.00019       3.40129
 182    C  6  f(s1)  Ryd( 4f)     0.00015       3.55643
 183    C  6  f(c2)  Ryd( 4f)     0.00004       3.39178
 184    C  6  f(s2)  Ryd( 4f)     0.00001       3.45857
 185    C  6  f(c3)  Ryd( 4f)     0.00011       4.20516
 186    C  6  f(s3)  Ryd( 4f)     0.00026       3.93458

 187    O  7  s      Cor( 1s)     2.00000     -19.59490
 188    O  7  s      Val( 2s)     1.70473      -0.74920
 189    O  7  s      Ryd( 3s)     0.00011       1.42435
 190    O  7  s      Ryd( 4s)     0.00006       5.33280
 191    O  7  s      Ryd( 5s)     0.00000      41.42183
 192    O  7  px     Val( 2p)     1.83799      -0.32457
 193    O  7  px     Ryd( 3p)     0.00123       0.90909
 194    O  7  px     Ryd( 4p)     0.00002       3.25877
 195    O  7  py     Val( 2p)     1.54287      -0.30188
 196    O  7  py     Ryd( 3p)     0.00101       0.72603
 197    O  7  py     Ryd( 4p)     0.00016       3.86420
 198    O  7  pz     Val( 2p)     1.55711      -0.28955
 199    O  7  pz     Ryd( 3p)     0.00159       0.72135
 200    O  7  pz     Ryd( 4p)     0.00001       2.92030
 201    O  7  dxy    Ryd( 3d)     0.00488       2.12647
 202    O  7  dxy    Ryd( 4d)     0.00002       6.81570
 203    O  7  dxz    Ryd( 3d)     0.00025       1.68003
 204    O  7  dxz    Ryd( 4d)     0.00000       6.33391
 205    O  7  dyz    Ryd( 3d)     0.00591       1.90472
 206    O  7  dyz    Ryd( 4d)     0.00002       6.54689
 207    O  7  dx2y2  Ryd( 3d)     0.00714       2.19377
 208    O  7  dx2y2  Ryd( 4d)     0.00000       6.74077
 209    O  7  dz2    Ryd( 3d)     0.00239       1.89087
 210    O  7  dz2    Ryd( 4d)     0.00000       6.55524
 211    O  7  f(0)   Ryd( 4f)     0.00006       5.50536
 212    O  7  f(c1)  Ryd( 4f)     0.00001       5.29560
 213    O  7  f(s1)  Ryd( 4f)     0.00005       5.82270
 214    O  7  f(c2)  Ryd( 4f)     0.00013       5.68578
 215    O  7  f(s2)  Ryd( 4f)     0.00002       5.51919
 216    O  7  f(c3)  Ryd( 4f)     0.00018       6.17089
 217    O  7  f(s3)  Ryd( 4f)     0.00014       6.06540

 218    N  8  s      Cor( 1s)     2.00000     -14.77266
 219    N  8  s      Val( 2s)     1.26178      -0.48990
 220    N  8  s      Ryd( 3s)     0.00109       1.94872
 221    N  8  s      Ryd( 4s)     0.00002       3.32764
 222    N  8  s      Ryd( 5s)     0.00000      27.84315
 223    N  8  px     Val( 2p)     1.23201      -0.22709
 224    N  8  px     Ryd( 3p)     0.00274       1.00329
 225    N  8  px     Ryd( 4p)     0.00017       3.03823
 226    N  8  py     Val( 2p)     1.36954      -0.26203
 227    N  8  py     Ryd( 3p)     0.00204       1.16351
 228    N  8  py     Ryd( 4p)     0.00014       2.79739
 229    N  8  pz     Val( 2p)     1.74954      -0.31612
 230    N  8  pz     Ryd( 3p)     0.00611       0.55308
 231    N  8  pz     Ryd( 4p)     0.00019       2.34487
 232    N  8  dxy    Ryd( 3d)     0.00251       2.22375
 233    N  8  dxy    Ryd( 4d)     0.00004       5.23158
 234    N  8  dxz    Ryd( 3d)     0.00041       1.59509
 235    N  8  dxz    Ryd( 4d)     0.00014       4.69660
 236    N  8  dyz    Ryd( 3d)     0.00029       1.46113
 237    N  8  dyz    Ryd( 4d)     0.00004       4.64653
 238    N  8  dx2y2  Ryd( 3d)     0.00167       2.57348
 239    N  8  dx2y2  Ryd( 4d)     0.00013       5.22293
 240    N  8  dz2    Ryd( 3d)     0.00231       2.41420
 241    N  8  dz2    Ryd( 4d)     0.00000       4.98541
 242    N  8  f(0)   Ryd( 4f)     0.00064       4.33547
 243    N  8  f(c1)  Ryd( 4f)     0.00029       4.42133
 244    N  8  f(s1)  Ryd( 4f)     0.00039       4.42310
 245    N  8  f(c2)  Ryd( 4f)     0.00004       4.35824
 246    N  8  f(s2)  Ryd( 4f)     0.00002       4.42097
 247    N  8  f(c3)  Ryd( 4f)     0.00008       4.87507
 248    N  8  f(s3)  Ryd( 4f)     0.00032       5.10911

 249    C  9  s      Cor( 1s)     1.99999     -10.59896
 250    C  9  s      Val( 2s)     1.06189      -0.25321
 251    C  9  s      Ryd( 3s)     0.00216       1.47306
 252    C  9  s      Ryd( 4s)     0.00003       2.20349
 253    C  9  s      Ryd( 5s)     0.00000      21.58389
 254    C  9  px     Val( 2p)     0.91897      -0.09690
 255    C  9  px     Ryd( 3p)     0.00267       0.94965
 256    C  9  px     Ryd( 4p)     0.00018       1.55894
 257    C  9  py     Val( 2p)     1.09091      -0.12934
 258    C  9  py     Ryd( 3p)     0.00255       0.80865
 259    C  9  py     Ryd( 4p)     0.00010       1.40311
 260    C  9  pz     Val( 2p)     1.23177      -0.16276
 261    C  9  pz     Ryd( 3p)     0.00084       0.86881
 262    C  9  pz     Ryd( 4p)     0.00033       1.32041
 263    C  9  dxy    Ryd( 3d)     0.00205       2.51867
 264    C  9  dxy    Ryd( 4d)     0.00023       3.97230
 265    C  9  dxz    Ryd( 3d)     0.00092       1.40899
 266    C  9  dxz    Ryd( 4d)     0.00016       2.89598
 267    C  9  dyz    Ryd( 3d)     0.00126       1.75581
 268    C  9  dyz    Ryd( 4d)     0.00021       3.41690
 269    C  9  dx2y2  Ryd( 3d)     0.00037       1.79655
 270    C  9  dx2y2  Ryd( 4d)     0.00037       3.45795
 271    C  9  dz2    Ryd( 3d)     0.00145       2.17540
 272    C  9  dz2    Ryd( 4d)     0.00003       3.46465
 273    C  9  f(0)   Ryd( 4f)     0.00002       3.31822
 274    C  9  f(c1)  Ryd( 4f)     0.00003       3.40081
 275    C  9  f(s1)  Ryd( 4f)     0.00040       3.85618
 276    C  9  f(c2)  Ryd( 4f)     0.00004       3.50932
 277    C  9  f(s2)  Ryd( 4f)     0.00001       3.38998
 278    C  9  f(c3)  Ryd( 4f)     0.00006       3.72969
 279    C  9  f(s3)  Ryd( 4f)     0.00032       3.69714

 280    C 10  s      Cor( 1s)     1.99999     -10.69721
 281    C 10  s      Val( 2s)     0.81930      -0.15109
 282    C 10  s      Ryd( 3s)     0.00602       1.57781
 283    C 10  s      Ryd( 4s)     0.00026       3.68926
 284    C 10  s      Ryd( 5s)     0.00001      18.76888
 285    C 10  px     Val( 2p)     0.83793      -0.05704
 286    C 10  px     Ryd( 4p)     0.00420       1.23979
 287    C 10  px     Ryd( 3p)     0.00019       1.08926
 288    C 10  py     Val( 2p)     0.79008       0.01995
 289    C 10  py     Ryd( 4p)     0.01615       1.24057
 290    C 10  py     Ryd( 3p)     0.00013       1.09305
 291    C 10  pz     Val( 2p)     0.72600      -0.14171
 292    C 10  pz     Ryd( 4p)     0.00076       0.93547
 293    C 10  pz     Ryd( 3p)     0.00023       0.82017
 294    C 10  dxy    Ryd( 4d)     0.00215       3.37686
 295    C 10  dxy    Ryd( 3d)     0.00030       2.84046
 296    C 10  dxz    Ryd( 4d)     0.00125       2.29751
 297    C 10  dxz    Ryd( 3d)     0.00014       2.17381
 298    C 10  dyz    Ryd( 4d)     0.00251       2.59138
 299    C 10  dyz    Ryd( 3d)     0.00015       2.28150
 300    C 10  dx2y2  Ryd( 4d)     0.00065       3.09324
 301    C 10  dx2y2  Ryd( 3d)     0.00041       3.00901
 302    C 10  dz2    Ryd( 4d)     0.00020       2.70389
 303    C 10  dz2    Ryd( 3d)     0.00021       2.57276
 304    C 10  f(0)   Ryd( 4f)     0.00016       3.30662
 305    C 10  f(c1)  Ryd( 4f)     0.00017       3.27156
 306    C 10  f(s1)  Ryd( 4f)     0.00016       3.39102
 307    C 10  f(c2)  Ryd( 4f)     0.00004       3.30049
 308    C 10  f(s2)  Ryd( 4f)     0.00001       3.36508
 309    C 10  f(c3)  Ryd( 4f)     0.00008       4.07638
 310    C 10  f(s3)  Ryd( 4f)     0.00029       3.76908

 311    O 11  s      Cor( 1s)     2.00000     -19.63993
 312    O 11  s      Val( 2s)     1.70234      -0.78749
 313    O 11  s      Ryd( 3s)     0.00039       1.23086
 314    O 11  s      Ryd( 4s)     0.00004       5.03490
 315    O 11  s      Ryd( 5s)     0.00000      41.94963
 316    O 11  px     Val( 2p)     1.84878      -0.36592
 317    O 11  px     Ryd( 3p)     0.00287       0.78546
 318    O 11  px     Ryd( 4p)     0.00002       3.21216
 319    O 11  py     Val( 2p)     1.55877      -0.34627
 320    O 11  py     Ryd( 3p)     0.00078       0.64311
 321    O 11  py     Ryd( 4p)     0.00016       3.85211
 322    O 11  pz     Val( 2p)     1.45934      -0.31508
 323    O 11  pz     Ryd( 3p)     0.00080       0.66433
 324    O 11  pz     Ryd( 4p)     0.00001       2.91951
 325    O 11  dxy    Ryd( 3d)     0.00472       2.02286
 326    O 11  dxy    Ryd( 4d)     0.00003       6.72141
 327    O 11  dxz    Ryd( 3d)     0.00009       1.62550
 328    O 11  dxz    Ryd( 4d)     0.00000       6.26694
 329    O 11  dyz    Ryd( 3d)     0.00625       1.87702
 330    O 11  dyz    Ryd( 4d)     0.00002       6.51482
 331    O 11  dx2y2  Ryd( 3d)     0.00793       2.12200
 332    O 11  dx2y2  Ryd( 4d)     0.00000       6.67037
 333    O 11  dz2    Ryd( 3d)     0.00258       1.82427
 334    O 11  dz2    Ryd( 4d)     0.00000       6.49482
 335    O 11  f(0)   Ryd( 4f)     0.00005       5.44785
 336    O 11  f(c1)  Ryd( 4f)     0.00001       5.22696
 337    O 11  f(s1)  Ryd( 4f)     0.00006       5.76161
 338    O 11  f(c2)  Ryd( 4f)     0.00016       5.63978
 339    O 11  f(s2)  Ryd( 4f)     0.00000       5.46235
 340    O 11  f(c3)  Ryd( 4f)     0.00022       6.07608
 341    O 11  f(s3)  Ryd( 4f)     0.00015       5.95947

 342    O 12  s      Cor( 1s)     2.00000     -19.69260
 343    O 12  s      Val( 2s)     1.67664      -0.87645
 344    O 12  s      Ryd( 3s)     0.00033       2.69167
 345    O 12  s      Ryd( 4s)     0.00005       4.56050
 346    O 12  s      Ryd( 5s)     0.00000      40.76177
 347    O 12  px     Val( 2p)     1.41301      -0.36447
 348    O 12  px     Ryd( 3p)     0.00166       0.68516
 349    O 12  px     Ryd( 4p)     0.00007       3.88331
 350    O 12  py     Val( 2p)     1.73099      -0.42207
 351    O 12  py     Ryd( 3p)     0.00084       0.68344
 352    O 12  py     Ryd( 4p)     0.00016       3.47945
 353    O 12  pz     Val( 2p)     1.83126      -0.43090
 354    O 12  pz     Ryd( 3p)     0.00168       0.56601
 355    O 12  pz     Ryd( 4p)     0.00003       2.78296
 356    O 12  dxy    Ryd( 3d)     0.00698       2.24889
 357    O 12  dxy    Ryd( 4d)     0.00002       6.57415
 358    O 12  dxz    Ryd( 3d)     0.00044       1.73877
 359    O 12  dxz    Ryd( 4d)     0.00002       6.38197
 360    O 12  dyz    Ryd( 3d)     0.00362       1.65061
 361    O 12  dyz    Ryd( 4d)     0.00001       6.30900
 362    O 12  dx2y2  Ryd( 3d)     0.00259       1.97159
 363    O 12  dx2y2  Ryd( 4d)     0.00002       6.63391
 364    O 12  dz2    Ryd( 3d)     0.00343       1.87502
 365    O 12  dz2    Ryd( 4d)     0.00000       6.43879
 366    O 12  f(0)   Ryd( 4f)     0.00014       5.43444
 367    O 12  f(c1)  Ryd( 4f)     0.00012       5.61266
 368    O 12  f(s1)  Ryd( 4f)     0.00008       5.42535
 369    O 12  f(c2)  Ryd( 4f)     0.00003       5.30164
 370    O 12  f(s2)  Ryd( 4f)     0.00000       5.55953
 371    O 12  f(c3)  Ryd( 4f)     0.00001       6.07045
 372    O 12  f(s3)  Ryd( 4f)     0.00011       6.00602

 373    H 13  s      Val( 1s)     0.78455       0.05480
 374    H 13  s      Ryd( 2s)     0.00044       0.80611
 375    H 13  s      Ryd( 3s)     0.00002       1.84154
 376    H 13  px     Ryd( 2p)     0.00007       2.24093
 377    H 13  py     Ryd( 2p)     0.00020       2.47654
 378    H 13  pz     Ryd( 2p)     0.00039       2.56497

 379    H 14  s      Val( 1s)     0.78904       0.04660
 380    H 14  s      Ryd( 2s)     0.00018       0.83264
 381    H 14  s      Ryd( 3s)     0.00003       1.79518
 382    H 14  px     Ryd( 2p)     0.00064       2.80705
 383    H 14  py     Ryd( 2p)     0.00006       2.25659
 384    H 14  pz     Ryd( 2p)     0.00003       2.15956

 385    H 15  s      Val( 1s)     0.78455       0.05480
 386    H 15  s      Ryd( 2s)     0.00044       0.80608
 387    H 15  s      Ryd( 3s)     0.00002       1.84156
 388    H 15  px     Ryd( 2p)     0.00007       2.24086
 389    H 15  py     Ryd( 2p)     0.00020       2.47681
 390    H 15  pz     Ryd( 2p)     0.00039       2.56478

 391    H 16  s      Val( 1s)     0.75940       0.08308
 392    H 16  s      Ryd( 2s)     0.00041       0.98331
 393    H 16  s      Ryd( 3s)     0.00003       1.71523
 394    H 16  px     Ryd( 2p)     0.00019       2.30881
 395    H 16  py     Ryd( 2p)     0.00046       2.78221
 396    H 16  pz     Ryd( 2p)     0.00005       2.27719

 397    H 17  s      Val( 1s)     0.78743       0.05526
 398    H 17  s      Ryd( 2s)     0.00044       0.78683
 399    H 17  s      Ryd( 3s)     0.00002       1.84232
 400    H 17  px     Ryd( 2p)     0.00008       2.23977
 401    H 17  py     Ryd( 2p)     0.00018       2.34753
 402    H 17  pz     Ryd( 2p)     0.00041       2.73803

 403    H 18  s      Val( 1s)     0.78777       0.05003
 404    H 18  s      Ryd( 2s)     0.00019       0.91266
 405    H 18  s      Ryd( 3s)     0.00003       1.68816
 406    H 18  px     Ryd( 2p)     0.00061       2.79003
 407    H 18  py     Ryd( 2p)     0.00005       2.22760
 408    H 18  pz     Ryd( 2p)     0.00005       2.25940

 409    H 19  s      Val( 1s)     0.78743       0.05525
 410    H 19  s      Ryd( 2s)     0.00044       0.78678
 411    H 19  s      Ryd( 3s)     0.00002       1.84231
 412    H 19  px     Ryd( 2p)     0.00008       2.23969
 413    H 19  py     Ryd( 2p)     0.00018       2.34770
 414    H 19  pz     Ryd( 2p)     0.00041       2.73790

 415    H 20  s      Val( 1s)     0.78776       0.05002
 416    H 20  s      Ryd( 2s)     0.00019       0.91264
 417    H 20  s      Ryd( 3s)     0.00003       1.68814
 418    H 20  px     Ryd( 2p)     0.00061       2.79007
 419    H 20  py     Ryd( 2p)     0.00005       2.22751
 420    H 20  pz     Ryd( 2p)     0.00005       2.25937

 421    H 21  s      Val( 1s)     0.75943       0.08304
 422    H 21  s      Ryd( 2s)     0.00041       0.98285
 423    H 21  s      Ryd( 3s)     0.00003       1.71562
 424    H 21  px     Ryd( 2p)     0.00019       2.30874
 425    H 21  py     Ryd( 2p)     0.00046       2.78206
 426    H 21  pz     Ryd( 2p)     0.00005       2.27724

 427    H 22  s      Val( 1s)     0.56826       0.11877
 428    H 22  s      Ryd( 2s)     0.00069       1.19986
 429    H 22  s      Ryd( 3s)     0.00017       1.55205
 430    H 22  px     Ryd( 2p)     0.00007       2.53004
 431    H 22  py     Ryd( 2p)     0.00037       3.33819
 432    H 22  pz     Ryd( 2p)     0.00039       2.15094

 433    H 23  s      Val( 1s)     0.76401       0.02040
 434    H 23  s      Ryd( 2s)     0.00089       0.68291
 435    H 23  s      Ryd( 3s)     0.00004       1.92000
 436    H 23  px     Ryd( 2p)     0.00009       2.33461
 437    H 23  py     Ryd( 2p)     0.00034       2.51594
 438    H 23  pz     Ryd( 2p)     0.00047       2.54033

 439    H 24  s      Val( 1s)     0.76400       0.02040
 440    H 24  s      Ryd( 2s)     0.00089       0.68288
 441    H 24  s      Ryd( 3s)     0.00004       1.92004
 442    H 24  px     Ryd( 2p)     0.00009       2.33460
 443    H 24  py     Ryd( 2p)     0.00034       2.51591
 444    H 24  pz     Ryd( 2p)     0.00047       2.54037

 445    H 25  s      Val( 1s)     0.49878       0.11312
 446    H 25  s      Ryd( 2s)     0.00169       0.51116
 447    H 25  s      Ryd( 3s)     0.00036       2.02024
 448    H 25  px     Ryd( 2p)     0.00017       2.80678
 449    H 25  py     Ryd( 2p)     0.00028       2.53049
 450    H 25  pz     Ryd( 2p)     0.00062       1.94823


 Summary of Natural Population Analysis:

                                     Natural Population
             Natural    ---------------------------------------------
  Atom No    Charge        Core      Valence    Rydberg      Total
 --------------------------------------------------------------------
    C  1   -0.60934      1.99999     4.59856    0.01079     6.60934
    C  2    0.26949      1.99999     3.71673    0.01379     5.73051
    C  3   -0.63989      1.99999     4.62908    0.01082     6.63989
    C  4   -0.63988      1.99999     4.62906    0.01082     6.63988
    O  5   -0.53197      2.00000     6.51039    0.02158     8.53197
    C  6    0.89611      1.99999     3.06672    0.03717     5.10389
    O  7   -0.66808      2.00000     6.64270    0.02539     8.66808
    N  8   -0.63467      2.00000     5.61286    0.02181     7.63467
    C  9   -0.32031      1.99999     4.30353    0.01678     6.32031
    C 10    0.78989      1.99999     3.17331    0.03681     5.21011
    O 11   -0.59656      2.00000     6.56923    0.02734     8.59656
    O 12   -0.67435      2.00000     6.65190    0.02245     8.67435
    H 13    0.21433      0.00000     0.78455    0.00112     0.78567
    H 14    0.21002      0.00000     0.78904    0.00094     0.78998
    H 15    0.21432      0.00000     0.78455    0.00112     0.78568
    H 16    0.23947      0.00000     0.75940    0.00114     0.76053
    H 17    0.21144      0.00000     0.78743    0.00113     0.78856
    H 18    0.21130      0.00000     0.78777    0.00093     0.78870
    H 19    0.21144      0.00000     0.78743    0.00113     0.78856
    H 20    0.21131      0.00000     0.78776    0.00093     0.78869
    H 21    0.23943      0.00000     0.75943    0.00114     0.76057
    H 22    0.43005      0.00000     0.56826    0.00170     0.56995
    H 23    0.23417      0.00000     0.76401    0.00182     0.76583
    H 24    0.23418      0.00000     0.76400    0.00182     0.76582
    H 25    0.49810      0.00000     0.49878    0.00312     0.50190
 ====================================================================
 * Total *  0.00000     23.99992    69.72648    0.27360    94.00000

                                 Natural Population
 ---------------------------------------------------------
   Core                      23.99992 ( 99.9997% of   24)
   Valence                   69.72648 ( 99.6093% of   70)
   Natural Minimal Basis     93.72640 ( 99.7089% of   94)
   Natural Rydberg Basis      0.27360 (  0.2911% of   94)
 ---------------------------------------------------------

    Atom No         Natural Electron Configuration
 ----------------------------------------------------------------------------
      C  1      [core]2s( 1.11)2p( 3.49)3d( 0.01)
      C  2      [core]2s( 0.94)2p( 2.78)3p( 0.01)
      C  3      [core]2s( 1.11)2p( 3.52)3d( 0.01)
      C  4      [core]2s( 1.11)2p( 3.52)3d( 0.01)
      O  5      [core]2s( 1.60)2p( 4.91)3p( 0.01)3d( 0.01)
      C  6      [core]2s( 0.73)2p( 2.34)4p( 0.02)4d( 0.01)
      O  7      [core]2s( 1.70)2p( 4.94)3d( 0.02)
      N  8      [core]2s( 1.26)2p( 4.35)3p( 0.01)3d( 0.01)
      C  9      [core]2s( 1.06)2p( 3.24)3p( 0.01)3d( 0.01)
      C 10      [core]2s( 0.82)2p( 2.35)3s( 0.01)4p( 0.02)4d( 0.01)
      O 11      [core]2s( 1.70)2p( 4.87)3d( 0.02)
      O 12      [core]2s( 1.68)2p( 4.98)3d( 0.02)
      H 13            1s( 0.78)
      H 14            1s( 0.79)
      H 15            1s( 0.78)
      H 16            1s( 0.76)
      H 17            1s( 0.79)
      H 18            1s( 0.79)
      H 19            1s( 0.79)
      H 20            1s( 0.79)
      H 21            1s( 0.76)
      H 22            1s( 0.57)
      H 23            1s( 0.76)
      H 24            1s( 0.76)
      H 25            1s( 0.50)


 NATURAL BOND ORBITAL ANALYSIS:

                            Occupancies       Lewis Structure    Low   High
         Max    Occ     -------------------  -----------------   occ   occ
  Cycle  Ctr   Thresh    Lewis   non-Lewis     CR  BD  nC  LP    (L)   (NL)
[...]
  129. RY ( 4) C  3             0.00031     1.60922
  130. RY ( 5) C  3             0.00019     1.47122
  131. RY ( 6) C  3             0.00012     1.63603
  132. RY ( 7) C  3             0.00010     1.47980
  133. RY ( 8) C  3             0.00005     2.35450
  134. RY ( 9) C  3             0.00003     2.35418
  135. RY (10) C  3             0.00003     2.43554
  136. RY (11) C  3             0.00002     2.14943
  137. RY (12) C  3             0.00000     2.50850
  138. RY (13) C  3             0.00000     2.44308
  139. RY (14) C  3             0.00001     2.88692
  140. RY (15) C  3             0.00000     5.45391
  141. RY (16) C  3             0.00000     2.67595
  142. RY (17) C  3             0.00000     3.06761
  143. RY (18) C  3             0.00000     4.77346
  144. RY (19) C  3             0.00000     3.76195
  145. RY (20) C  3             0.00000     6.28865
  146. RY (21) C  3             0.00000     4.06623
  147. RY (22) C  3             0.00000     2.24766
  148. RY (23) C  3             0.00000     3.94502
  149. RY (24) C  3             0.00000     8.62548
  150. RY (25) C  3             0.00000     3.21959
  151. RY (26) C  3             0.00000     6.23074
  152. RY ( 1) C  4             0.00129     0.98259
  153. RY ( 2) C  4             0.00079     1.08220
  154. RY ( 3) C  4             0.00040     1.70552
  155. RY ( 4) C  4             0.00031     1.60920
  156. RY ( 5) C  4             0.00019     1.47105
  157. RY ( 6) C  4             0.00012     1.63594
  158. RY ( 7) C  4             0.00010     1.48001
  159. RY ( 8) C  4             0.00005     2.35448
  160. RY ( 9) C  4             0.00003     2.35471
  161. RY (10) C  4             0.00003     2.43502
  162. RY (11) C  4             0.00002     2.14924
  163. RY (12) C  4             0.00000     2.50354
  164. RY (13) C  4             0.00000     2.44454
  165. RY (14) C  4             0.00001     2.88618
  166. RY (15) C  4             0.00000     5.45864
  167. RY (16) C  4             0.00000     2.67599
  168. RY (17) C  4             0.00000     3.06748
  169. RY (18) C  4             0.00000     4.76040
  170. RY (19) C  4             0.00000     3.77040
  171. RY (20) C  4             0.00000     6.29859
  172. RY (21) C  4             0.00000     4.06732
  173. RY (22) C  4             0.00000     2.24958
  174. RY (23) C  4             0.00000     3.94489
  175. RY (24) C  4             0.00000     8.61418
  176. RY (25) C  4             0.00000     3.21794
  177. RY (26) C  4             0.00000     6.23441
  178. RY ( 1) O  5             0.00342     0.77858
  179. RY ( 2) O  5             0.00328     0.90205
  180. RY ( 3) O  5             0.00105     1.64913
  181. RY ( 4) O  5             0.00082     2.99842
  182. RY ( 5) O  5             0.00020     2.30701
  183. RY ( 6) O  5             0.00017     3.22062
  184. RY ( 7) O  5             0.00006     3.39967
  185. RY ( 8) O  5             0.00005     4.93452
  186. RY ( 9) O  5             0.00005     2.84988
  187. RY (10) O  5             0.00003     3.30304
  188. RY (11) O  5             0.00003     5.14111
  189. RY (12) O  5             0.00002     3.95060
  190. RY (13) O  5             0.00001     3.47415
  191. RY (14) O  5             0.00001     5.81546
  192. RY (15) O  5             0.00000     4.60244
  193. RY (16) O  5             0.00000     5.70165
  194. RY (17) O  5             0.00000     6.15344
  195. RY (18) O  5             0.00000     9.16731
  196. RY (19) O  5             0.00000    35.71103
  197. RY (20) O  5             0.00000     6.12930
  198. RY (21) O  5             0.00000     5.48400
  199. RY (22) O  5             0.00000     5.76992
  200. RY (23) O  5             0.00000     5.91249
  201. RY (24) O  5             0.00000     5.28810
  202. RY (25) O  5             0.00000     5.75812
  203. RY (26) O  5             0.00000     5.61110
  204. RY ( 1) C  6             0.01747     1.35184
  205. RY ( 2) C  6             0.00574     2.01316
  206. RY ( 3) C  6             0.00492     2.26355
  207. RY ( 4) C  6             0.00214     2.82583
  208. RY ( 5) C  6             0.00212     2.11309
  209. RY ( 6) C  6             0.00119     2.53374
  210. RY ( 7) C  6             0.00064     3.03439
  211. RY ( 8) C  6             0.00053     0.68537
  212. RY ( 9) C  6             0.00013     1.22594
  213. RY (10) C  6             0.00012     1.45722
  214. RY (11) C  6             0.00006     2.82886
  215. RY (12) C  6             0.00003     2.01696
  216. RY (13) C  6             0.00003     2.83444
  217. RY (14) C  6             0.00002     1.94274
  218. RY (15) C  6             0.00001     2.88876
  219. RY (16) C  6             0.00001     3.04111
  220. RY (17) C  6             0.00000     4.20338
  221. RY (18) C  6             0.00000     3.20590
  222. RY (19) C  6             0.00000     3.37812
  223. RY (20) C  6             0.00000     3.04131
  224. RY (21) C  6             0.00000     8.14122
  225. RY (22) C  6             0.00000     8.65950
  226. RY (23) C  6             0.00000     3.13372
  227. RY (24) C  6             0.00000     3.62744
  228. RY (25) C  6             0.00000     3.46176
  229. RY (26) C  6             0.00000    11.49619
  230. RY ( 1) O  7             0.00165     0.88801
  231. RY ( 2) O  7             0.00107     1.02649
  232. RY ( 3) O  7             0.00017     1.65456
  233. RY ( 4) O  7             0.00015     1.78421
  234. RY ( 5) O  7             0.00009     3.06423
  235. RY ( 6) O  7             0.00008     2.58890
  236. RY ( 7) O  7             0.00005     2.73719
  237. RY ( 8) O  7             0.00002     3.65728
  238. RY ( 9) O  7             0.00001     3.99512
  239. RY (10) O  7             0.00001     2.36179
  240. RY (11) O  7             0.00001     3.49950
  241. RY (12) O  7             0.00000     4.77564
  242. RY (13) O  7             0.00000     4.12747
  243. RY (14) O  7             0.00000    15.10535
  244. RY (15) O  7             0.00000     5.72965
  245. RY (16) O  7             0.00000     6.91857
  246. RY (17) O  7             0.00000     6.14480
  247. RY (18) O  7             0.00000     6.46510
  248. RY (19) O  7             0.00000    15.82733
  249. RY (20) O  7             0.00000     5.65822
  250. RY (21) O  7             0.00000     8.33067
  251. RY (22) O  7             0.00000    13.75566
  252. RY (23) O  7             0.00000     4.59048
  253. RY (24) O  7             0.00000     5.53629
  254. RY (25) O  7             0.00000     6.23463
  255. RY (26) O  7             0.00000     6.97597
  256. RY ( 1) N  8             0.00451     0.62776
  257. RY ( 2) N  8             0.00207     1.25069
  258. RY ( 3) N  8             0.00187     1.31501
  259. RY ( 4) N  8             0.00089     2.38304
  260. RY ( 5) N  8             0.00044     2.21628
  261. RY ( 6) N  8             0.00028     2.00838
  262. RY ( 7) N  8             0.00011     2.14326
  263. RY ( 8) N  8             0.00011     4.38806
  264. RY ( 9) N  8             0.00008     3.58741
  265. RY (10) N  8             0.00005     1.67188
  266. RY (11) N  8             0.00004     3.18702
  267. RY (12) N  8             0.00003     4.62783
  268. RY (13) N  8             0.00001     2.30062
  269. RY (14) N  8             0.00001     3.74568
  270. RY (15) N  8             0.00000     3.13485
  271. RY (16) N  8             0.00000     4.54219
  272. RY (17) N  8             0.00000     4.26717
  273. RY (18) N  8             0.00000     4.22948
  274. RY (19) N  8             0.00000    25.97419
  275. RY (20) N  8             0.00000     5.58652
  276. RY (21) N  8             0.00000     4.28333
  277. RY (22) N  8             0.00000     4.29838
  278. RY (23) N  8             0.00000     5.83845
  279. RY (24) N  8             0.00000     4.46045
  280. RY (25) N  8             0.00000     4.44390
  281. RY (26) N  8             0.00000     4.50074
  282. RY ( 1) C  9             0.00295     1.17164
  283. RY ( 2) C  9             0.00178     1.09316
  284. RY ( 3) C  9             0.00164     1.45152
  285. RY ( 4) C  9             0.00088     1.55305
  286. RY ( 5) C  9             0.00037     1.74258
  287. RY ( 6) C  9             0.00035     1.03869
  288. RY ( 7) C  9             0.00030     1.88993
  289. RY ( 8) C  9             0.00020     2.26343
  290. RY ( 9) C  9             0.00011     1.74862
  291. RY (10) C  9             0.00009     2.95882
  292. RY (11) C  9             0.00008     1.40497
  293. RY (12) C  9             0.00004     2.21609
  294. RY (13) C  9             0.00001     2.67795
  295. RY (14) C  9             0.00001     2.64898
  296. RY (15) C  9             0.00001     4.03954
  297. RY (16) C  9             0.00001     2.97288
  298. RY (17) C  9             0.00000     5.14709
  299. RY (18) C  9             0.00000     2.83925
  300. RY (19) C  9             0.00000     4.22995
  301. RY (20) C  9             0.00000    15.68386
  302. RY (21) C  9             0.00000     3.52622
  303. RY (22) C  9             0.00000     3.60799
  304. RY (23) C  9             0.00000     3.29288
  305. RY (24) C  9             0.00000     5.80748
  306. RY (25) C  9             0.00000     3.61043
  307. RY (26) C  9             0.00000     3.30314
  308. RY ( 1) C 10             0.01672     1.24972
  309. RY ( 2) C 10             0.00634     1.74806
  310. RY ( 3) C 10             0.00373     2.00589
  311. RY ( 4) C 10             0.00203     2.44110
  312. RY ( 5) C 10             0.00062     3.01951
  313. RY ( 6) C 10             0.00057     1.79330
  314. RY ( 7) C 10             0.00032     2.18918
  315. RY ( 8) C 10             0.00013     1.71690
  316. RY ( 9) C 10             0.00007     3.45849
  317. RY (10) C 10             0.00003     3.01088
  318. RY (11) C 10             0.00002     1.39620
  319. RY (12) C 10             0.00001     2.41049
  320. RY (13) C 10             0.00000     1.70754
  321. RY (14) C 10             0.00000     1.96910
  322. RY (15) C 10             0.00000    12.58730
  323. RY (16) C 10             0.00000     4.77240
  324. RY (17) C 10             0.00000     2.55072
  325. RY (18) C 10             0.00000     5.13308
  326. RY (19) C 10             0.00000     1.94210
  327. RY (20) C 10             0.00000     3.38492
  328. RY (21) C 10             0.00000     4.36244
  329. RY (22) C 10             0.00000     4.44896
  330. RY (23) C 10             0.00000     3.10494
  331. RY (24) C 10             0.00000     3.17328
  332. RY (25) C 10             0.00000     2.81995
  333. RY (26) C 10             0.00000     3.44827
  334. RY ( 1) O 11             0.00267     0.94291
  335. RY ( 2) O 11             0.00091     0.90646
  336. RY ( 3) O 11             0.00019     1.80625
  337. RY ( 4) O 11             0.00013     2.47082
  338. RY ( 5) O 11             0.00006     1.65703
  339. RY ( 6) O 11             0.00004     2.01850
  340. RY ( 7) O 11             0.00002     2.82976
  341. RY ( 8) O 11             0.00001     3.38195
  342. RY ( 9) O 11             0.00001     1.96748
  343. RY (10) O 11             0.00000     5.43970
  344. RY (11) O 11             0.00000     3.74710
  345. RY (12) O 11             0.00000     4.19494
  346. RY (13) O 11             0.00000     5.97710
  347. RY (14) O 11             0.00000     6.70722
  348. RY (15) O 11             0.00000    16.86442
  349. RY (16) O 11             0.00000     5.62028
  350. RY (17) O 11             0.00000     2.39978
  351. RY (18) O 11             0.00000     5.27445
  352. RY (19) O 11             0.00000     7.12740
  353. RY (20) O 11             0.00000     5.99149
  354. RY (21) O 11             0.00000     5.94065
  355. RY (22) O 11             0.00000    10.32779
  356. RY (23) O 11             0.00000    20.73403
  357. RY (24) O 11             0.00000     5.78901
  358. RY (25) O 11             0.00000     5.45181
  359. RY (26) O 11             0.00000     6.43938
  360. RY ( 1) O 12             0.00110     0.80251
  361. RY ( 2) O 12             0.00102     1.05022
  362. RY ( 3) O 12             0.00063     2.35818
  363. RY ( 4) O 12             0.00011     1.58518
  364. RY ( 5) O 12             0.00011     1.99445
  365. RY ( 6) O 12             0.00002     2.13475
  366. RY ( 7) O 12             0.00001     2.01920
  367. RY ( 8) O 12             0.00000     3.26144
  368. RY ( 9) O 12             0.00000     3.34613
  369. RY (10) O 12             0.00000     3.02885
  370. RY (11) O 12             0.00000     5.34592
  371. RY (12) O 12             0.00000     9.35345
  372. RY (13) O 12             0.00000     7.40595
  373. RY (14) O 12             0.00000     6.01477
  374. RY (15) O 12             0.00000     2.12983
  375. RY (16) O 12             0.00000     5.90895
  376. RY (17) O 12             0.00000     3.98733
  377. RY (18) O 12             0.00000     7.31213
  378. RY (19) O 12             0.00000     6.11656
  379. RY (20) O 12             0.00000     4.98012
  380. RY (21) O 12             0.00000     8.66488
  381. RY (22) O 12             0.00000    22.03226
  382. RY (23) O 12             0.00000     5.47665
  383. RY (24) O 12             0.00000     5.48409
  384. RY (25) O 12             0.00000    13.18700
  385. RY (26) O 12             0.00000     6.35177
  386. RY ( 1) H 13             0.00046     0.81488
  387. RY ( 2) H 13             0.00005     2.25126
  388. RY ( 3) H 13             0.00003     2.28890
  389. RY ( 4) H 13             0.00002     2.19802
  390. RY ( 5) H 13             0.00000     2.37652
  391. RY ( 1) H 14             0.00019     0.78568
  392. RY ( 2) H 14             0.00006     2.29353
  393. RY ( 3) H 14             0.00003     2.21952
  394. RY ( 4) H 14             0.00003     2.15956
  395. RY ( 5) H 14             0.00000     2.39267
  396. RY ( 1) H 15             0.00046     0.81486
  397. RY ( 2) H 15             0.00005     2.25127
  398. RY ( 3) H 15             0.00003     2.28893
  399. RY ( 4) H 15             0.00002     2.19803
  400. RY ( 5) H 15             0.00000     2.37649
  401. RY ( 1) H 16             0.00042     0.96740
  402. RY ( 2) H 16             0.00007     2.21545
  403. RY ( 3) H 16             0.00003     2.30444
  404. RY ( 4) H 16             0.00002     2.23791
  405. RY ( 5) H 16             0.00001     2.34088
  406. RY ( 1) H 17             0.00046     0.79099
  407. RY ( 2) H 17             0.00005     2.23486
  408. RY ( 3) H 17             0.00003     2.31595
  409. RY ( 4) H 17             0.00003     2.22621
  410. RY ( 5) H 17             0.00000     2.38582
  411. RY ( 1) H 18             0.00020     0.87030
  412. RY ( 2) H 18             0.00007     2.25608
  413. RY ( 3) H 18             0.00003     2.25366
  414. RY ( 4) H 18             0.00003     2.19889
  415. RY ( 5) H 18             0.00000     2.29858
  416. RY ( 1) H 19             0.00046     0.79094
  417. RY ( 2) H 19             0.00005     2.23488
  418. RY ( 3) H 19             0.00003     2.31608
  419. RY ( 4) H 19             0.00003     2.22605
  420. RY ( 5) H 19             0.00000     2.38577
  421. RY ( 1) H 20             0.00020     0.87028
  422. RY ( 2) H 20             0.00007     2.25602
  423. RY ( 3) H 20             0.00003     2.25368
  424. RY ( 4) H 20             0.00003     2.19882
  425. RY ( 5) H 20             0.00000     2.29860
  426. RY ( 1) H 21             0.00042     0.96695
  427. RY ( 2) H 21             0.00007     2.21559
  428. RY ( 3) H 21             0.00003     2.30425
  429. RY ( 4) H 21             0.00002     2.23762
  430. RY ( 5) H 21             0.00001     2.34143
  431. RY ( 1) H 22             0.00071     1.19339
  432. RY ( 2) H 22             0.00039     2.15094
  433. RY ( 3) H 22             0.00019     1.62636
  434. RY ( 4) H 22             0.00005     2.46997
  435. RY ( 5) H 22             0.00001     3.32609
  436. RY ( 1) H 23             0.00095     0.73480
  437. RY ( 2) H 23             0.00007     2.37260
  438. RY ( 3) H 23             0.00004     2.24215
  439. RY ( 4) H 23             0.00003     2.56084
  440. RY ( 5) H 23             0.00001     2.08211
  441. RY ( 1) H 24             0.00095     0.73476
  442. RY ( 2) H 24             0.00007     2.37265
  443. RY ( 3) H 24             0.00004     2.24208
  444. RY ( 4) H 24             0.00003     2.56088
  445. RY ( 5) H 24             0.00001     2.08214
  446. RY ( 1) H 25             0.00172     0.53812
  447. RY ( 2) H 25             0.00062     1.94823
  448. RY ( 3) H 25             0.00052     1.93732
  449. RY ( 4) H 25             0.00012     2.20781
  450. RY ( 5) H 25             0.00001     3.17886
          -------------------------------
                 Total Lewis   92.67124  ( 98.5864%)
           Valence non-Lewis    1.19122  (  1.2673%)
           Rydberg non-Lewis    0.13754  (  0.1463%)
          -------------------------------
               Total unit  1   94.00000  (100.0000%)
              Charge unit  1    0.00000

 $CHOOSE
   LONE 5 2 7 2 8 1 11 2 12 2 END
   BOND S 1 2 S 1 13 S 1 14 S 1 15 S 2 3 S 2 4 S 2 5 S 3 16 S 3 17 S 3 18
        S 4 19 S 4 20 S 4 21 S 5 6 D 6 7 S 6 8 S 8 9 S 8 22 S 9 10 S 9 23
        S 9 24 D 10 11 S 10 12 S 12 25 END
 $END

 NBO analysis completed in 5.42 CPU seconds (6 wall seconds)
 Maximum scratch memory used by NBO was 2165414 words (16.52 MB)
 Maximum scratch memory used by G16NBO was 315354 words (2.41 MB)

 Opening RunExU unformatted file "/tmp/Gau-1831816.EUF"
 Read unf file /tmp/Gau-1831816.EUF:
 Label Gaussian matrix elements                                         IVers= 2 NLab= 2 Version=AS64L-G16RevC.01
 Title Ac2_rdkit_conf_4_SP_charge                                      
 NAtoms=    25 NBasis=   450 NBsUse=   450 ICharg=     0 Multip=     1 NE=    94 Len12L=8 Len4L=8 IOpCl= 0 ICGU=111
 GAUSSIAN SCALARS                    NI= 1 NR= 1 NTot=       1 LenBuf=    2 NRI=1 N=    1000
 NPA CHARGES                         NI= 0 NR= 1 NTot=      25 LenBuf= 2048 NRI=1 N=      25
 Recovered energy= -630.271417833     dipole=     -0.286005781183      0.279996608379      0.000090867442
 Unable to Open any file for archive entry.
 1\1\GINC-NODE07\SP\RM062X\def2TZVP\C7H13N1O4\SVSS\29-Jan-2024\0\\# pop
 =(nbo6, hirshfeld) m062x/def2tzvp\\Ac2_rdkit_conf_4_SP_charge\\0,1\C,0
 ,-3.308862,1.539993,0.000472\C,0,-2.603121,0.192574,0.000031\C,0,-2.94
 2612,-0.586903,1.263197\C,0,-2.943069,-0.586303,-1.263386\O,0,-1.19625
 9,0.564946,-0.000103\C,0,-0.242965,-0.377887,-0.000222\O,0,-0.416612,-
 1.575343,-0.000014\N,0,0.9847,0.19552,-0.000139\C,0,2.161161,-0.621998
 ,-0.000062\C,0,3.379096,0.261295,-0.000041\O,0,3.361191,1.459841,-0.00
 0029\O,0,4.506147,-0.460661,0.000158\H,0,-3.032631,2.112495,0.886151\H
 ,0,-4.38889,1.392494,0.000621\H,0,-3.032934,2.112914,-0.885031\H,0,-2.
 460693,-1.561266,1.266412\H,0,-2.626275,-0.026517,2.144299\H,0,-4.0233
 35,-0.726266,1.316636\H,0,-2.626995,-0.025521,-2.144331\H,0,-4.023818,
 -0.725578,-1.316533\H,0,-2.461207,-1.560689,-1.267221\H,0,1.088965,1.1
 97792,-0.000203\H,0,2.205485,-1.275955,-0.875452\H,0,2.205408,-1.27590
 5,0.875368\H,0,5.250519,0.158486,0.00023\\Version=AS64L-G16RevC.01\Sta
 te=1-A\HF=-630.2714178\RMSD=9.570e-09\Dipole=0.2860058,0.2799966,-0.00
 00909\Quadrupole=10.5184147,-8.6848434,-1.8335712,-2.522913,0.0006151,
 0.0002675\PG=C01 [X(C7H13N1O4)]\\@
 The archive entry for this job was punched.


 POCKETA-POCKETA
 BARON VON RICHTOFEN
 SLAUGHTERED THE ALLIES WITH
 HARDLY A CARE.
 KILLED EIGHTY-ONE WITH HIS
 BLOOD-COLORED TRIPLANE, THEN
 UN-AEROBATICALLY
 PLUNGED FROM THE AIR.
   -- TONY HOFFMAN
 Job cpu time:       0 days  0 hours 16 minutes 10.9 seconds.
 Elapsed time:       0 days  0 hours  2 minutes 10.8 seconds.
 File lengths (MBytes):  RWF=    112 Int=      0 D2E=      0 Chk=     11 Scr=      1
 Normal termination of Gaussian 16 at Mon Jan 29 15:13:16 2024.
