Job Start Time: Mon Jan 29 12:53:56 MST 2024
SLURM Job ID: 229729
SLURM Job Name: Ac4_rdkit_conf_2_SP_IE
 Entering Gaussian System, Link 0=/opt/apps/Gaussian/G16C/g16/g16
 Initial command:
 /opt/apps/Gaussian/G16C/g16/l1.exe "/tmp/Gau-351766.inp" -scrdir="/tmp/"
 Entering Link 1 = /opt/apps/Gaussian/G16C/g16/l1.exe PID=    351772.
  
 Copyright (c) 1988-2019, Gaussian, Inc.  All Rights Reserved.
  
 This is part of the Gaussian(R) 16 program.  It is based on
 the Gaussian(R) 09 system (copyright 2009, Gaussian, Inc.),
 the Gaussian(R) 03 system (copyright 2003, Gaussian, Inc.),
 the Gaussian(R) 98 system (copyright 1998, Gaussian, Inc.),
 the Gaussian(R) 94 system (copyright 1995, Gaussian, Inc.),
 the Gaussian 92(TM) system (copyright 1992, Gaussian, Inc.),
 the Gaussian 90(TM) system (copyright 1990, Gaussian, Inc.),
 the Gaussian 88(TM) system (copyright 1988, Gaussian, Inc.),
 the Gaussian 86(TM) system (copyright 1986, Carnegie Mellon
 University), and the Gaussian 82(TM) system (copyright 1983,
 Carnegie Mellon University). Gaussian is a federally registered
 trademark of Gaussian, Inc.
  
 This software contains proprietary and confidential information,
 including trade secrets, belonging to Gaussian, Inc.
  
 This software is provided under written license and may be
 used, copied, transmitted, or stored only in accord with that
 written license.
  
 The following legend is applicable only to US Government
 contracts under FAR:
  
                    RESTRICTED RIGHTS LEGEND
  
 Use, reproduction and disclosure by the US Government is
 subject to restrictions as set forth in subparagraphs (a)
 and (c) of the Commercial Computer Software - Restricted
 Rights clause in FAR 52.227-19.
  
 Gaussian, Inc.
 340 Quinnipiac St., Bldg. 40, Wallingford CT 06492
  
  
 ---------------------------------------------------------------
 Warning -- This program may not be used in any manner that
 competes with the business of Gaussian, Inc. or will provide
 assistance to any competitor of Gaussian, Inc.  The licensee
 of this program is prohibited from giving any competitor of
 Gaussian, Inc. access to this program.  By using this program,
 the user acknowledges that Gaussian, Inc. is engaged in the
 business of creating and licensing software in the field of
 computational chemistry and represents and warrants to the
 licensee that it is not a competitor of Gaussian, Inc. and that
 it will not use this program in any manner prohibited above.
 ---------------------------------------------------------------
  

 Cite this work as:
 Gaussian 16, Revision C.01,
 M. J. Frisch, G. W. Trucks, H. B. Schlegel, G. E. Scuseria, 
 M. A. Robb, J. R. Cheeseman, G. Scalmani, V. Barone, 
 G. A. Petersson, H. Nakatsuji, X. Li, M. Caricato, A. V. Marenich, 
 J. Bloino, B. G. Janesko, R. Gomperts, B. Mennucci, H. P. Hratchian, 
 J. V. Ortiz, A. F. Izmaylov, J. L. Sonnenberg, D. Williams-Young, 
 F. Ding, F. Lipparini, F. Egidi, J. Goings, B. Peng, A. Petrone, 
 T. Henderson, D. Ranasinghe, V. G. Zakrzewski, J. Gao, N. Rega, 
 G. Zheng, W. Liang, M. Hada, M. Ehara, K. Toyota, R. Fukuda, 
 J. Hasegawa, M. Ishida, T. Nakajima, Y. Honda, O. Kitao, H. Nakai, 
 T. Vreven, K. Throssell, J. A. Montgomery, Jr., J. E. Peralta, 
 F. Ogliaro, M. J. Bearpark, J. J. Heyd, E. N. Brothers, K. N. Kudin, 
 V. N. Staroverov, T. A. Keith, R. Kobayashi, J. Normand, 
 K. Raghavachari, A. P. Rendell, J. C. Burant, S. S. Iyengar, 
 J. Tomasi, M. Cossi, J. M. Millam, M. Klene, C. Adamo, R. Cammi, 
 J. W. Ochterski, R. L. Martin, K. Morokuma, O. Farkas, 
 J. B. Foresman, and D. J. Fox, Gaussian, Inc., Wallingford CT, 2019.
 
 ******************************************
 Gaussian 16:  AS64L-G16RevC.01  3-Jul-2019
                29-Jan-2024 
 ******************************************
 %nprocshared=8
 Will use up to    8 processors via shared memory.
 %mem=16GB
 ----------------
 # m062x/def2tzvp
 ----------------
 1/38=1,172=1/1;
 2/12=2,17=6,18=5,40=1/2;
 3/5=44,7=101,11=2,25=1,30=1,74=-55/1,2,3;
 4//1;
 5/5=2,38=5/2;
 6/7=2,8=2,9=2,10=2,28=1/1;
 99/5=1,9=1/99;
 ----------------------
 Ac4_rdkit_conf_2_SP_IE
 ----------------------
 Symbolic Z-matrix:
 Charge =  1 Multiplicity = 2
 C                     1.6806    2.51045  -0.04597 
 O                     0.52281   1.70543  -0.03364 
 C                     0.66602   0.3682   -0.00485 
 C                     1.91698  -0.25199   0.00881 
 C                     2.01782  -1.63393   0.02549 
 C                     0.88225  -2.42862   0.02457 
 C                    -0.35793  -1.8176    0.0092 
 C                    -0.49275  -0.43166   0.00003 
 C                    -1.89604   0.07073  -0.0077 
 O                    -2.85132  -0.6526   -0.12756 
 O                    -2.03693   1.39426   0.14599 
 H                     1.3272    3.53734  -0.06938 
 H                     2.28256   2.35341   0.85261 
 H                     2.29046   2.31505  -0.93167 
 H                     2.8182    0.34174   0.00483 
 H                     3.00054  -2.08816   0.03722 
 H                     0.9616   -3.50654   0.03557 
 H                    -1.26779  -2.40243   0.00543 
 H                    -2.99094   1.55943   0.12962 
 
                          Input orientation:                          
 ---------------------------------------------------------------------
 Center     Atomic      Atomic             Coordinates (Angstroms)
 Number     Number       Type             X           Y           Z
 ---------------------------------------------------------------------
      1          6           0        1.680600    2.510447   -0.045968
      2          8           0        0.522812    1.705425   -0.033635
      3          6           0        0.666020    0.368203   -0.004849
      4          6           0        1.916982   -0.251987    0.008808
      5          6           0        2.017818   -1.633932    0.025487
      6          6           0        0.882246   -2.428619    0.024572
      7          6           0       -0.357926   -1.817600    0.009196
      8          6           0       -0.492751   -0.431661    0.000034
      9          6           0       -1.896044    0.070725   -0.007704
     10          8           0       -2.851320   -0.652599   -0.127563
     11          8           0       -2.036930    1.394261    0.145988
     12          1           0        1.327203    3.537343   -0.069384
     13          1           0        2.282556    2.353413    0.852605
     14          1           0        2.290458    2.315049   -0.931668
     15          1           0        2.818195    0.341738    0.004825
     16          1           0        3.000541   -2.088160    0.037217
     17          1           0        0.961599   -3.506535    0.035569
     18          1           0       -1.267787   -2.402434    0.005433
     19          1           0       -2.990939    1.559427    0.129619
 ---------------------------------------------------------------------
                    Distance matrix (angstroms):
                    1          2          3          4          5
     1  C    0.000000
     2  O    1.410208   0.000000
     3  C    2.370711   1.345177   0.000000
     4  C    2.773070   2.403533   1.396327   0.000000
     5  C    4.158690   3.659214   2.415952   1.385719   0.000000
     6  C    5.003670   4.150048   2.805322   2.410115   1.386020
     7  C    4.784415   3.631699   2.413793   2.761585   2.382889
     8  C    3.658083   2.366356   1.408033   2.416438   2.783713
     9  C    4.329675   2.919551   2.579278   3.826693   4.269107
    10  O    5.527189   4.117507   3.664529   4.787044   4.969401
    11  O    3.886225   2.584834   2.895080   4.285134   5.062159
    12  H    1.086256   2.001061   3.238020   3.835750   5.218049
    13  H    1.092906   2.074128   2.699903   2.762924   4.080825
    14  H    1.092965   2.074290   2.699630   2.759285   4.072460
    15  H    2.449490   2.670188   2.152359   1.079217   2.131737
    16  H    4.785013   4.531605   3.389023   2.132238   1.082684
    17  H    6.060337   5.230856   3.886206   3.391984   2.149963
    18  H    5.729924   4.481325   3.378779   3.842810   3.374344
    19  H    4.770592   3.520570   3.848434   5.232925   5.941046
                    6          7          8          9         10
     6  C    0.000000
     7  C    1.382609   0.000000
     8  C    2.424677   1.392512   0.000000
     9  C    3.737199   2.435542   1.490531   0.000000
    10  O    4.137258   2.755530   2.372328   1.204208   0.000000
    11  O    4.811522   3.626819   2.395784   1.339857   2.219842
    12  H    5.983270   5.614379   4.366926   4.733980   5.917690
    13  H    5.051172   5.008077   4.023163   4.838543   6.029388
    14  H    5.039826   4.997795   4.019793   4.839163   5.990943
    15  H    3.379818   3.840639   3.400078   4.722039   5.757572
    16  H    2.145518   3.369464   3.866324   5.351574   6.027625
    17  H    1.080889   2.143442   3.401654   4.578732   4.765492
    18  H    2.150278   1.081615   2.117701   2.551743   2.363723
    19  H    5.560315   4.283873   3.197212   1.853075   2.231299
                   11         12         13         14         15
    11  O    0.000000
    12  H    3.994568   0.000000
    13  H    4.480763   1.778891   0.000000
    14  H    4.553623   1.779156   1.784703   0.000000
    15  H    4.969906   3.527103   2.247771   2.247105   0.000000
    16  H    6.124965   5.870069   4.572519   4.564122   2.436946
    17  H    5.746405   7.054141   6.062299   6.049153   4.272833
    18  H    3.876368   6.482324   5.995058   5.982801   4.921964
    19  H    0.968339   4.753746   5.381716   5.439710   5.936698
                   16         17         18         19
    16  H    0.000000
    17  H    2.483762   0.000000
    18  H    4.280000   2.487993   0.000000
    19  H    7.015074   6.426148   4.322154   0.000000
 Stoichiometry    C8H8O3(1+,2)
 Framework group  C1[X(C8H8O3)]
 Deg. of freedom    51
 Full point group                 C1      NOp   1
 Largest Abelian subgroup         C1      NOp   1
 Largest concise Abelian subgroup C1      NOp   1
                         Standard orientation:                         
 ---------------------------------------------------------------------
 Center     Atomic      Atomic             Coordinates (Angstroms)
 Number     Number       Type             X           Y           Z
 ---------------------------------------------------------------------
      1          6           0       -1.680601    2.510446    0.045968
      2          8           0       -0.522813    1.705425    0.033635
      3          6           0       -0.666020    0.368203    0.004849
      4          6           0       -1.916982   -0.251988   -0.008808
      5          6           0       -2.017817   -1.633933   -0.025487
      6          6           0       -0.882245   -2.428619   -0.024572
      7          6           0        0.357927   -1.817600   -0.009196
      8          6           0        0.492751   -0.431661   -0.000034
      9          6           0        1.896044    0.070726    0.007704
     10          8           0        2.851320   -0.652598    0.127563
     11          8           0        2.036929    1.394262   -0.145988
     12          1           0       -1.327205    3.537343    0.069384
     13          1           0       -2.282557    2.353412   -0.852605
     14          1           0       -2.290459    2.315048    0.931668
     15          1           0       -2.818195    0.341737   -0.004825
     16          1           0       -3.000540   -2.088161   -0.037217
     17          1           0       -0.961598   -3.506535   -0.035569
     18          1           0        1.267788   -2.402433   -0.005433
     19          1           0        2.990938    1.559428   -0.129619
 ---------------------------------------------------------------------
 Rotational constants (GHZ):           1.4121687           1.1670760           0.6427161
 Standard basis: def2TZVP (5D, 7F)
 There are   444 symmetry adapted cartesian basis functions of A   symmetry.
 There are   389 symmetry adapted basis functions of A   symmetry.
   389 basis functions,   625 primitive gaussians,   444 cartesian basis functions
    40 alpha electrons       39 beta electrons
       nuclear repulsion energy       597.3001573793 Hartrees.
 NAtoms=   19 NActive=   19 NUniq=   19 SFac= 1.00D+00 NAtFMM=   60 NAOKFM=F Big=F
 Integral buffers will be    131072 words long.
 Raffenetti 2 integral format.
 Two-electron integral symmetry is turned on.
 One-electron integrals computed using PRISM.
   1 Symmetry operations used in ECPInt.
 ECPInt:  NShTT=   11781 NPrTT=   36312 LenC2=   11266 LenP2D=   26668.
 LDataN:  DoStor=T MaxTD1= 6 Len=  172
 NBasis=   389 RedAO= T EigKep=  7.57D-06  NBF=   389
 NBsUse=   389 1.00D-06 EigRej= -1.00D+00 NBFU=   389
 ExpMin= 9.52D-02 ExpMax= 2.70D+04 ExpMxC= 9.22D+02 IAcc=3 IRadAn=         5 AccDes= 0.00D+00
 Harris functional with IExCor= 1009 and IRadAn=       5 diagonalized for initial guess.
 HarFok:  IExCor= 1009 AccDes= 0.00D+00 IRadAn=         5 IDoV= 1 UseB2=F ITyADJ=14
 ICtDFT=  3500011 ScaDFX=  1.000000  1.000000  1.000000  1.000000
 FoFCou: FMM=F IPFlag=           0 FMFlag=      100000 FMFlg1=           0
         NFxFlg=           0 DoJE=T BraDBF=F KetDBF=T FulRan=T
         wScrn=  0.000000 ICntrl=       500 IOpCl=  0 I1Cent=   200000004 NGrid=           0
         NMat0=    1 NMatS0=      1 NMatT0=    0 NMatD0=    1 NMtDS0=    0 NMtDT0=    0
 Petite list used in FoFCou.
 Initial guess <Sx>= 0.0000 <Sy>= 0.0000 <Sz>= 0.5000 <S**2>= 0.7500 S= 0.5000
 Requested convergence on RMS density matrix=1.00D-08 within 128 cycles.
 Requested convergence on MAX density matrix=1.00D-06.
 Requested convergence on             energy=1.00D-06.
 No special actions if energy rises.
 Integral accuracy reduced to 1.0D-05 until final iterations.
 Problem detected with inexpensive integrals.
 Switching to full accuracy and repeating last cycle.
 SCF Done:  E(UM062X) =  -535.018205854     A.U. after   24 cycles
            NFock= 24  Conv=0.51D-08     -V/T= 2.0044
 <Sx>= 0.0000 <Sy>= 0.0000 <Sz>= 0.5000 <S**2>= 0.7727 S= 0.5113
 <L.S>=  0.00000000000    
 Annihilation of the first spin contaminant:
 S**2 before annihilation     0.7727,   after     0.7503

 **********************************************************************

            Population analysis using the SCF Density.

 **********************************************************************

 Orbital symmetries:
 Alpha Orbitals:
       Occupied  (A) (A) (A) (A) (A) (A) (A) (A) (A) (A) (A) (A)
                 (A) (A) (A) (A) (A) (A) (A) (A) (A) (A) (A) (A)
                 (A) (A) (A) (A) (A) (A) (A) (A) (A) (A) (A) (A)
                 (A) (A) (A) (A)
       Virtual   (A) (A) (A) (A) (A) (A) (A) (A) (A) (A) (A) (A)
                 (A) (A) (A) (A) (A) (A) (A) (A) (A) (A) (A) (A)
                 (A) (A) (A) (A) (A) (A) (A) (A) (A) (A) (A) (A)
                 (A) (A) (A) (A) (A) (A) (A) (A) (A) (A) (A) (A)
                 (A) (A) (A) (A) (A) (A) (A) (A) (A) (A) (A) (A)
                 (A) (A) (A) (A) (A) (A) (A) (A) (A) (A) (A) (A)
                 (A) (A) (A) (A) (A) (A) (A) (A) (A) (A) (A) (A)
                 (A) (A) (A) (A) (A) (A) (A) (A) (A) (A) (A) (A)
                 (A) (A) (A) (A) (A) (A) (A) (A) (A) (A) (A) (A)
                 (A) (A) (A) (A) (A) (A) (A) (A) (A) (A) (A) (A)
                 (A) (A) (A) (A) (A) (A) (A) (A) (A) (A) (A) (A)
                 (A) (A) (A) (A) (A) (A) (A) (A) (A) (A) (A) (A)
                 (A) (A) (A) (A) (A) (A) (A) (A) (A) (A) (A) (A)
                 (A) (A) (A) (A) (A) (A) (A) (A) (A) (A) (A) (A)
                 (A) (A) (A) (A) (A) (A) (A) (A) (A) (A) (A) (A)
                 (A) (A) (A) (A) (A) (A) (A) (A) (A) (A) (A) (A)
                 (A) (A) (A) (A) (A) (A) (A) (A) (A) (A) (A) (A)
                 (A) (A) (A) (A) (A) (A) (A) (A) (A) (A) (A) (A)
                 (A) (A) (A) (A) (A) (A) (A) (A) (A) (A) (A) (A)
                 (A) (A) (A) (A) (A) (A) (A) (A) (A) (A) (A) (A)
                 (A) (A) (A) (A) (A) (A) (A) (A) (A) (A) (A) (A)
                 (A) (A) (A) (A) (A) (A) (A) (A) (A) (A) (A) (A)
                 (A) (A) (A) (A) (A) (A) (A) (A) (A) (A) (A) (A)
                 (A) (A) (A) (A) (A) (A) (A) (A) (A) (A) (A) (A)
                 (A) (A) (A) (A) (A) (A) (A) (A) (A) (A) (A) (A)
                 (A) (A) (A) (A) (A) (A) (A) (A) (A) (A) (A) (A)
                 (A) (A) (A) (A) (A) (A) (A) (A) (A) (A) (A) (A)
                 (A) (A) (A) (A) (A) (A) (A) (A) (A) (A) (A) (A)
                 (A) (A) (A) (A) (A) (A) (A) (A) (A) (A) (A) (A)
                 (A)
 Beta  Orbitals:
       Occupied  (A) (A) (A) (A) (A) (A) (A) (A) (A) (A) (A) (A)
                 (A) (A) (A) (A) (A) (A) (A) (A) (A) (A) (A) (A)
                 (A) (A) (A) (A) (A) (A) (A) (A) (A) (A) (A) (A)
                 (A) (A) (A)
       Virtual   (A) (A) (A) (A) (A) (A) (A) (A) (A) (A) (A) (A)
                 (A) (A) (A) (A) (A) (A) (A) (A) (A) (A) (A) (A)
                 (A) (A) (A) (A) (A) (A) (A) (A) (A) (A) (A) (A)
                 (A) (A) (A) (A) (A) (A) (A) (A) (A) (A) (A) (A)
                 (A) (A) (A) (A) (A) (A) (A) (A) (A) (A) (A) (A)
                 (A) (A) (A) (A) (A) (A) (A) (A) (A) (A) (A) (A)
                 (A) (A) (A) (A) (A) (A) (A) (A) (A) (A) (A) (A)
                 (A) (A) (A) (A) (A) (A) (A) (A) (A) (A) (A) (A)
                 (A) (A) (A) (A) (A) (A) (A) (A) (A) (A) (A) (A)
                 (A) (A) (A) (A) (A) (A) (A) (A) (A) (A) (A) (A)
                 (A) (A) (A) (A) (A) (A) (A) (A) (A) (A) (A) (A)
                 (A) (A) (A) (A) (A) (A) (A) (A) (A) (A) (A) (A)
                 (A) (A) (A) (A) (A) (A) (A) (A) (A) (A) (A) (A)
                 (A) (A) (A) (A) (A) (A) (A) (A) (A) (A) (A) (A)
                 (A) (A) (A) (A) (A) (A) (A) (A) (A) (A) (A) (A)
                 (A) (A) (A) (A) (A) (A) (A) (A) (A) (A) (A) (A)
                 (A) (A) (A) (A) (A) (A) (A) (A) (A) (A) (A) (A)
                 (A) (A) (A) (A) (A) (A) (A) (A) (A) (A) (A) (A)
                 (A) (A) (A) (A) (A) (A) (A) (A) (A) (A) (A) (A)
                 (A) (A) (A) (A) (A) (A) (A) (A) (A) (A) (A) (A)
                 (A) (A) (A) (A) (A) (A) (A) (A) (A) (A) (A) (A)
                 (A) (A) (A) (A) (A) (A) (A) (A) (A) (A) (A) (A)
                 (A) (A) (A) (A) (A) (A) (A) (A) (A) (A) (A) (A)
                 (A) (A) (A) (A) (A) (A) (A) (A) (A) (A) (A) (A)
                 (A) (A) (A) (A) (A) (A) (A) (A) (A) (A) (A) (A)
                 (A) (A) (A) (A) (A) (A) (A) (A) (A) (A) (A) (A)
                 (A) (A) (A) (A) (A) (A) (A) (A) (A) (A) (A) (A)
                 (A) (A) (A) (A) (A) (A) (A) (A) (A) (A) (A) (A)
                 (A) (A) (A) (A) (A) (A) (A) (A) (A) (A) (A) (A)
                 (A) (A)
 The electronic state is 2-A.
 Alpha  occ. eigenvalues --  -19.90922 -19.81638 -19.76966 -10.84852 -10.83753
 Alpha  occ. eigenvalues --  -10.77143 -10.77138 -10.76735 -10.76197 -10.75525
 Alpha  occ. eigenvalues --  -10.74871  -1.43747  -1.38950  -1.29094  -1.18714
 Alpha  occ. eigenvalues --   -1.08441  -1.06692  -1.00002  -0.94132  -0.88700
 Alpha  occ. eigenvalues --   -0.86872  -0.82077  -0.78568  -0.77688  -0.76776
 Alpha  occ. eigenvalues --   -0.73026  -0.72228  -0.70973  -0.69684  -0.68980
 Alpha  occ. eigenvalues --   -0.65475  -0.64837  -0.63529  -0.62636  -0.61206
 Alpha  occ. eigenvalues --   -0.59438  -0.54883  -0.52034  -0.51693  -0.51170
 Alpha virt. eigenvalues --   -0.20734  -0.18097  -0.08172  -0.08070  -0.07085
 Alpha virt. eigenvalues --   -0.05433  -0.03988  -0.02664  -0.01510  -0.00244
 Alpha virt. eigenvalues --    0.00162   0.00484   0.01858   0.01948   0.03908
 Alpha virt. eigenvalues --    0.05413   0.06045   0.06475   0.08077   0.09001
 Alpha virt. eigenvalues --    0.09115   0.10218   0.11063   0.12190   0.13297
 Alpha virt. eigenvalues --    0.13652   0.15075   0.15791   0.17169   0.17392
 Alpha virt. eigenvalues --    0.18817   0.20276   0.21091   0.22074   0.22619
 Alpha virt. eigenvalues --    0.23395   0.25230   0.25808   0.26597   0.27627
 Alpha virt. eigenvalues --    0.28776   0.29055   0.29200   0.30751   0.32316
 Alpha virt. eigenvalues --    0.32823   0.33434   0.34353   0.34570   0.35576
 Alpha virt. eigenvalues --    0.36423   0.36989   0.38098   0.38735   0.40190
 Alpha virt. eigenvalues --    0.42090   0.43231   0.44750   0.45643   0.46169
 Alpha virt. eigenvalues --    0.48035   0.49993   0.50892   0.52547   0.53068
 Alpha virt. eigenvalues --    0.54271   0.55348   0.57031   0.57408   0.58745
 Alpha virt. eigenvalues --    0.59404   0.61376   0.61744   0.63008   0.65751
 Alpha virt. eigenvalues --    0.66358   0.67782   0.69652   0.70383   0.71493
 Alpha virt. eigenvalues --    0.73214   0.75121   0.76321   0.79013   0.79653
 Alpha virt. eigenvalues --    0.80395   0.82393   0.82626   0.83971   0.85381
 Alpha virt. eigenvalues --    0.86405   0.89598   0.91328   0.93470   0.95926
 Alpha virt. eigenvalues --    0.97117   0.98836   1.01567   1.03321   1.05002
 Alpha virt. eigenvalues --    1.06243   1.07858   1.08937   1.09964   1.11909
 Alpha virt. eigenvalues --    1.14390   1.17235   1.18042   1.22032   1.22596
 Alpha virt. eigenvalues --    1.26569   1.27262   1.28029   1.29707   1.33066
 Alpha virt. eigenvalues --    1.34934   1.35460   1.36159   1.36864   1.38072
 Alpha virt. eigenvalues --    1.39220   1.39913   1.41746   1.42319   1.43908
 Alpha virt. eigenvalues --    1.45057   1.46966   1.49843   1.51124   1.53442
 Alpha virt. eigenvalues --    1.53937   1.55637   1.57315   1.57821   1.58384
 Alpha virt. eigenvalues --    1.63424   1.65736   1.67818   1.68712   1.70105
 Alpha virt. eigenvalues --    1.70450   1.71861   1.75690   1.78070   1.79246
 Alpha virt. eigenvalues --    1.80490   1.81932   1.84048   1.86037   1.87922
 Alpha virt. eigenvalues --    1.89090   1.90822   1.92061   1.93195   1.94563
 Alpha virt. eigenvalues --    1.95675   1.97884   1.99034   2.03329   2.04068
 Alpha virt. eigenvalues --    2.06405   2.07021   2.10384   2.10669   2.13077
 Alpha virt. eigenvalues --    2.16185   2.17388   2.18096   2.20527   2.23181
 Alpha virt. eigenvalues --    2.24118   2.25964   2.28966   2.31318   2.32933
 Alpha virt. eigenvalues --    2.34349   2.35092   2.38152   2.39880   2.40575
 Alpha virt. eigenvalues --    2.42345   2.44808   2.46278   2.46414   2.47023
 Alpha virt. eigenvalues --    2.48304   2.51048   2.51408   2.53601   2.54223
 Alpha virt. eigenvalues --    2.56144   2.58205   2.59364   2.61844   2.63213
 Alpha virt. eigenvalues --    2.65080   2.65662   2.66628   2.67619   2.68221
 Alpha virt. eigenvalues --    2.69926   2.70265   2.71726   2.73603   2.73818
 Alpha virt. eigenvalues --    2.75786   2.76655   2.80024   2.81963   2.82462
 Alpha virt. eigenvalues --    2.84573   2.85905   2.88105   2.88584   2.89262
 Alpha virt. eigenvalues --    2.92462   2.94638   2.96637   2.96816   2.97694
 Alpha virt. eigenvalues --    2.98970   3.00609   3.01740   3.02650   3.04359
 Alpha virt. eigenvalues --    3.05591   3.07407   3.10354   3.11247   3.12078
 Alpha virt. eigenvalues --    3.13580   3.14298   3.14502   3.15354   3.16372
 Alpha virt. eigenvalues --    3.17364   3.18667   3.20278   3.22024   3.22509
 Alpha virt. eigenvalues --    3.24307   3.25801   3.27775   3.28206   3.31004
 Alpha virt. eigenvalues --    3.32340   3.32809   3.33464   3.34516   3.38036
 Alpha virt. eigenvalues --    3.39362   3.42009   3.44248   3.45492   3.46222
 Alpha virt. eigenvalues --    3.47294   3.55055   3.57095   3.61031   3.64457
 Alpha virt. eigenvalues --    3.67368   3.68260   3.71844   3.73259   3.74627
 Alpha virt. eigenvalues --    3.79364   3.89535   3.90787   3.92403   3.93055
 Alpha virt. eigenvalues --    3.93887   3.95175   3.97476   3.98783   3.99432
 Alpha virt. eigenvalues --    4.03176   4.03386   4.05892   4.07759   4.12290
 Alpha virt. eigenvalues --    4.21313   4.21813   4.25308   4.28237   4.32486
 Alpha virt. eigenvalues --    4.35118   4.38475   4.39414   4.41188   4.43089
 Alpha virt. eigenvalues --    4.54354   4.58201   4.62907   4.66848   4.71898
 Alpha virt. eigenvalues --    4.86540   4.92703   4.94641   5.02199   5.06363
 Alpha virt. eigenvalues --    5.07912   5.08266   5.10327   5.15147   5.16017
 Alpha virt. eigenvalues --    5.24795   5.27791   5.30628   5.38654   5.42644
 Alpha virt. eigenvalues --    5.52417   5.53736   5.66469   5.68197   5.75143
 Alpha virt. eigenvalues --    5.80386   5.82220   6.00516   6.08583   6.16002
 Alpha virt. eigenvalues --    6.18679   6.23914   6.29532   6.32274   6.39738
 Alpha virt. eigenvalues --    6.40673   6.56093   6.59355   6.60200   6.62001
 Alpha virt. eigenvalues --    6.67256   6.70387   6.79581   6.94851   6.95858
 Alpha virt. eigenvalues --    7.04227   7.17167   7.23759  22.07126  22.34888
 Alpha virt. eigenvalues --   22.52724  22.58053  22.75716  22.81129  23.17643
 Alpha virt. eigenvalues --   23.44805  43.85083  43.89402  44.17858
  Beta  occ. eigenvalues --  -19.90269 -19.81644 -19.76915 -10.84775 -10.83774
  Beta  occ. eigenvalues --  -10.77043 -10.76944 -10.76751 -10.76119 -10.75570
  Beta  occ. eigenvalues --  -10.74924  -1.41963  -1.38886  -1.29003  -1.17939
  Beta  occ. eigenvalues --   -1.07704  -1.06080  -0.99325  -0.93865  -0.88233
  Beta  occ. eigenvalues --   -0.86391  -0.81615  -0.78137  -0.76245  -0.74181
  Beta  occ. eigenvalues --   -0.72805  -0.72095  -0.70780  -0.69088  -0.68475
  Beta  occ. eigenvalues --   -0.64728  -0.63656  -0.63288  -0.62399  -0.59002
  Beta  occ. eigenvalues --   -0.57220  -0.54517  -0.51731  -0.51067
  Beta virt. eigenvalues --   -0.34997  -0.19173  -0.15169  -0.08025  -0.07324
  Beta virt. eigenvalues --   -0.07196  -0.05366  -0.03907  -0.02596  -0.01623
  Beta virt. eigenvalues --   -0.00463   0.00167   0.00476   0.01729   0.03024
  Beta virt. eigenvalues --    0.03746   0.05449   0.05727   0.06754   0.08186
  Beta virt. eigenvalues --    0.08720   0.08958   0.10095   0.10962   0.12120
  Beta virt. eigenvalues --    0.12865   0.13239   0.15246   0.16068   0.16975
  Beta virt. eigenvalues --    0.17781   0.18771   0.19933   0.21240   0.22100
  Beta virt. eigenvalues --    0.22341   0.23120   0.25337   0.25951   0.26372
  Beta virt. eigenvalues --    0.27689   0.28780   0.28882   0.29314   0.30647
  Beta virt. eigenvalues --    0.32518   0.32968   0.33713   0.34377   0.34762
  Beta virt. eigenvalues --    0.35220   0.36468   0.37183   0.38250   0.38697
  Beta virt. eigenvalues --    0.40212   0.42129   0.43387   0.45014   0.45571
  Beta virt. eigenvalues --    0.46180   0.48315   0.49531   0.51008   0.52636
  Beta virt. eigenvalues --    0.53237   0.54165   0.55476   0.56994   0.57676
  Beta virt. eigenvalues --    0.58800   0.59580   0.61544   0.61774   0.62508
  Beta virt. eigenvalues --    0.65957   0.66452   0.67906   0.69756   0.70674
  Beta virt. eigenvalues --    0.71697   0.73141   0.74947   0.76458   0.79087
  Beta virt. eigenvalues --    0.79746   0.80447   0.82399   0.82799   0.84073
  Beta virt. eigenvalues --    0.85350   0.86422   0.89669   0.91334   0.93730
  Beta virt. eigenvalues --    0.96112   0.97280   0.99170   1.01687   1.03509
  Beta virt. eigenvalues --    1.05308   1.06419   1.08259   1.09343   1.10242
  Beta virt. eigenvalues --    1.12325   1.14802   1.17436   1.18432   1.22411
  Beta virt. eigenvalues --    1.23715   1.26872   1.27538   1.28566   1.30397
  Beta virt. eigenvalues --    1.33134   1.35370   1.36321   1.36581   1.37402
  Beta virt. eigenvalues --    1.38517   1.39729   1.40046   1.41792   1.42362
  Beta virt. eigenvalues --    1.44005   1.45589   1.47157   1.51020   1.51456
  Beta virt. eigenvalues --    1.54114   1.54702   1.55917   1.57622   1.58178
  Beta virt. eigenvalues --    1.58778   1.63597   1.66151   1.68450   1.68969
  Beta virt. eigenvalues --    1.70640   1.71356   1.72518   1.75979   1.78213
  Beta virt. eigenvalues --    1.79693   1.80820   1.82444   1.84406   1.86431
  Beta virt. eigenvalues --    1.88180   1.89429   1.91275   1.92416   1.93450
  Beta virt. eigenvalues --    1.94912   1.96088   1.98503   1.99469   2.03948
  Beta virt. eigenvalues --    2.04723   2.06747   2.07598   2.10628   2.10874
  Beta virt. eigenvalues --    2.13469   2.16790   2.18458   2.19267   2.20912
  Beta virt. eigenvalues --    2.23312   2.24380   2.26649   2.29182   2.31688
  Beta virt. eigenvalues --    2.33257   2.34859   2.35899   2.39504   2.40351
  Beta virt. eigenvalues --    2.41102   2.42794   2.45618   2.47315   2.47579
  Beta virt. eigenvalues --    2.48471   2.49235   2.51598   2.53092   2.54364
  Beta virt. eigenvalues --    2.55746   2.56997   2.59476   2.60101   2.62889
  Beta virt. eigenvalues --    2.64355   2.65659   2.66458   2.67120   2.68342
  Beta virt. eigenvalues --    2.68759   2.70750   2.71323   2.72237   2.74191
  Beta virt. eigenvalues --    2.74469   2.76616   2.77199   2.80423   2.82759
  Beta virt. eigenvalues --    2.83120   2.85432   2.86392   2.88658   2.88895
  Beta virt. eigenvalues --    2.89744   2.93217   2.95344   2.97087   2.97516
  Beta virt. eigenvalues --    2.98307   2.99843   3.01633   3.02580   3.03903
  Beta virt. eigenvalues --    3.04760   3.05978   3.07964   3.10953   3.12102
  Beta virt. eigenvalues --    3.12841   3.14309   3.14915   3.15144   3.15861
  Beta virt. eigenvalues --    3.17044   3.18192   3.19448   3.20883   3.22667
  Beta virt. eigenvalues --    3.23436   3.25294   3.26821   3.28627   3.28875
  Beta virt. eigenvalues --    3.31755   3.32990   3.33831   3.34481   3.35058
  Beta virt. eigenvalues --    3.38826   3.40005   3.42472   3.45287   3.46386
  Beta virt. eigenvalues --    3.46840   3.47953   3.55905   3.57803   3.62363
  Beta virt. eigenvalues --    3.65001   3.68517   3.69044   3.72260   3.74027
  Beta virt. eigenvalues --    3.75632   3.80475   3.90014   3.91813   3.93767
  Beta virt. eigenvalues --    3.94855   3.96590   3.97028   3.98473   4.00113
  Beta virt. eigenvalues --    4.01036   4.04671   4.05000   4.06425   4.09041
  Beta virt. eigenvalues --    4.13442   4.21590   4.23001   4.26529   4.29209
  Beta virt. eigenvalues --    4.33415   4.37805   4.39931   4.40922   4.42750
  Beta virt. eigenvalues --    4.44664   4.56650   4.59361   4.64404   4.68650
  Beta virt. eigenvalues --    4.73374   4.89100   4.94493   4.96268   5.02310
  Beta virt. eigenvalues --    5.08062   5.08468   5.10520   5.10841   5.16180
  Beta virt. eigenvalues --    5.18716   5.24887   5.28641   5.31359   5.38766
  Beta virt. eigenvalues --    5.43757   5.53197   5.54677   5.66666   5.68847
  Beta virt. eigenvalues --    5.75374   5.80470   5.82728   6.00705   6.08941
  Beta virt. eigenvalues --    6.16203   6.18976   6.24022   6.29821   6.32562
  Beta virt. eigenvalues --    6.40123   6.43231   6.56138   6.59834   6.62435
  Beta virt. eigenvalues --    6.64180   6.67579   6.70617   6.79766   6.94968
  Beta virt. eigenvalues --    6.96032   7.04281   7.17840   7.23968  22.07335
  Beta virt. eigenvalues --   22.34848  22.53058  22.58462  22.76195  22.81426
  Beta virt. eigenvalues --   23.17947  23.45127  43.85083  43.89395  44.17805
          Condensed to atoms (all electrons):
               1          2          3          4          5          6
     1  C    4.986984   0.200020  -0.084625   0.011144  -0.001654   0.001163
     2  O    0.200020   7.727579   0.426512  -0.061311   0.002968  -0.001302
     3  C   -0.084625   0.426512   4.809105   0.401274  -0.005925  -0.044006
     4  C    0.011144  -0.061311   0.401274   5.026124   0.486231  -0.022297
     5  C   -0.001654   0.002968  -0.005925   0.486231   4.911330   0.431373
     6  C    0.001163  -0.001302  -0.044006  -0.022297   0.431373   4.881478
     7  C   -0.002226   0.005822  -0.009324  -0.058992  -0.019139   0.431015
     8  C    0.006225  -0.103911   0.273467  -0.004913  -0.059442  -0.021872
     9  C    0.001030  -0.000590  -0.060994   0.004570  -0.003482   0.010777
    10  O    0.000016  -0.000101   0.005212  -0.001024   0.000382   0.002797
    11  O    0.002097  -0.015564  -0.000477  -0.000419   0.000024  -0.000046
    12  H    0.402727  -0.026624   0.004830  -0.000466   0.000136  -0.000028
    13  H    0.410059  -0.026361  -0.011940  -0.000037  -0.000007   0.000050
    14  H    0.409571  -0.024033  -0.013133   0.000955   0.000142   0.000029
    15  H    0.000976  -0.002084  -0.028869   0.396437  -0.000626  -0.000213
    16  H    0.000018  -0.000077   0.001039  -0.009923   0.393185  -0.020165
    17  H    0.000001   0.000007  -0.000385   0.004830  -0.028736   0.410548
    18  H    0.000005   0.000041   0.012788  -0.002608   0.005140  -0.034002
    19  H   -0.000049   0.000401  -0.000598   0.000123  -0.000009   0.000011
               7          8          9         10         11         12
     1  C   -0.002226   0.006225   0.001030   0.000016   0.002097   0.402727
     2  O    0.005822  -0.103911  -0.000590  -0.000101  -0.015564  -0.026624
     3  C   -0.009324   0.273467  -0.060994   0.005212  -0.000477   0.004830
     4  C   -0.058992  -0.004913   0.004570  -0.001024  -0.000419  -0.000466
     5  C   -0.019139  -0.059442  -0.003482   0.000382   0.000024   0.000136
     6  C    0.431015  -0.021872   0.010777   0.002797  -0.000046  -0.000028
     7  C    4.952867   0.456190  -0.078206   0.026670   0.005857   0.000088
     8  C    0.456190   5.393439   0.295110  -0.117265  -0.109701   0.000011
     9  C   -0.078206   0.295110   4.485180   0.630952   0.409739  -0.000152
    10  O    0.026670  -0.117265   0.630952   7.791825  -0.082782   0.000000
    11  O    0.005857  -0.109701   0.409739  -0.082782   7.877299   0.000121
    12  H    0.000088   0.000011  -0.000152   0.000000   0.000121   0.436795
    13  H   -0.000107  -0.000259   0.000111  -0.000000  -0.000070  -0.011422
    14  H   -0.000056  -0.001459  -0.000093  -0.000000  -0.000056  -0.011601
    15  H    0.001346   0.001441  -0.000024  -0.000000  -0.000006   0.000194
    16  H    0.000786   0.000972   0.000045   0.000001  -0.000001   0.000000
    17  H   -0.027388   0.004166  -0.000125  -0.000060   0.000001  -0.000000
    18  H    0.404657  -0.017560  -0.020883   0.016216   0.000707   0.000000
    19  H   -0.000906   0.020424  -0.026020   0.005298   0.298846  -0.000007
              13         14         15         16         17         18
     1  C    0.410059   0.409571   0.000976   0.000018   0.000001   0.000005
     2  O   -0.026361  -0.024033  -0.002084  -0.000077   0.000007   0.000041
     3  C   -0.011940  -0.013133  -0.028869   0.001039  -0.000385   0.012788
     4  C   -0.000037   0.000955   0.396437  -0.009923   0.004830  -0.002608
     5  C   -0.000007   0.000142  -0.000626   0.393185  -0.028736   0.005140
     6  C    0.000050   0.000029  -0.000213  -0.020165   0.410548  -0.034002
     7  C   -0.000107  -0.000056   0.001346   0.000786  -0.027388   0.404657
     8  C   -0.000259  -0.001459   0.001441   0.000972   0.004166  -0.017560
     9  C    0.000111  -0.000093  -0.000024   0.000045  -0.000125  -0.020883
    10  O   -0.000000  -0.000000  -0.000000   0.000001  -0.000060   0.016216
    11  O   -0.000070  -0.000056  -0.000006  -0.000001   0.000001   0.000707
    12  H   -0.011422  -0.011601   0.000194   0.000000  -0.000000   0.000000
    13  H    0.484638  -0.040528  -0.003295  -0.000002   0.000001  -0.000001
    14  H   -0.040528   0.485362  -0.004035  -0.000001   0.000001   0.000000
    15  H   -0.003295  -0.004035   0.424119  -0.001493  -0.000096   0.000012
    16  H   -0.000002  -0.000001  -0.001493   0.429044  -0.001727  -0.000067
    17  H    0.000001   0.000001  -0.000096  -0.001727   0.422736  -0.001468
    18  H   -0.000001   0.000000   0.000012  -0.000067  -0.001468   0.409381
    19  H    0.000002   0.000002   0.000000   0.000000  -0.000000  -0.000051
              19
     1  C   -0.000049
     2  O    0.000401
     3  C   -0.000598
     4  C    0.000123
     5  C   -0.000009
     6  C    0.000011
     7  C   -0.000906
     8  C    0.020424
     9  C   -0.026020
    10  O    0.005298
    11  O    0.298846
    12  H   -0.000007
    13  H    0.000002
    14  H    0.000002
    15  H    0.000000
    16  H    0.000000
    17  H   -0.000000
    18  H   -0.000051
    19  H    0.335606
          Atomic-Atomic Spin Densities.
               1          2          3          4          5          6
     1  C   -0.017846  -0.005629   0.002656  -0.000030   0.000561  -0.000095
     2  O   -0.005629   0.365082  -0.069913  -0.002433   0.000039   0.000597
     3  C    0.002656  -0.069913   0.123719   0.046746  -0.006027  -0.004985
     4  C   -0.000030  -0.002433   0.046746   0.144380  -0.030022  -0.011337
     5  C    0.000561   0.000039  -0.006027  -0.030022  -0.091082   0.044372
     6  C   -0.000095   0.000597  -0.004985  -0.011337   0.044372   0.384442
     7  C    0.000064  -0.000484  -0.005110  -0.002325  -0.004183   0.033842
     8  C    0.000537  -0.015541   0.053061   0.005705  -0.000465  -0.015260
     9  C   -0.000023   0.001436   0.000848   0.000558  -0.000142   0.000371
    10  O    0.000000   0.000031  -0.000202  -0.000059   0.000027   0.000014
    11  O   -0.000016   0.000466   0.000131  -0.000075   0.000012  -0.000016
    12  H   -0.000449  -0.000128   0.000278  -0.000180  -0.000004   0.000000
    13  H    0.003704  -0.003948   0.002397   0.001227  -0.000042  -0.000034
    14  H    0.003967  -0.004101   0.002437   0.001187  -0.000095  -0.000040
    15  H    0.000247  -0.000345   0.001593  -0.001782  -0.000220   0.000200
    16  H    0.000008   0.000003  -0.000093  -0.001789   0.001336  -0.000635
    17  H   -0.000001   0.000001   0.000247  -0.000166   0.002614  -0.004668
    18  H   -0.000000  -0.000001  -0.000359  -0.000079   0.000046  -0.000700
    19  H    0.000000  -0.000027  -0.000020   0.000008  -0.000001   0.000003
               7          8          9         10         11         12
     1  C    0.000064   0.000537  -0.000023   0.000000  -0.000016  -0.000449
     2  O   -0.000484  -0.015541   0.001436   0.000031   0.000466  -0.000128
     3  C   -0.005110   0.053061   0.000848  -0.000202   0.000131   0.000278
     4  C   -0.002325   0.005705   0.000558  -0.000059  -0.000075  -0.000180
     5  C   -0.004183  -0.000465  -0.000142   0.000027   0.000012  -0.000004
     6  C    0.033842  -0.015260   0.000371   0.000014  -0.000016   0.000000
     7  C   -0.094409  -0.023998   0.003777   0.001229  -0.000041   0.000002
     8  C   -0.023998   0.162575  -0.000223  -0.003365  -0.001276   0.000054
     9  C    0.003777  -0.000223  -0.024075   0.000473   0.003149  -0.000003
    10  O    0.001229  -0.003365   0.000473   0.029811   0.000340   0.000000
    11  O   -0.000041  -0.001276   0.003149   0.000340  -0.003431   0.000001
    12  H    0.000002   0.000054  -0.000003   0.000000   0.000001   0.000346
    13  H   -0.000030   0.000156  -0.000000  -0.000000  -0.000000   0.000067
    14  H   -0.000002   0.000241  -0.000004  -0.000000  -0.000002   0.000068
    15  H   -0.000148   0.000821  -0.000007   0.000000   0.000001  -0.000003
    16  H   -0.000096  -0.000004   0.000002   0.000000   0.000000  -0.000000
    17  H    0.002730  -0.000334  -0.000018   0.000001   0.000000   0.000000
    18  H    0.001565  -0.001757   0.000637  -0.000286  -0.000008  -0.000000
    19  H    0.000011   0.000009  -0.000107  -0.000030   0.000176   0.000000
              13         14         15         16         17         18
     1  C    0.003704   0.003967   0.000247   0.000008  -0.000001  -0.000000
     2  O   -0.003948  -0.004101  -0.000345   0.000003   0.000001  -0.000001
     3  C    0.002397   0.002437   0.001593  -0.000093   0.000247  -0.000359
     4  C    0.001227   0.001187  -0.001782  -0.001789  -0.000166  -0.000079
     5  C   -0.000042  -0.000095  -0.000220   0.001336   0.002614   0.000046
     6  C   -0.000034  -0.000040   0.000200  -0.000635  -0.004668  -0.000700
     7  C   -0.000030  -0.000002  -0.000148  -0.000096   0.002730   0.001565
     8  C    0.000156   0.000241   0.000821  -0.000004  -0.000334  -0.001757
     9  C   -0.000000  -0.000004  -0.000007   0.000002  -0.000018   0.000637
    10  O   -0.000000  -0.000000   0.000000   0.000000   0.000001  -0.000286
    11  O   -0.000000  -0.000002   0.000001   0.000000   0.000000  -0.000008
    12  H    0.000067   0.000068  -0.000003  -0.000000   0.000000  -0.000000
    13  H    0.016994  -0.003959  -0.000058   0.000000   0.000000  -0.000000
    14  H   -0.003959   0.016823  -0.000066  -0.000000  -0.000000   0.000000
    15  H   -0.000058  -0.000066  -0.005438   0.000088  -0.000004  -0.000000
    16  H    0.000000  -0.000000   0.000088   0.001029  -0.000092  -0.000001
    17  H    0.000000  -0.000000  -0.000004  -0.000092  -0.007096  -0.000079
    18  H   -0.000000   0.000000  -0.000000  -0.000001  -0.000079   0.000721
    19  H    0.000000  -0.000000  -0.000000  -0.000000  -0.000000   0.000002
              19
     1  C    0.000000
     2  O   -0.000027
     3  C   -0.000020
     4  C    0.000008
     5  C   -0.000001
     6  C    0.000003
     7  C    0.000011
     8  C    0.000009
     9  C   -0.000107
    10  O   -0.000030
    11  O    0.000176
    12  H    0.000000
    13  H    0.000000
    14  H   -0.000000
    15  H   -0.000000
    16  H   -0.000000
    17  H   -0.000000
    18  H    0.000002
    19  H   -0.000335
 Mulliken charges and spin densities:
               1          2
     1  C   -0.343483  -0.012346
     2  O   -0.101393   0.265104
     3  C    0.326046   0.147404
     4  C   -0.169697   0.149536
     5  C   -0.111893  -0.083277
     6  C   -0.025308   0.426068
     7  C   -0.088953  -0.087605
     8  C   -0.015062   0.160938
     9  C    0.353055  -0.013351
    10  O   -0.278137   0.027984
    11  O   -0.385569  -0.000589
    12  H    0.205396   0.000050
    13  H    0.199170   0.016472
    14  H    0.198934   0.016453
    15  H    0.216216  -0.005123
    16  H    0.208364  -0.000244
    17  H    0.217694  -0.006865
    18  H    0.227693  -0.000299
    19  H    0.366928  -0.000311
 Sum of Mulliken charges =   1.00000   1.00000
 Mulliken charges and spin densities with hydrogens summed into heavy atoms:
               1          2
     1  C    0.260016   0.020628
     2  O   -0.101393   0.265104
     3  C    0.326046   0.147404
     4  C    0.046519   0.144414
     5  C    0.096471  -0.083520
     6  C    0.192386   0.419203
     7  C    0.138740  -0.087904
     8  C   -0.015062   0.160938
     9  C    0.353055  -0.013351
    10  O   -0.278137   0.027984
    11  O   -0.018641  -0.000900
 Electronic spatial extent (au):  <R**2>=           1671.2303
 Charge=              1.0000 electrons
 Dipole moment (field-independent basis, Debye):
    X=             -6.0495    Y=             -0.0822    Z=             -0.1620  Tot=              6.0522
 Quadrupole moment (field-independent basis, Debye-Ang):
   XX=            -41.9249   YY=            -33.1285   ZZ=            -61.4977
   XY=              3.5440   XZ=             -0.8667   YZ=              0.6079
 Traceless Quadrupole moment (field-independent basis, Debye-Ang):
   XX=              3.5921   YY=             12.3886   ZZ=            -15.9807
   XY=              3.5440   XZ=             -0.8667   YZ=              0.6079
 Octapole moment (field-independent basis, Debye-Ang**2):
  XXX=            -18.4993  YYY=              0.0984  ZZZ=              0.2588  XYY=            -24.9123
  XXY=             31.0005  XXZ=             -3.2020  XZZ=              4.8463  YZZ=              7.6990
  YYZ=             -0.0905  XYZ=             -0.3486
 Hexadecapole moment (field-independent basis, Debye-Ang**3):
 XXXX=           -935.8382 YYYY=           -677.4028 ZZZZ=            -67.1616 XXXY=             97.9493
 XXXZ=            -10.7712 YYYX=             -4.5833 YYYZ=              2.8586 ZZZX=             -0.4895
 ZZZY=             -0.4193 XXYY=           -238.7399 XXZZ=           -191.3600 YYZZ=           -173.3024
 XXYZ=              0.4753 YYXZ=             -1.4857 ZZXY=             -6.4620
 N-N= 5.973001573793D+02 E-N=-2.430552412883D+03  KE= 5.326949126731D+02
                          Isotropic Fermi Contact Couplings
        Atom                 a.u.       MegaHertz       Gauss      10(-4) cm-1
     1  C(13)             -0.00853      -9.58692      -3.42085      -3.19785
     2  O(17)              0.06093     -36.93332     -13.17873     -12.31963
     3  C(13)              0.00283       3.18035       1.13483       1.06085
     4  C(13)              0.01019      11.45553       4.08762       3.82115
     5  C(13)             -0.02031     -22.83643      -8.14861      -7.61741
     6  C(13)              0.05330      59.91396      21.37879      19.98515
     7  C(13)             -0.02186     -24.57814      -8.77009      -8.19839
     8  C(13)              0.01385      15.56856       5.55525       5.19311
     9  C(13)             -0.01062     -11.93412      -4.25839      -3.98079
    10  O(17)              0.00438      -2.65503      -0.94738      -0.88562
    11  O(17)             -0.00324       1.96461       0.70102       0.65532
    12  H(1)              -0.00013      -0.59127      -0.21098      -0.19723
    13  H(1)               0.00765      34.17342      12.19392      11.39902
    14  H(1)               0.00764      34.17173      12.19332      11.39846
    15  H(1)              -0.00317     -14.18249      -5.06067      -4.73077
    16  H(1)               0.00010       0.44299       0.15807       0.14777
    17  H(1)              -0.00658     -29.42486     -10.49952      -9.81508
    18  H(1)               0.00027       1.19948       0.42800       0.40010
    19  H(1)              -0.00009      -0.39131      -0.13963      -0.13053
 --------------------------------------------------------
       Center         ----  Spin Dipole Couplings  ----
                      3XX-RR        3YY-RR        3ZZ-RR
 --------------------------------------------------------
     1   Atom        0.003769     -0.001017     -0.002753
     2   Atom       -0.641569     -0.662496      1.304065
     3   Atom       -0.099811     -0.089310      0.189121
     4   Atom       -0.071237     -0.084076      0.155313
     5   Atom        0.020141      0.015891     -0.036032
     6   Atom       -0.214581     -0.205737      0.420318
     7   Atom        0.027876      0.021345     -0.049221
     8   Atom       -0.081062     -0.093136      0.174198
     9   Atom        0.013456      0.004018     -0.017474
    10   Atom       -0.055462     -0.054535      0.109997
    11   Atom        0.010041      0.001553     -0.011594
    12   Atom       -0.003359      0.008333     -0.004973
    13   Atom        0.003229      0.000499     -0.003727
    14   Atom        0.003310      0.000330     -0.003640
    15   Atom        0.014248     -0.008432     -0.005815
    16   Atom        0.007295     -0.002252     -0.005042
    17   Atom       -0.027830      0.033095     -0.005265
    18   Atom        0.006838     -0.001698     -0.005140
    19   Atom        0.002385     -0.000420     -0.001966
 --------------------------------------------------------
                        XY            XZ            YZ
 --------------------------------------------------------
     1   Atom       -0.011376     -0.000183     -0.000051
     2   Atom       -0.012807     -0.013269     -0.048305
     3   Atom        0.001531     -0.002855     -0.005061
     4   Atom        0.001171      0.000207     -0.002047
     5   Atom       -0.004399      0.000787      0.000706
     6   Atom        0.000449     -0.006261     -0.006221
     7   Atom        0.004100      0.001049      0.000775
     8   Atom       -0.002734      0.000209     -0.000666
     9   Atom       -0.003088      0.000671     -0.002221
    10   Atom       -0.003850     -0.017893      0.015460
    11   Atom        0.002708      0.000928     -0.000926
    12   Atom       -0.005149     -0.000100      0.000263
    13   Atom       -0.004969      0.005036     -0.002418
    14   Atom       -0.004793     -0.005166      0.002544
    15   Atom       -0.008422      0.000045     -0.000054
    16   Atom       -0.002110      0.000030      0.000010
    17   Atom        0.004198     -0.000170      0.000442
    18   Atom        0.001497      0.000091      0.000085
    19   Atom        0.001195     -0.000242     -0.000118
 --------------------------------------------------------


 ---------------------------------------------------------------------------------
              Anisotropic Spin Dipole Couplings in Principal Axis System
 ---------------------------------------------------------------------------------

       Atom             a.u.   MegaHertz   Gauss  10(-4) cm-1        Axes

              Baa    -0.0103    -1.376    -0.491    -0.459  0.6301  0.7763  0.0207
     1 C(13)  Bbb    -0.0028    -0.369    -0.132    -0.123 -0.0076 -0.0205  0.9998
              Bcc     0.0130     1.745     0.623     0.582  0.7765 -0.6301 -0.0070
 
              Baa    -0.6698    48.467    17.294    16.167  0.4227  0.9059  0.0250
     2 O(17)  Bbb    -0.6355    45.987    16.409    15.340  0.9063 -0.4227 -0.0043
              Bcc     1.3053   -94.453   -33.703   -31.506 -0.0067 -0.0245  0.9997
 
              Baa    -0.1000   -13.425    -4.790    -4.478  0.9904 -0.1377  0.0074
     3 C(13)  Bbb    -0.0892   -11.969    -4.271    -3.993  0.1376  0.9903  0.0194
              Bcc     0.1892    25.394     9.061     8.471 -0.0100 -0.0182  0.9998
 
              Baa    -0.0842   -11.299    -4.032    -3.769 -0.0901  0.9959  0.0086
     4 C(13)  Bbb    -0.0711    -9.545    -3.406    -3.184  0.9959  0.0901 -0.0001
              Bcc     0.1553    20.844     7.438     6.953  0.0009 -0.0085  1.0000
 
              Baa    -0.0361    -4.838    -1.726    -1.614 -0.0152 -0.0149  0.9998
     5 C(13)  Bbb     0.0132     1.765     0.630     0.589  0.5309  0.8472  0.0207
              Bcc     0.0229     3.073     1.097     1.025  0.8473 -0.5311  0.0050
 
              Baa    -0.2147   -28.805   -10.278    -9.608  0.9990 -0.0437  0.0094
     6 C(13)  Bbb    -0.2058   -27.614    -9.853    -9.211  0.0436  0.9990  0.0104
              Bcc     0.4204    56.419    20.132    18.819 -0.0099 -0.0099  0.9999
 
              Baa    -0.0492    -6.608    -2.358    -2.204 -0.0131 -0.0102  0.9999
     7 C(13)  Bbb     0.0194     2.599     0.927     0.867 -0.4346  0.9006  0.0035
              Bcc     0.0299     4.009     1.430     1.337  0.9005  0.4345  0.0162
 
              Baa    -0.0937   -12.577    -4.488    -4.195  0.2109  0.9775  0.0023
     8 C(13)  Bbb    -0.0805   -10.799    -3.853    -3.602  0.9775 -0.2109 -0.0014
              Bcc     0.1742    23.376     8.341     7.797  0.0008 -0.0025  1.0000
 
              Baa    -0.0177    -2.376    -0.848    -0.792 -0.0115  0.1001  0.9949
     9 C(13)  Bbb     0.0033     0.440     0.157     0.147  0.2947  0.9511 -0.0923
              Bcc     0.0144     1.936     0.691     0.646  0.9555 -0.2921  0.0404
 
              Baa    -0.0590     4.267     1.523     1.423  0.8068  0.5900  0.0314
    10 O(17)  Bbb    -0.0544     3.938     1.405     1.313 -0.5811  0.8019 -0.1386
              Bcc     0.1134    -8.205    -2.928    -2.737 -0.1070  0.0936  0.9898
 
              Baa    -0.0117     0.848     0.303     0.283 -0.0525  0.0802  0.9954
    11 O(17)  Bbb     0.0009    -0.063    -0.022    -0.021 -0.2734  0.9575 -0.0915
              Bcc     0.0108    -0.785    -0.280    -0.262  0.9605  0.2770  0.0283
 
              Baa    -0.0053    -2.830    -1.010    -0.944  0.9355  0.3532  0.0026
    12 H(1)   Bbb    -0.0050    -2.656    -0.948    -0.886  0.0041 -0.0182  0.9998
              Bcc     0.0103     5.486     1.958     1.830 -0.3532  0.9354  0.0185
 
              Baa    -0.0064    -3.402    -1.214    -1.135 -0.4795 -0.0382  0.8767
    13 H(1)   Bbb    -0.0030    -1.575    -0.562    -0.525  0.4502  0.8468  0.2831
              Bcc     0.0093     4.977     1.776     1.660  0.7533 -0.5305  0.3888
 
              Baa    -0.0064    -3.410    -1.217    -1.138  0.4707  0.0017  0.8823
    14 H(1)   Bbb    -0.0029    -1.569    -0.560    -0.523  0.4548  0.8564 -0.2443
              Bcc     0.0093     4.979     1.777     1.661  0.7560 -0.5163 -0.4023
 
              Baa    -0.0112    -5.985    -2.136    -1.997  0.3140  0.9494  0.0069
    15 H(1)   Bbb    -0.0058    -3.103    -1.107    -1.035 -0.0047 -0.0057  1.0000
              Bcc     0.0170     9.088     3.243     3.031  0.9494 -0.3140  0.0026
 
              Baa    -0.0050    -2.691    -0.960    -0.897 -0.0035 -0.0062  1.0000
    16 H(1)   Bbb    -0.0027    -1.439    -0.514    -0.480  0.2065  0.9784  0.0068
              Bcc     0.0077     4.130     1.474     1.378  0.9784 -0.2066  0.0022
 
              Baa    -0.0281   -15.003    -5.354    -5.005  0.9976 -0.0685  0.0087
    17 H(1)   Bbb    -0.0053    -2.811    -1.003    -0.938 -0.0095 -0.0105  0.9999
              Bcc     0.0334    17.814     6.357     5.942  0.0684  0.9976  0.0111
 
              Baa    -0.0051    -2.744    -0.979    -0.915 -0.0048 -0.0225  0.9997
    18 H(1)   Bbb    -0.0020    -1.041    -0.372    -0.347 -0.1680  0.9856  0.0214
              Bcc     0.0071     3.785     1.351     1.263  0.9858  0.1679  0.0085
 
              Baa    -0.0020    -1.057    -0.377    -0.353  0.0437  0.0421  0.9982
    19 H(1)   Bbb    -0.0009    -0.458    -0.164    -0.153 -0.3471  0.9375 -0.0243
              Bcc     0.0028     1.515     0.541     0.506  0.9368  0.3454 -0.0556
 

 ---------------------------------------------------------------------------------

 Unable to Open any file for archive entry.
 1\1\GINC-NODE12\SP\UM062X\def2TZVP\C8H8O3(1+,2)\SVSS\29-Jan-2024\0\\# 
 m062x/def2tzvp\\Ac4_rdkit_conf_2_SP_IE\\1,2\C,0,1.6806,2.510447,-0.045
 968\O,0,0.522812,1.705425,-0.033635\C,0,0.66602,0.368203,-0.004849\C,0
 ,1.916982,-0.251987,0.008808\C,0,2.017818,-1.633932,0.025487\C,0,0.882
 246,-2.428619,0.024572\C,0,-0.357926,-1.8176,0.009196\C,0,-0.492751,-0
 .431661,0.000034\C,0,-1.896044,0.070725,-0.007704\O,0,-2.85132,-0.6525
 99,-0.127563\O,0,-2.03693,1.394261,0.145988\H,0,1.327203,3.537343,-0.0
 69384\H,0,2.282556,2.353413,0.852605\H,0,2.290458,2.315049,-0.931668\H
 ,0,2.818195,0.341738,0.004825\H,0,3.000541,-2.08816,0.037217\H,0,0.961
 599,-3.506535,0.035569\H,0,-1.267787,-2.402434,0.005433\H,0,-2.990939,
 1.559427,0.129619\\Version=AS64L-G16RevC.01\State=2-A\HF=-535.0182059\
 S2=0.772716\S2-1=0.\S2A=0.750266\RMSD=5.081e-09\Dipole=2.3800446,-0.03
 23508,0.0637241\Quadrupole=2.6706728,9.210597,-11.8812698,-2.6348455,-
 0.6443405,-0.4519227\PG=C01 [X(C8H8O3)]\\@
 The archive entry for this job was punched.


 SACRED COWS MAKE GREAT HAMBURGERS -- ROBERT REISNER
 Job cpu time:       0 days  0 hours 31 minutes 24.5 seconds.
 Elapsed time:       0 days  0 hours  4 minutes  2.6 seconds.
 File lengths (MBytes):  RWF=    149 Int=      0 D2E=      0 Chk=     12 Scr=      1
 Normal termination of Gaussian 16 at Mon Jan 29 12:57:58 2024.
