Job Start Time: Mon Jan 29 12:54:05 MST 2024
SLURM Job ID: 229748
SLURM Job Name: Ac7_rdkit_conf_2_SP_EA
 Entering Gaussian System, Link 0=/opt/apps/Gaussian/G16C/g16/g16
 Initial command:
 /opt/apps/Gaussian/G16C/g16/l1.exe "/tmp/Gau-623782.inp" -scrdir="/tmp/"
 Entering Link 1 = /opt/apps/Gaussian/G16C/g16/l1.exe PID=    623783.
  
 Copyright (c) 1988-2019, Gaussian, Inc.  All Rights Reserved.
  
 This is part of the Gaussian(R) 16 program.  It is based on
 the Gaussian(R) 09 system (copyright 2009, Gaussian, Inc.),
 the Gaussian(R) 03 system (copyright 2003, Gaussian, Inc.),
 the Gaussian(R) 98 system (copyright 1998, Gaussian, Inc.),
 the Gaussian(R) 94 system (copyright 1995, Gaussian, Inc.),
 the Gaussian 92(TM) system (copyright 1992, Gaussian, Inc.),
 the Gaussian 90(TM) system (copyright 1990, Gaussian, Inc.),
 the Gaussian 88(TM) system (copyright 1988, Gaussian, Inc.),
 the Gaussian 86(TM) system (copyright 1986, Carnegie Mellon
 University), and the Gaussian 82(TM) system (copyright 1983,
 Carnegie Mellon University). Gaussian is a federally registered
 trademark of Gaussian, Inc.
  
 This software contains proprietary and confidential information,
 including trade secrets, belonging to Gaussian, Inc.
  
 This software is provided under written license and may be
 used, copied, transmitted, or stored only in accord with that
 written license.
  
 The following legend is applicable only to US Government
 contracts under FAR:
  
                    RESTRICTED RIGHTS LEGEND
  
 Use, reproduction and disclosure by the US Government is
 subject to restrictions as set forth in subparagraphs (a)
 and (c) of the Commercial Computer Software - Restricted
 Rights clause in FAR 52.227-19.
  
 Gaussian, Inc.
 340 Quinnipiac St., Bldg. 40, Wallingford CT 06492
  
  
 ---------------------------------------------------------------
 Warning -- This program may not be used in any manner that
 competes with the business of Gaussian, Inc. or will provide
 assistance to any competitor of Gaussian, Inc.  The licensee
 of this program is prohibited from giving any competitor of
 Gaussian, Inc. access to this program.  By using this program,
 the user acknowledges that Gaussian, Inc. is engaged in the
 business of creating and licensing software in the field of
 computational chemistry and represents and warrants to the
 licensee that it is not a competitor of Gaussian, Inc. and that
 it will not use this program in any manner prohibited above.
 ---------------------------------------------------------------
  

 Cite this work as:
 Gaussian 16, Revision C.01,
 M. J. Frisch, G. W. Trucks, H. B. Schlegel, G. E. Scuseria, 
 M. A. Robb, J. R. Cheeseman, G. Scalmani, V. Barone, 
 G. A. Petersson, H. Nakatsuji, X. Li, M. Caricato, A. V. Marenich, 
 J. Bloino, B. G. Janesko, R. Gomperts, B. Mennucci, H. P. Hratchian, 
 J. V. Ortiz, A. F. Izmaylov, J. L. Sonnenberg, D. Williams-Young, 
 F. Ding, F. Lipparini, F. Egidi, J. Goings, B. Peng, A. Petrone, 
 T. Henderson, D. Ranasinghe, V. G. Zakrzewski, J. Gao, N. Rega, 
 G. Zheng, W. Liang, M. Hada, M. Ehara, K. Toyota, R. Fukuda, 
 J. Hasegawa, M. Ishida, T. Nakajima, Y. Honda, O. Kitao, H. Nakai, 
 T. Vreven, K. Throssell, J. A. Montgomery, Jr., J. E. Peralta, 
 F. Ogliaro, M. J. Bearpark, J. J. Heyd, E. N. Brothers, K. N. Kudin, 
 V. N. Staroverov, T. A. Keith, R. Kobayashi, J. Normand, 
 K. Raghavachari, A. P. Rendell, J. C. Burant, S. S. Iyengar, 
 J. Tomasi, M. Cossi, J. M. Millam, M. Klene, C. Adamo, R. Cammi, 
 J. W. Ochterski, R. L. Martin, K. Morokuma, O. Farkas, 
 J. B. Foresman, and D. J. Fox, Gaussian, Inc., Wallingford CT, 2019.
 
 ******************************************
 Gaussian 16:  AS64L-G16RevC.01  3-Jul-2019
                29-Jan-2024 
 ******************************************
 %nprocshared=8
 Will use up to    8 processors via shared memory.
 %mem=16GB
 ----------------
 # m062x/def2tzvp
 ----------------
 1/38=1,172=1/1;
 2/12=2,17=6,18=5,40=1/2;
 3/5=44,7=101,11=2,25=1,30=1,74=-55/1,2,3;
 4//1;
 5/5=2,38=5/2;
 6/7=2,8=2,9=2,10=2,28=1/1;
 99/5=1,9=1/99;
 ----------------------
 Ac7_rdkit_conf_2_SP_EA
 ----------------------
 Symbolic Z-matrix:
 Charge = -1 Multiplicity = 2
 O                    -2.28437  -0.99799   0.69211 
 C                    -1.80866  -0.13873   0.00369 
 O                    -2.55396   0.86296  -0.50763 
 C                    -0.35582  -0.00734  -0.37273 
 C                     0.41134  -1.29277  -0.08242 
 C                     1.88856  -1.13551  -0.43229 
 C                     2.50973   0.04594   0.30901 
 C                     1.74037   1.33411   0.0277 
 C                     0.26167   1.1863    0.37588 
 H                    -3.46099   0.7279   -0.19784 
 H                    -0.32048   0.21614  -1.44461 
 H                    -0.03335  -2.1239   -0.63208 
 H                     0.30179  -1.52919   0.97953 
 H                     1.99139  -0.97658  -1.5113 
 H                     2.42544  -2.05619  -0.1975 
 H                     3.55792   0.16291   0.02769 
 H                     2.48967  -0.15579   1.38525 
 H                     1.83354   1.5854   -1.03423 
 H                     2.17005   2.16627   0.58841 
 H                     0.15511   1.0134    1.4523 
 H                    -0.28662   2.09786   0.1355 
 
                          Input orientation:                          
 ---------------------------------------------------------------------
 Center     Atomic      Atomic             Coordinates (Angstroms)
 Number     Number       Type             X           Y           Z
 ---------------------------------------------------------------------
      1          8           0       -2.284366   -0.997988    0.692113
      2          6           0       -1.808657   -0.138727    0.003687
      3          8           0       -2.553958    0.862956   -0.507628
      4          6           0       -0.355824   -0.007343   -0.372733
      5          6           0        0.411337   -1.292765   -0.082422
      6          6           0        1.888563   -1.135513   -0.432287
      7          6           0        2.509726    0.045943    0.309010
      8          6           0        1.740370    1.334113    0.027700
      9          6           0        0.261671    1.186296    0.375879
     10          1           0       -3.460985    0.727903   -0.197844
     11          1           0       -0.320483    0.216136   -1.444614
     12          1           0       -0.033349   -2.123896   -0.632078
     13          1           0        0.301790   -1.529193    0.979532
     14          1           0        1.991394   -0.976580   -1.511303
     15          1           0        2.425441   -2.056188   -0.197499
     16          1           0        3.557923    0.162912    0.027689
     17          1           0        2.489666   -0.155792    1.385254
     18          1           0        1.833537    1.585403   -1.034230
     19          1           0        2.170049    2.166274    0.588412
     20          1           0        0.155110    1.013402    1.452297
     21          1           0       -0.286615    2.097860    0.135496
 ---------------------------------------------------------------------
                    Distance matrix (angstroms):
                    1          2          3          4          5
     1  O    0.000000
     2  C    1.199399   0.000000
     3  O    2.230509   1.349180   0.000000
     4  C    2.415481   1.506545   2.367997   0.000000
     5  C    2.820215   2.503516   3.690651   1.524836   0.000000
     6  C    4.323948   3.853971   4.871914   2.512685   1.526214
     7  C    4.921370   4.333100   5.193775   2.946013   2.519642
     8  C    4.698791   3.842581   4.353139   2.520690   2.946005
     9  C    3.369481   2.486055   2.968653   1.538341   2.525507
    10  H    2.270497   1.876659   0.967938   3.195809   4.369359
    11  H    3.145876   2.106695   2.506936   1.095500   2.160535
    12  H    2.843981   2.738031   3.910274   2.156629   1.091167
    13  H    2.655747   2.709180   4.011149   2.139417   1.093456
    14  H    4.810158   4.175833   5.005145   2.783019   2.153661
    15  H    4.908511   4.652388   5.780311   3.458888   2.157005
    16  H    5.993454   5.375104   6.175088   3.937860   3.468735
    17  H    4.897052   4.514931   5.482608   3.348040   2.786796
    18  H    5.158614   4.161187   4.477650   2.787063   3.348499
    19  H    5.464899   4.635195   5.021572   3.468205   3.938024
    20  H    3.251863   2.698565   3.347087   2.152605   2.781981
    21  H    3.726272   2.708562   2.660722   2.166787   3.468568
                    6          7          8          9         10
     6  C    0.000000
     7  C    1.526828   0.000000
     8  C    2.516466   1.526573   0.000000
     9  C    2.948000   2.521632   1.526312   0.000000
    10  H    5.669651   6.030867   5.241417   3.794397   0.000000
    11  H    2.780584   3.333803   2.768519   2.143434   3.417469
    12  H    2.170383   3.472906   3.941981   3.472807   4.479956
    13  H    2.160108   2.793857   3.342756   2.782065   4.543036
    14  H    1.095495   2.151223   2.787624   3.351333   5.861644
    15  H    1.091332   2.163934   3.466147   3.940097   6.511618
    16  H    2.164312   1.091577   2.162224   3.468981   7.045222
    17  H    2.150496   1.095171   2.150399   2.789982   6.220720
    18  H    2.787247   2.152083   1.095227   2.149059   5.428334
    19  H    3.467399   2.165467   1.091565   2.155791   5.864781
    20  H    3.342806   2.790573   2.155315   1.095410   3.985049
    21  H    3.938080   3.472750   2.168778   1.090573   3.473402
                   11         12         13         14         15
    11  H    0.000000
    12  H    2.493674   0.000000
    13  H    3.051210   1.750222   0.000000
    14  H    2.602267   2.487761   3.060131   0.000000
    15  H    3.776089   2.497817   2.484556   1.755002   0.000000
    16  H    4.148800   4.308366   3.790993   2.474056   2.501526
    17  H    4.005424   3.782680   2.614889   3.051559   2.474012
    18  H    2.585171   4.172037   4.012754   2.610800   3.783075
    19  H    3.760184   4.974949   4.159308   3.783947   4.302565
    20  H    3.042025   3.771309   2.590330   4.014336   4.159160
    21  H    2.457393   4.298434   3.770163   4.165748   4.972147
                   16         17         18         19         20
    16  H    0.000000
    17  H    1.756624   0.000000
    18  H    2.474805   3.052240   0.000000
    19  H    2.500813   2.475702   1.756023   0.000000
    20  H    3.785760   2.611831   3.054033   2.476972   0.000000
    21  H    4.305359   3.787952   2.475059   2.499002   1.762139
                   21
    21  H    0.000000
 Stoichiometry    C7H12O2(1-,2)
 Framework group  C1[X(C7H12O2)]
 Deg. of freedom    57
 Full point group                 C1      NOp   1
 Largest Abelian subgroup         C1      NOp   1
 Largest concise Abelian subgroup C1      NOp   1
                         Standard orientation:                         
 ---------------------------------------------------------------------
 Center     Atomic      Atomic             Coordinates (Angstroms)
 Number     Number       Type             X           Y           Z
 ---------------------------------------------------------------------
      1          8           0       -2.284366   -0.997988    0.692113
      2          6           0       -1.808657   -0.138727    0.003687
      3          8           0       -2.553958    0.862956   -0.507628
      4          6           0       -0.355824   -0.007343   -0.372733
      5          6           0        0.411337   -1.292765   -0.082422
      6          6           0        1.888563   -1.135513   -0.432287
      7          6           0        2.509726    0.045943    0.309010
      8          6           0        1.740370    1.334113    0.027700
      9          6           0        0.261671    1.186296    0.375879
     10          1           0       -3.460985    0.727902   -0.197844
     11          1           0       -0.320483    0.216136   -1.444614
     12          1           0       -0.033349   -2.123896   -0.632078
     13          1           0        0.301790   -1.529193    0.979532
     14          1           0        1.991394   -0.976580   -1.511303
     15          1           0        2.425441   -2.056188   -0.197499
     16          1           0        3.557923    0.162912    0.027689
     17          1           0        2.489666   -0.155792    1.385254
     18          1           0        1.833537    1.585403   -1.034230
     19          1           0        2.170049    2.166274    0.588412
     20          1           0        0.155110    1.013402    1.452297
     21          1           0       -0.286615    2.097860    0.135496
 ---------------------------------------------------------------------
 Rotational constants (GHZ):           3.2125492           1.0876763           0.8990689
 Standard basis: def2TZVP (5D, 7F)
 There are   396 symmetry adapted cartesian basis functions of A   symmetry.
 There are   351 symmetry adapted basis functions of A   symmetry.
   351 basis functions,   555 primitive gaussians,   396 cartesian basis functions
    36 alpha electrons       35 beta electrons
       nuclear repulsion energy       476.3763368970 Hartrees.
 NAtoms=   21 NActive=   21 NUniq=   21 SFac= 1.00D+00 NAtFMM=   60 NAOKFM=F Big=F
 Integral buffers will be    131072 words long.
 Raffenetti 2 integral format.
 Two-electron integral symmetry is turned on.
 One-electron integrals computed using PRISM.
   1 Symmetry operations used in ECPInt.
 ECPInt:  NShTT=   10878 NPrTT=   32112 LenC2=   10577 LenP2D=   24962.
 LDataN:  DoStor=T MaxTD1= 6 Len=  172
 NBasis=   351 RedAO= T EigKep=  8.47D-05  NBF=   351
 NBsUse=   351 1.00D-06 EigRej= -1.00D+00 NBFU=   351
 ExpMin= 9.52D-02 ExpMax= 2.70D+04 ExpMxC= 9.22D+02 IAcc=3 IRadAn=         5 AccDes= 0.00D+00
 Harris functional with IExCor= 1009 and IRadAn=       5 diagonalized for initial guess.
 HarFok:  IExCor= 1009 AccDes= 0.00D+00 IRadAn=         5 IDoV= 1 UseB2=F ITyADJ=14
 ICtDFT=  3500011 ScaDFX=  1.000000  1.000000  1.000000  1.000000
 FoFCou: FMM=F IPFlag=           0 FMFlag=      100000 FMFlg1=           0
         NFxFlg=           0 DoJE=T BraDBF=F KetDBF=T FulRan=T
         wScrn=  0.000000 ICntrl=       500 IOpCl=  0 I1Cent=   200000004 NGrid=           0
         NMat0=    1 NMatS0=      1 NMatT0=    0 NMatD0=    1 NMtDS0=    0 NMtDT0=    0
 Petite list used in FoFCou.
 Initial guess <Sx>= 0.0000 <Sy>= 0.0000 <Sz>= 0.5000 <S**2>= 0.7500 S= 0.5000
 Requested convergence on RMS density matrix=1.00D-08 within 128 cycles.
 Requested convergence on MAX density matrix=1.00D-06.
 Requested convergence on             energy=1.00D-06.
 No special actions if energy rises.
 Integral accuracy reduced to 1.0D-05 until final iterations.
 Restarting incremental Fock formation.
 Problem detected with inexpensive integrals.
 Switching to full accuracy and repeating last cycle.
 Restarting incremental Fock formation.
 SCF Done:  E(UM062X) =  -424.347959222     A.U. after   54 cycles
            NFock= 54  Conv=0.34D-08     -V/T= 2.0037
 <Sx>= 0.0000 <Sy>= 0.0000 <Sz>= 0.5000 <S**2>= 0.7535 S= 0.5018
 <L.S>=  0.00000000000    
 Annihilation of the first spin contaminant:
 S**2 before annihilation     0.7535,   after     0.7500

 **********************************************************************

            Population analysis using the SCF Density.

 **********************************************************************

 Orbital symmetries:
 Alpha Orbitals:
       Occupied  (A) (A) (A) (A) (A) (A) (A) (A) (A) (A) (A) (A)
                 (A) (A) (A) (A) (A) (A) (A) (A) (A) (A) (A) (A)
                 (A) (A) (A) (A) (A) (A) (A) (A) (A) (A) (A) (A)
       Virtual   (A) (A) (A) (A) (A) (A) (A) (A) (A) (A) (A) (A)
                 (A) (A) (A) (A) (A) (A) (A) (A) (A) (A) (A) (A)
                 (A) (A) (A) (A) (A) (A) (A) (A) (A) (A) (A) (A)
                 (A) (A) (A) (A) (A) (A) (A) (A) (A) (A) (A) (A)
                 (A) (A) (A) (A) (A) (A) (A) (A) (A) (A) (A) (A)
                 (A) (A) (A) (A) (A) (A) (A) (A) (A) (A) (A) (A)
                 (A) (A) (A) (A) (A) (A) (A) (A) (A) (A) (A) (A)
                 (A) (A) (A) (A) (A) (A) (A) (A) (A) (A) (A) (A)
                 (A) (A) (A) (A) (A) (A) (A) (A) (A) (A) (A) (A)
                 (A) (A) (A) (A) (A) (A) (A) (A) (A) (A) (A) (A)
                 (A) (A) (A) (A) (A) (A) (A) (A) (A) (A) (A) (A)
                 (A) (A) (A) (A) (A) (A) (A) (A) (A) (A) (A) (A)
                 (A) (A) (A) (A) (A) (A) (A) (A) (A) (A) (A) (A)
                 (A) (A) (A) (A) (A) (A) (A) (A) (A) (A) (A) (A)
                 (A) (A) (A) (A) (A) (A) (A) (A) (A) (A) (A) (A)
                 (A) (A) (A) (A) (A) (A) (A) (A) (A) (A) (A) (A)
                 (A) (A) (A) (A) (A) (A) (A) (A) (A) (A) (A) (A)
                 (A) (A) (A) (A) (A) (A) (A) (A) (A) (A) (A) (A)
                 (A) (A) (A) (A) (A) (A) (A) (A) (A) (A) (A) (A)
                 (A) (A) (A) (A) (A) (A) (A) (A) (A) (A) (A) (A)
                 (A) (A) (A) (A) (A) (A) (A) (A) (A) (A) (A) (A)
                 (A) (A) (A) (A) (A) (A) (A) (A) (A) (A) (A) (A)
                 (A) (A) (A) (A) (A) (A) (A) (A) (A) (A) (A) (A)
                 (A) (A) (A) (A) (A) (A) (A) (A) (A) (A) (A) (A)
                 (A) (A) (A) (A) (A) (A) (A) (A) (A) (A) (A) (A)
                 (A) (A) (A) (A) (A) (A) (A) (A) (A) (A) (A) (A)
                 (A) (A) (A)
 Beta  Orbitals:
       Occupied  (A) (A) (A) (A) (A) (A) (A) (A) (A) (A) (A) (A)
                 (A) (A) (A) (A) (A) (A) (A) (A) (A) (A) (A) (A)
                 (A) (A) (A) (A) (A) (A) (A) (A) (A) (A) (A)
       Virtual   (A) (A) (A) (A) (A) (A) (A) (A) (A) (A) (A) (A)
                 (A) (A) (A) (A) (A) (A) (A) (A) (A) (A) (A) (A)
                 (A) (A) (A) (A) (A) (A) (A) (A) (A) (A) (A) (A)
                 (A) (A) (A) (A) (A) (A) (A) (A) (A) (A) (A) (A)
                 (A) (A) (A) (A) (A) (A) (A) (A) (A) (A) (A) (A)
                 (A) (A) (A) (A) (A) (A) (A) (A) (A) (A) (A) (A)
                 (A) (A) (A) (A) (A) (A) (A) (A) (A) (A) (A) (A)
                 (A) (A) (A) (A) (A) (A) (A) (A) (A) (A) (A) (A)
                 (A) (A) (A) (A) (A) (A) (A) (A) (A) (A) (A) (A)
                 (A) (A) (A) (A) (A) (A) (A) (A) (A) (A) (A) (A)
                 (A) (A) (A) (A) (A) (A) (A) (A) (A) (A) (A) (A)
                 (A) (A) (A) (A) (A) (A) (A) (A) (A) (A) (A) (A)
                 (A) (A) (A) (A) (A) (A) (A) (A) (A) (A) (A) (A)
                 (A) (A) (A) (A) (A) (A) (A) (A) (A) (A) (A) (A)
                 (A) (A) (A) (A) (A) (A) (A) (A) (A) (A) (A) (A)
                 (A) (A) (A) (A) (A) (A) (A) (A) (A) (A) (A) (A)
                 (A) (A) (A) (A) (A) (A) (A) (A) (A) (A) (A) (A)
                 (A) (A) (A) (A) (A) (A) (A) (A) (A) (A) (A) (A)
                 (A) (A) (A) (A) (A) (A) (A) (A) (A) (A) (A) (A)
                 (A) (A) (A) (A) (A) (A) (A) (A) (A) (A) (A) (A)
                 (A) (A) (A) (A) (A) (A) (A) (A) (A) (A) (A) (A)
                 (A) (A) (A) (A) (A) (A) (A) (A) (A) (A) (A) (A)
                 (A) (A) (A) (A) (A) (A) (A) (A) (A) (A) (A) (A)
                 (A) (A) (A) (A) (A) (A) (A) (A) (A) (A) (A) (A)
                 (A) (A) (A) (A) (A) (A) (A) (A) (A) (A) (A) (A)
                 (A) (A) (A) (A) (A) (A) (A) (A) (A) (A) (A) (A)
                 (A) (A) (A) (A)
 The electronic state is 2-A.
 Alpha  occ. eigenvalues --  -19.47711 -19.39972 -10.43395 -10.39044 -10.38069
 Alpha  occ. eigenvalues --  -10.37933 -10.37178 -10.37165 -10.36595  -1.03886
 Alpha  occ. eigenvalues --   -0.93964  -0.78671  -0.69705  -0.68850  -0.57627
 Alpha  occ. eigenvalues --   -0.54504  -0.50813  -0.47078  -0.40901  -0.38893
 Alpha  occ. eigenvalues --   -0.37603  -0.37056  -0.35568  -0.34072  -0.32054
 Alpha  occ. eigenvalues --   -0.29531  -0.28173  -0.28008  -0.25349  -0.25218
 Alpha  occ. eigenvalues --   -0.22727  -0.22017  -0.21373  -0.20480  -0.15355
 Alpha  occ. eigenvalues --    0.11418
 Alpha virt. eigenvalues --    0.19362   0.21020   0.22379   0.22748   0.24476
 Alpha virt. eigenvalues --    0.26374   0.27202   0.27521   0.27980   0.28435
 Alpha virt. eigenvalues --    0.30457   0.30537   0.32103   0.35312   0.36532
 Alpha virt. eigenvalues --    0.36826   0.38388   0.38597   0.39474   0.40747
 Alpha virt. eigenvalues --    0.41811   0.42198   0.43022   0.44187   0.45631
 Alpha virt. eigenvalues --    0.47601   0.49794   0.50444   0.50578   0.52151
 Alpha virt. eigenvalues --    0.53772   0.55575   0.56899   0.57463   0.58379
 Alpha virt. eigenvalues --    0.59200   0.59664   0.60398   0.60647   0.61217
 Alpha virt. eigenvalues --    0.61629   0.62212   0.62798   0.63366   0.63963
 Alpha virt. eigenvalues --    0.65366   0.65997   0.66780   0.67305   0.68142
 Alpha virt. eigenvalues --    0.68595   0.69512   0.70482   0.72761   0.74447
 Alpha virt. eigenvalues --    0.76508   0.78017   0.80486   0.81893   0.82580
 Alpha virt. eigenvalues --    0.84410   0.86791   0.88752   0.89573   0.92957
 Alpha virt. eigenvalues --    0.93796   0.95335   0.96766   0.98865   1.00701
 Alpha virt. eigenvalues --    1.03006   1.03971   1.04674   1.07286   1.08003
 Alpha virt. eigenvalues --    1.09984   1.10836   1.12564   1.13214   1.16697
 Alpha virt. eigenvalues --    1.19244   1.20592   1.21980   1.23721   1.25143
 Alpha virt. eigenvalues --    1.27853   1.29146   1.31553   1.32799   1.33418
 Alpha virt. eigenvalues --    1.35102   1.35387   1.38822   1.39800   1.41961
 Alpha virt. eigenvalues --    1.44456   1.46460   1.47467   1.48172   1.49814
 Alpha virt. eigenvalues --    1.52709   1.57308   1.58392   1.60795   1.62979
 Alpha virt. eigenvalues --    1.66881   1.68194   1.72183   1.72422   1.74273
 Alpha virt. eigenvalues --    1.75569   1.78555   1.78874   1.79881   1.80740
 Alpha virt. eigenvalues --    1.82487   1.83904   1.85527   1.86814   1.87046
 Alpha virt. eigenvalues --    1.89583   1.91520   1.92810   1.95722   1.97004
 Alpha virt. eigenvalues --    1.97858   1.98456   2.03202   2.03497   2.04940
 Alpha virt. eigenvalues --    2.07606   2.10979   2.11367   2.14234   2.15398
 Alpha virt. eigenvalues --    2.16962   2.18909   2.19327   2.20714   2.23345
 Alpha virt. eigenvalues --    2.27124   2.28753   2.30334   2.32113   2.33912
 Alpha virt. eigenvalues --    2.35060   2.35421   2.37293   2.41288   2.42688
 Alpha virt. eigenvalues --    2.44207   2.47977   2.50064   2.50490   2.53738
 Alpha virt. eigenvalues --    2.56741   2.57732   2.59098   2.59644   2.60837
 Alpha virt. eigenvalues --    2.64779   2.66933   2.67210   2.68693   2.69406
 Alpha virt. eigenvalues --    2.70737   2.71467   2.72354   2.74056   2.75222
 Alpha virt. eigenvalues --    2.75682   2.76521   2.79075   2.79790   2.82097
 Alpha virt. eigenvalues --    2.83426   2.83960   2.85410   2.88332   2.89372
 Alpha virt. eigenvalues --    2.89859   2.92842   2.92999   2.96789   2.98660
 Alpha virt. eigenvalues --    3.00153   3.00325   3.01073   3.06928   3.08762
 Alpha virt. eigenvalues --    3.09777   3.11048   3.12410   3.15210   3.15665
 Alpha virt. eigenvalues --    3.19547   3.21625   3.22970   3.24014   3.25296
 Alpha virt. eigenvalues --    3.27195   3.29530   3.30897   3.32259   3.34189
 Alpha virt. eigenvalues --    3.36427   3.38870   3.39279   3.39482   3.41970
 Alpha virt. eigenvalues --    3.42361   3.44574   3.47249   3.48207   3.48689
 Alpha virt. eigenvalues --    3.51084   3.53014   3.53260   3.54275   3.57305
 Alpha virt. eigenvalues --    3.58381   3.59784   3.60711   3.62879   3.63469
 Alpha virt. eigenvalues --    3.64230   3.66330   3.66883   3.68086   3.69058
 Alpha virt. eigenvalues --    3.71900   3.75046   3.76628   3.77724   3.78331
 Alpha virt. eigenvalues --    3.79629   3.81290   3.82066   3.86510   3.89547
 Alpha virt. eigenvalues --    3.93143   3.99058   4.00475   4.03780   4.06097
 Alpha virt. eigenvalues --    4.07814   4.10591   4.13445   4.14561   4.14903
 Alpha virt. eigenvalues --    4.17741   4.18015   4.23997   4.24915   4.27311
 Alpha virt. eigenvalues --    4.29437   4.33144   4.37011   4.40016   4.43044
 Alpha virt. eigenvalues --    4.45937   4.48396   4.50641   4.54670   4.58780
 Alpha virt. eigenvalues --    4.59711   4.67325   4.69290   4.70672   4.76544
 Alpha virt. eigenvalues --    4.78097   4.80893   4.82579   4.86687   4.90029
 Alpha virt. eigenvalues --    4.94454   4.96615   5.00276   5.07699   5.16143
 Alpha virt. eigenvalues --    5.18201   5.27134   5.37987   5.42773   5.43625
 Alpha virt. eigenvalues --    5.59460   5.62081   5.73404   5.83520   5.96696
 Alpha virt. eigenvalues --    6.07543   6.09877   6.41210   6.42686   6.52933
 Alpha virt. eigenvalues --    6.59285   6.65632   6.70449   6.87295   6.89571
 Alpha virt. eigenvalues --    6.97215   7.02313   7.10076   7.30507   7.32590
 Alpha virt. eigenvalues --    7.49426  22.69194  22.74060  22.76332  22.78178
 Alpha virt. eigenvalues --   22.89056  22.99598  23.62077  44.18643  44.25546
  Beta  occ. eigenvalues --  -19.47612 -19.39650 -10.43157 -10.39040 -10.38012
  Beta  occ. eigenvalues --  -10.37888 -10.37160 -10.37060 -10.36579  -1.03335
  Beta  occ. eigenvalues --   -0.93145  -0.78543  -0.69466  -0.68731  -0.57186
  Beta  occ. eigenvalues --   -0.54296  -0.50503  -0.46837  -0.40674  -0.38150
  Beta  occ. eigenvalues --   -0.37239  -0.36637  -0.35456  -0.33103  -0.31554
  Beta  occ. eigenvalues --   -0.29467  -0.27908  -0.27782  -0.25215  -0.25108
  Beta  occ. eigenvalues --   -0.22455  -0.21290  -0.20707  -0.19134  -0.14935
  Beta virt. eigenvalues --    0.15820   0.19200   0.20146   0.20596   0.22357
  Beta virt. eigenvalues --    0.24121   0.25075   0.25365   0.25657   0.26086
  Beta virt. eigenvalues --    0.27492   0.29120   0.29524   0.31453   0.34599
  Beta virt. eigenvalues --    0.35362   0.35772   0.37339   0.37930   0.38601
  Beta virt. eigenvalues --    0.40246   0.41052   0.41795   0.42933   0.43758
  Beta virt. eigenvalues --    0.45832   0.47221   0.49146   0.49583   0.50442
  Beta virt. eigenvalues --    0.51469   0.53177   0.54797   0.55418   0.56650
  Beta virt. eigenvalues --    0.57521   0.57918   0.58655   0.59588   0.59953
  Beta virt. eigenvalues --    0.60065   0.60788   0.61285   0.61530   0.62774
  Beta virt. eigenvalues --    0.63690   0.64365   0.65092   0.65950   0.66274
  Beta virt. eigenvalues --    0.67395   0.67679   0.69385   0.70131   0.72061
  Beta virt. eigenvalues --    0.73841   0.76502   0.77724   0.80930   0.82034
  Beta virt. eigenvalues --    0.82970   0.84862   0.87190   0.88753   0.89926
  Beta virt. eigenvalues --    0.93297   0.93494   0.94863   0.96461   0.98440
  Beta virt. eigenvalues --    1.00511   1.03014   1.03722   1.04422   1.06962
  Beta virt. eigenvalues --    1.07784   1.09931   1.10778   1.12174   1.12979
  Beta virt. eigenvalues --    1.16561   1.18939   1.20927   1.22264   1.23851
  Beta virt. eigenvalues --    1.24888   1.27716   1.29061   1.31311   1.32844
  Beta virt. eigenvalues --    1.33181   1.34833   1.35505   1.38757   1.39673
  Beta virt. eigenvalues --    1.41782   1.44066   1.46246   1.47415   1.48129
  Beta virt. eigenvalues --    1.49990   1.52875   1.57451   1.58764   1.60988
  Beta virt. eigenvalues --    1.63070   1.66972   1.68023   1.71991   1.73667
  Beta virt. eigenvalues --    1.74149   1.75204   1.78388   1.78982   1.79913
  Beta virt. eigenvalues --    1.80774   1.82592   1.84055   1.85466   1.86937
  Beta virt. eigenvalues --    1.87191   1.89453   1.91567   1.92681   1.95635
  Beta virt. eigenvalues --    1.97036   1.97784   1.98828   2.03239   2.03843
  Beta virt. eigenvalues --    2.05272   2.07678   2.11369   2.11705   2.14542
  Beta virt. eigenvalues --    2.15891   2.17200   2.19299   2.19578   2.21230
  Beta virt. eigenvalues --    2.23695   2.27614   2.29294   2.30557   2.32257
  Beta virt. eigenvalues --    2.34170   2.35464   2.35711   2.37576   2.41523
  Beta virt. eigenvalues --    2.42801   2.44452   2.48328   2.50538   2.50937
  Beta virt. eigenvalues --    2.54179   2.56994   2.58092   2.59437   2.60217
  Beta virt. eigenvalues --    2.61290   2.65123   2.67236   2.67486   2.68843
  Beta virt. eigenvalues --    2.69728   2.70871   2.71628   2.72759   2.74286
  Beta virt. eigenvalues --    2.75160   2.76001   2.76785   2.79376   2.80159
  Beta virt. eigenvalues --    2.82357   2.83825   2.84251   2.85753   2.88482
  Beta virt. eigenvalues --    2.89392   2.90563   2.92892   2.93196   2.96958
  Beta virt. eigenvalues --    2.98992   3.00245   3.01145   3.01668   3.07800
  Beta virt. eigenvalues --    3.08996   3.10121   3.11628   3.12769   3.15514
  Beta virt. eigenvalues --    3.16044   3.20030   3.22171   3.23365   3.25055
  Beta virt. eigenvalues --    3.26081   3.28234   3.29862   3.31309   3.32809
  Beta virt. eigenvalues --    3.35872   3.36742   3.39300   3.39964   3.40204
  Beta virt. eigenvalues --    3.42348   3.42966   3.44968   3.47642   3.49003
  Beta virt. eigenvalues --    3.49479   3.51369   3.53413   3.54139   3.54946
  Beta virt. eigenvalues --    3.57825   3.58880   3.60212   3.61679   3.63296
  Beta virt. eigenvalues --    3.63791   3.64593   3.66999   3.67624   3.68707
  Beta virt. eigenvalues --    3.69706   3.72575   3.75473   3.77175   3.78171
  Beta virt. eigenvalues --    3.78701   3.79946   3.81941   3.82507   3.87259
  Beta virt. eigenvalues --    3.90138   3.94100   3.99993   4.01116   4.04563
  Beta virt. eigenvalues --    4.06767   4.08223   4.10979   4.13821   4.15112
  Beta virt. eigenvalues --    4.15247   4.18210   4.18278   4.24302   4.25401
  Beta virt. eigenvalues --    4.27838   4.30045   4.33528   4.37287   4.40362
  Beta virt. eigenvalues --    4.43443   4.46214   4.49119   4.51240   4.55427
  Beta virt. eigenvalues --    4.59490   4.60278   4.67812   4.69825   4.71689
  Beta virt. eigenvalues --    4.76986   4.78863   4.81327   4.83041   4.87938
  Beta virt. eigenvalues --    4.90290   4.95036   4.97129   5.01366   5.08213
  Beta virt. eigenvalues --    5.16737   5.19013   5.29987   5.38356   5.43236
  Beta virt. eigenvalues --    5.44035   5.59659   5.62406   5.73768   5.84144
  Beta virt. eigenvalues --    5.97042   6.08121   6.10602   6.42183   6.43102
  Beta virt. eigenvalues --    6.53985   6.59685   6.66669   6.72001   6.87477
  Beta virt. eigenvalues --    6.90002   6.97751   7.03785   7.10287   7.31078
  Beta virt. eigenvalues --    7.32880   7.49827  22.69248  22.74137  22.76390
  Beta virt. eigenvalues --   22.78222  22.89109  22.99724  23.62735  44.18625
  Beta virt. eigenvalues --   44.25474
          Condensed to atoms (all electrons):
               1          2          3          4          5          6
     1  O    8.081407   0.564817  -0.082539  -0.151697   0.021657   0.007869
     2  C    0.564817   5.521667   0.191599  -0.886171   0.049903  -0.157740
     3  O   -0.082539   0.191599   8.200170  -0.062421   0.009200   0.001328
     4  C   -0.151697  -0.886171  -0.062421   9.772425  -0.580937   0.995416
     5  C    0.021657   0.049903   0.009200  -0.580937   5.705246  -0.608502
     6  C    0.007869  -0.157740   0.001328   0.995416  -0.608502   8.867595
     7  C   -0.001559   0.057703  -0.000817  -0.217987   0.099414  -0.537479
     8  C   -0.001551  -0.085979   0.001570   0.446063  -0.181090   0.794914
     9  C    0.046581  -0.541637   0.033655   0.771149  -0.157114   0.446575
    10  H   -0.008592   0.048576   0.204940  -0.057362  -0.000881  -0.001727
    11  H   -0.017440   0.653988  -0.033750  -2.677590   0.537759  -0.959376
    12  H    0.004729   0.030997  -0.000775  -0.200140   0.485296  -0.223265
    13  H    0.004674   0.050249  -0.000435  -0.128152   0.440889  -0.199711
    14  H   -0.000470   0.046773  -0.000020  -0.478431   0.338684  -1.154377
    15  H   -0.000211   0.010274  -0.000008  -0.049154   0.028611  -0.226621
    16  H   -0.000044   0.003153  -0.000009  -0.019507   0.040489  -0.317729
    17  H   -0.000189   0.002138  -0.000012  -0.008991   0.012474  -0.109117
    18  H   -0.000810   0.059665  -0.001199  -0.400810   0.128378  -0.516206
    19  H   -0.000161   0.009394  -0.000269  -0.008264   0.008077  -0.050899
    20  H   -0.013349   0.150596  -0.012734  -0.161581   0.014202  -0.089727
    21  H   -0.006285   0.095144  -0.008261  -0.203392   0.028593  -0.039640
               7          8          9         10         11         12
     1  O   -0.001559  -0.001551   0.046581  -0.008592  -0.017440   0.004729
     2  C    0.057703  -0.085979  -0.541637   0.048576   0.653988   0.030997
     3  O   -0.000817   0.001570   0.033655   0.204940  -0.033750  -0.000775
     4  C   -0.217987   0.446063   0.771149  -0.057362  -2.677590  -0.200140
     5  C    0.099414  -0.181090  -0.157114  -0.000881   0.537759   0.485296
     6  C   -0.537479   0.794914   0.446575  -0.001727  -0.959376  -0.223265
     7  C    5.518429  -0.210639  -0.336208   0.000506   0.269876   0.035661
     8  C   -0.210639   6.773499   0.637643  -0.000991  -0.568131  -0.015664
     9  C   -0.336208   0.637643   6.383446  -0.016755  -0.602482  -0.024499
    10  H    0.000506  -0.000991  -0.016755   0.522669   0.046546   0.001406
    11  H    0.269876  -0.568131  -0.602482   0.046546   3.238671   0.104136
    12  H    0.035661  -0.015664  -0.024499   0.001406   0.104136   0.583305
    13  H    0.033430  -0.020560  -0.068669   0.000801   0.064282   0.004587
    14  H    0.268331  -0.370573  -0.112977   0.000438   0.452520   0.058439
    15  H    0.046929  -0.055305  -0.040487   0.000044   0.055955   0.023610
    16  H    0.496310  -0.249102  -0.031067   0.000010   0.024805   0.002367
    17  H    0.447219  -0.088653  -0.014356   0.000013   0.006086   0.000797
    18  H    0.257149  -0.664276  -0.281166   0.001049   0.457330   0.008917
    19  H   -0.002125   0.197998  -0.161466   0.000120   0.035782   0.000936
    20  H    0.064096  -0.159403   0.069972   0.004563   0.125258   0.005939
    21  H    0.041391  -0.152635   0.258393   0.007013   0.142721   0.001892
              13         14         15         16         17         18
     1  O    0.004674  -0.000470  -0.000211  -0.000044  -0.000189  -0.000810
     2  C    0.050249   0.046773   0.010274   0.003153   0.002138   0.059665
     3  O   -0.000435  -0.000020  -0.000008  -0.000009  -0.000012  -0.001199
     4  C   -0.128152  -0.478431  -0.049154  -0.019507  -0.008991  -0.400810
     5  C    0.440889   0.338684   0.028611   0.040489   0.012474   0.128378
     6  C   -0.199711  -1.154377  -0.226621  -0.317729  -0.109117  -0.516206
     7  C    0.033430   0.268331   0.046929   0.496310   0.447219   0.257149
     8  C   -0.020560  -0.370573  -0.055305  -0.249102  -0.088653  -0.664276
     9  C   -0.068669  -0.112977  -0.040487  -0.031067  -0.014356  -0.281166
    10  H    0.000801   0.000438   0.000044   0.000010   0.000013   0.001049
    11  H    0.064282   0.452520   0.055955   0.024805   0.006086   0.457330
    12  H    0.004587   0.058439   0.023610   0.002367   0.000797   0.008917
    13  H    0.576834   0.039104   0.024327   0.004071   0.006175   0.009220
    14  H    0.039104   1.374839   0.207533   0.099909   0.021588   0.257280
    15  H    0.024327   0.207533   0.832487   0.044902   0.004512   0.032434
    16  H    0.004071   0.099909   0.044902   0.705025  -0.018760   0.098833
    17  H    0.006175   0.021588   0.004512  -0.018760   0.601532   0.021035
    18  H    0.009220   0.257280   0.032434   0.098833   0.021035   1.358223
    19  H    0.002103   0.020247   0.003827   0.024446   0.001111   0.108949
    20  H    0.025731   0.019387   0.007275   0.009215   0.009845   0.073847
    21  H    0.003525   0.012138   0.001757   0.003260   0.001249   0.077744
              19         20         21
     1  O   -0.000161  -0.013349  -0.006285
     2  C    0.009394   0.150596   0.095144
     3  O   -0.000269  -0.012734  -0.008261
     4  C   -0.008264  -0.161581  -0.203392
     5  C    0.008077   0.014202   0.028593
     6  C   -0.050899  -0.089727  -0.039640
     7  C   -0.002125   0.064096   0.041391
     8  C    0.197998  -0.159403  -0.152635
     9  C   -0.161466   0.069972   0.258393
    10  H    0.000120   0.004563   0.007013
    11  H    0.035782   0.125258   0.142721
    12  H    0.000936   0.005939   0.001892
    13  H    0.002103   0.025731   0.003525
    14  H    0.020247   0.019387   0.012138
    15  H    0.003827   0.007275   0.001757
    16  H    0.024446   0.009215   0.003260
    17  H    0.001111   0.009845   0.001249
    18  H    0.108949   0.073847   0.077744
    19  H    0.688614   0.031143   0.017173
    20  H    0.031143   0.714500   0.033592
    21  H    0.017173   0.033592   0.599288
          Atomic-Atomic Spin Densities.
               1          2          3          4          5          6
     1  O    0.329994  -0.258955   0.037598   0.036055   0.008250   0.004885
     2  C   -0.258955   1.163395  -0.220583  -0.911512   0.060079  -0.170210
     3  O    0.037598  -0.220583   0.174306   0.111321   0.000040   0.001133
     4  C    0.036055  -0.911512   0.111321   3.927792  -0.740444   1.025286
     5  C    0.008250   0.060079   0.000040  -0.740444   0.457430  -0.845144
     6  C    0.004885  -0.170210   0.001133   1.025286  -0.845144   3.678789
     7  C   -0.002322   0.058887  -0.000707  -0.225122   0.179069  -0.820382
     8  C    0.001248  -0.080474   0.001707   0.467294  -0.186200   0.840282
     9  C    0.053744  -0.501586   0.042551   0.521104  -0.126224   0.449522
    10  H   -0.016539   0.103263  -0.075946  -0.097213   0.001890  -0.001788
    11  H   -0.023811   0.665519  -0.041843  -2.989038   0.558532  -0.934046
    12  H    0.001027   0.041495  -0.000749  -0.172933   0.074428  -0.174765
    13  H   -0.009048   0.048624  -0.001208  -0.050236  -0.011919  -0.121536
    14  H   -0.000482   0.046819  -0.000002  -0.451160   0.346546  -1.501640
    15  H   -0.000254   0.010967  -0.000018  -0.065135   0.098204  -0.664456
    16  H   -0.000039   0.003063  -0.000008  -0.017674   0.029006  -0.273900
    17  H   -0.000127   0.002391  -0.000021  -0.000671   0.003379  -0.034698
    18  H   -0.000863   0.059205  -0.001289  -0.374741   0.119819  -0.498070
    19  H   -0.000193   0.009680  -0.000266  -0.024536   0.011858  -0.064549
    20  H   -0.019615   0.142308  -0.012119  -0.066250   0.008808  -0.083364
    21  H   -0.006398   0.095202  -0.021937  -0.161636   0.017519  -0.038782
               7          8          9         10         11         12
     1  O   -0.002322   0.001248   0.053744  -0.016539  -0.023811   0.001027
     2  C    0.058887  -0.080474  -0.501586   0.103263   0.665519   0.041495
     3  O   -0.000707   0.001707   0.042551  -0.075946  -0.041843  -0.000749
     4  C   -0.225122   0.467294   0.521104  -0.097213  -2.989038  -0.172933
     5  C    0.179069  -0.186200  -0.126224   0.001890   0.558532   0.074428
     6  C   -0.820382   0.840282   0.449522  -0.001788  -0.934046  -0.174765
     7  C    0.380660  -0.479299  -0.268788   0.000538   0.258355   0.024484
     8  C   -0.479299   1.616697   0.366867  -0.001452  -0.535418  -0.015313
     9  C   -0.268788   0.366867   1.182319  -0.017188  -0.580496  -0.032135
    10  H    0.000538  -0.001452  -0.017188   0.070972   0.049018   0.001465
    11  H    0.258355  -0.535418  -0.580496   0.049018   2.614322   0.109096
    12  H    0.024484  -0.015313  -0.032135   0.001465   0.109096   0.015949
    13  H    0.028948  -0.013062  -0.069426   0.000991   0.051501   0.021883
    14  H    0.295572  -0.352888  -0.122304   0.000438   0.443135   0.063037
    15  H    0.102361  -0.068474  -0.037140   0.000047   0.055792   0.030668
    16  H    0.087940  -0.208001  -0.042131   0.000010   0.025341   0.002888
    17  H    0.000354  -0.015940  -0.020918   0.000013   0.005636   0.001128
    18  H    0.277707  -1.018576  -0.259347   0.001072   0.446514   0.009311
    19  H    0.051823  -0.237195  -0.092592   0.000132   0.035628   0.000733
    20  H    0.059412  -0.079609  -0.376470   0.005129   0.110867   0.006318
    21  H    0.030161  -0.107332  -0.145055   0.008197   0.147046   0.002478
              13         14         15         16         17         18
     1  O   -0.009048  -0.000482  -0.000254  -0.000039  -0.000127  -0.000863
     2  C    0.048624   0.046819   0.010967   0.003063   0.002391   0.059205
     3  O   -0.001208  -0.000002  -0.000018  -0.000008  -0.000021  -0.001289
     4  C   -0.050236  -0.451160  -0.065135  -0.017674  -0.000671  -0.374741
     5  C   -0.011919   0.346546   0.098204   0.029006   0.003379   0.119819
     6  C   -0.121536  -1.501640  -0.664456  -0.273900  -0.034698  -0.498070
     7  C    0.028948   0.295572   0.102361   0.087940   0.000354   0.277707
     8  C   -0.013062  -0.352888  -0.068474  -0.208001  -0.015940  -1.018576
     9  C   -0.069426  -0.122304  -0.037140  -0.042131  -0.020918  -0.259347
    10  H    0.000991   0.000438   0.000047   0.000010   0.000013   0.001072
    11  H    0.051501   0.443135   0.055792   0.025341   0.005636   0.446514
    12  H    0.021883   0.063037   0.030668   0.002888   0.001128   0.009311
    13  H    0.033814   0.029464   0.026895   0.004476   0.003115   0.008674
    14  H    0.029464   0.736764   0.245492   0.106417   0.009481   0.248333
    15  H    0.026895   0.245492   0.205779   0.051180   0.009461   0.032485
    16  H    0.004476   0.106417   0.051180   0.094821   0.012059   0.105860
    17  H    0.003115   0.009481   0.009461   0.012059   0.006350   0.009376
    18  H    0.008674   0.248333   0.032485   0.105860   0.009376   0.726038
    19  H    0.002111   0.020362   0.004593   0.031342   0.005638   0.144976
    20  H    0.019301   0.018834   0.007259   0.009746   0.006313   0.062318
    21  H    0.004017   0.012529   0.001559   0.003812   0.001488   0.082822
              19         20         21
     1  O   -0.000193  -0.019615  -0.006398
     2  C    0.009680   0.142308   0.095202
     3  O   -0.000266  -0.012119  -0.021937
     4  C   -0.024536  -0.066250  -0.161636
     5  C    0.011858   0.008808   0.017519
     6  C   -0.064549  -0.083364  -0.038782
     7  C    0.051823   0.059412   0.030161
     8  C   -0.237195  -0.079609  -0.107332
     9  C   -0.092592  -0.376470  -0.145055
    10  H    0.000132   0.005129   0.008197
    11  H    0.035628   0.110867   0.147046
    12  H    0.000733   0.006318   0.002478
    13  H    0.002111   0.019301   0.004017
    14  H    0.020362   0.018834   0.012529
    15  H    0.004593   0.007259   0.001559
    16  H    0.031342   0.009746   0.003812
    17  H    0.005638   0.006313   0.001488
    18  H    0.144976   0.062318   0.082822
    19  H    0.059583   0.034339   0.023489
    20  H    0.034339   0.125991   0.057123
    21  H    0.023489   0.057123   0.033329
 Mulliken charges and spin densities:
               1          2
     1  O   -0.446838   0.134154
     2  C    0.124892   0.367577
     3  O   -0.439212  -0.008040
     4  C    0.307535  -0.259448
     5  C   -0.420347   0.064925
     6  C    0.078419  -0.227433
     7  C   -0.329630   0.039652
     8  C   -0.027136  -0.105141
     9  C   -0.258532  -0.075694
    10  H    0.247612   0.033051
    11  H   -0.356948   0.471649
    12  H    0.111329   0.010492
    13  H    0.127525   0.007379
    14  H   -0.100361   0.194747
    15  H    0.047311   0.047264
    16  H    0.079424   0.026208
    17  H    0.104304   0.003806
    18  H   -0.085586   0.181626
    19  H    0.073263   0.016954
    20  H    0.077634   0.036641
    21  H    0.085341   0.039630
 Sum of Mulliken charges =  -1.00000   1.00000
 Mulliken charges and spin densities with hydrogens summed into heavy atoms:
               1          2
     1  O   -0.446838   0.134154
     2  C    0.124892   0.367577
     3  O   -0.191600   0.025011
     4  C   -0.049413   0.212201
     5  C   -0.181493   0.082796
     6  C    0.025369   0.014578
     7  C   -0.145902   0.069666
     8  C   -0.039459   0.093440
     9  C   -0.095557   0.000576
 Electronic spatial extent (au):  <R**2>=           1372.9817
 Charge=             -1.0000 electrons
 Dipole moment (field-independent basis, Debye):
    X=              2.3513    Y=              0.6499    Z=              1.8990  Tot=              3.0915
 Quadrupole moment (field-independent basis, Debye-Ang):
   XX=            -77.8160   YY=            -70.1253   ZZ=            -70.5658
   XY=             -4.5066   XZ=              4.7786   YZ=              4.0736
 Traceless Quadrupole moment (field-independent basis, Debye-Ang):
   XX=             -4.9803   YY=              2.7104   ZZ=              2.2699
   XY=             -4.5066   XZ=              4.7786   YZ=              4.0736
 Octapole moment (field-independent basis, Debye-Ang**2):
  XXX=            -35.6325  YYY=             -2.7067  ZZZ=             23.5229  XYY=             -2.9549
  XXY=             14.4975  XXZ=              0.6236  XZZ=             -7.4883  YZZ=             -3.0759
  YYZ=              4.0941  XYZ=             -8.4649
 Hexadecapole moment (field-independent basis, Debye-Ang**3):
 XXXX=          -1294.0055 YYYY=           -501.1509 ZZZZ=           -241.8500 XXXY=            -48.8406
 XXXZ=             28.5316 YYYX=             -7.2818 YYYZ=              3.5076 ZZZX=             19.8562
 ZZZY=              3.8627 XXYY=           -327.6943 XXZZ=           -274.9840 YYZZ=           -123.4627
 XXYZ=             17.9674 YYXZ=              9.7591 ZZXY=             -1.9766
 N-N= 4.763763368970D+02 E-N=-1.955120876730D+03  KE= 4.227936250989D+02
                          Isotropic Fermi Contact Couplings
        Atom                 a.u.       MegaHertz       Gauss      10(-4) cm-1
     1  O(17)              0.03952     -23.95542      -8.54789      -7.99067
     2  C(13)              0.04184      47.03935      16.78481      15.69064
     3  O(17)              0.04630     -28.06538     -10.01442      -9.36160
     4  C(13)              0.01861      20.92336       7.46598       6.97928
     5  C(13)              0.00037       0.42030       0.14997       0.14020
     6  C(13)              0.04682      52.62991      18.77966      17.55545
     7  C(13)              0.00102       1.14635       0.40905       0.38238
     8  C(13)              0.01316      14.79619       5.27965       4.93548
     9  C(13)              0.12902     145.04185      51.75454      48.38075
    10  H(1)              -0.00040      -1.77994      -0.63513      -0.59372
    11  H(1)              -0.00120      -5.35228      -1.90983      -1.78533
    12  H(1)               0.00035       1.54661       0.55187       0.51590
    13  H(1)               0.00035       1.58105       0.56416       0.52738
    14  H(1)              -0.00025      -1.11827      -0.39903      -0.37301
    15  H(1)               0.00040       1.78090       0.63547       0.59405
    16  H(1)               0.00073       3.24545       1.15806       1.08257
    17  H(1)               0.00105       4.68168       1.67054       1.56164
    18  H(1)              -0.00125      -5.59900      -1.99786      -1.86763
    19  H(1)              -0.00099      -4.41529      -1.57549      -1.47278
    20  H(1)               0.00120       5.35810       1.91190       1.78727
    21  H(1)              -0.00059      -2.62369      -0.93620      -0.87517
 --------------------------------------------------------
       Center         ----  Spin Dipole Couplings  ----
                      3XX-RR        3YY-RR        3ZZ-RR
 --------------------------------------------------------
     1   Atom       -0.303782     -0.001720      0.305501
     2   Atom       -0.171695     -0.008613      0.180308
     3   Atom       -0.094599      0.015243      0.079356
     4   Atom       -0.007545     -0.014454      0.021999
     5   Atom       -0.000627      0.005898     -0.005271
     6   Atom       -0.013229     -0.013864      0.027093
     7   Atom        0.006231     -0.004572     -0.001659
     8   Atom       -0.004805     -0.017670      0.022474
     9   Atom        0.007499     -0.007229     -0.000270
    10   Atom        0.014786     -0.005386     -0.009401
    11   Atom        0.001474     -0.007619      0.006145
    12   Atom       -0.000591      0.001989     -0.001398
    13   Atom        0.001523     -0.000600     -0.000923
    14   Atom       -0.004922     -0.004982      0.009905
    15   Atom       -0.000550      0.001581     -0.001031
    16   Atom        0.002527     -0.002051     -0.000476
    17   Atom        0.000763     -0.001786      0.001022
    18   Atom       -0.004371     -0.007707      0.012078
    19   Atom       -0.001596     -0.000116      0.001712
    20   Atom       -0.000720     -0.005724      0.006444
    21   Atom       -0.003890      0.008608     -0.004718
 --------------------------------------------------------
                        XY            XZ            YZ
 --------------------------------------------------------
     1   Atom        0.091743      0.147725      0.482768
     2   Atom        0.086216      0.109660      0.277443
     3   Atom       -0.012568     -0.028234      0.147268
     4   Atom        0.002369      0.010053     -0.002817
     5   Atom       -0.001187     -0.001670     -0.003089
     6   Atom       -0.002007     -0.006160     -0.001124
     7   Atom       -0.001085      0.003728     -0.000381
     8   Atom        0.017333     -0.030463     -0.020452
     9   Atom        0.008473      0.004586      0.002588
    10   Atom        0.000735      0.001841     -0.000580
    11   Atom        0.005350     -0.017721     -0.006580
    12   Atom       -0.002919     -0.001894      0.001051
    13   Atom       -0.003785      0.001275     -0.001428
    14   Atom       -0.002558      0.001235     -0.006272
    15   Atom       -0.003475      0.001745     -0.003071
    16   Atom       -0.000443      0.000074     -0.000053
    17   Atom       -0.000427      0.000909     -0.000798
    18   Atom        0.001708      0.005105      0.000049
    19   Atom        0.002738      0.000984      0.004744
    20   Atom        0.003590      0.003872      0.001095
    21   Atom        0.000281     -0.000511     -0.001556
 --------------------------------------------------------


 ---------------------------------------------------------------------------------
              Anisotropic Spin Dipole Couplings in Principal Axis System
 ---------------------------------------------------------------------------------

       Atom             a.u.   MegaHertz   Gauss  10(-4) cm-1        Axes

              Baa    -0.3610    26.119     9.320     8.712  0.4276  0.6844 -0.5906
     1 O(17)  Bbb    -0.3278    23.723     8.465     7.913  0.8874 -0.4422  0.1301
              Bcc     0.6888   -49.841   -17.785   -16.625  0.1721  0.5797  0.7965
 
              Baa    -0.2123   -28.489   -10.165    -9.503 -0.6217  0.7110 -0.3288
     2 C(13)  Bbb    -0.1999   -26.824    -9.571    -8.947  0.7481  0.4145 -0.5182
              Bcc     0.4122    55.312    19.737    18.450  0.2322  0.5681  0.7895
 
              Baa    -0.1089     7.882     2.812     2.629 -0.5695  0.6038 -0.5577
     3 O(17)  Bbb    -0.0921     6.665     2.378     2.223  0.8158  0.4982 -0.2936
              Bcc     0.2010   -14.547    -5.191    -4.852 -0.1006  0.6222  0.7764
 
              Baa    -0.0163    -2.181    -0.778    -0.728 -0.4484  0.8750  0.1823
     4 C(13)  Bbb    -0.0089    -1.200    -0.428    -0.400  0.8455  0.4814 -0.2309
              Bcc     0.0252     3.381     1.206     1.128  0.2898 -0.0506  0.9558
 
              Baa    -0.0067    -0.896    -0.320    -0.299  0.3033  0.2542  0.9184
     5 C(13)  Bbb    -0.0001    -0.012    -0.004    -0.004  0.9474  0.0230 -0.3193
              Bcc     0.0068     0.909     0.324     0.303 -0.1023  0.9669 -0.2338
 
              Baa    -0.0162    -2.170    -0.774    -0.724  0.7190  0.6845  0.1202
     6 C(13)  Bbb    -0.0119    -1.591    -0.568    -0.531 -0.6793  0.7287 -0.0864
              Bcc     0.0280     3.761     1.342     1.255 -0.1467 -0.0195  0.9890
 
              Baa    -0.0047    -0.628    -0.224    -0.209  0.0969  0.9953  0.0061
     7 C(13)  Bbb    -0.0031    -0.421    -0.150    -0.141 -0.3664  0.0300  0.9300
              Bcc     0.0078     1.049     0.374     0.350  0.9254 -0.0923  0.3676
 
              Baa    -0.0297    -3.992    -1.424    -1.332 -0.6012  0.7982 -0.0381
     8 C(13)  Bbb    -0.0226    -3.031    -1.081    -1.011  0.6056  0.4861  0.6301
              Bcc     0.0523     7.023     2.506     2.343 -0.5214 -0.3557  0.7756
 
              Baa    -0.0111    -1.491    -0.532    -0.497 -0.4043  0.9134 -0.0471
     9 C(13)  Bbb    -0.0023    -0.304    -0.109    -0.101 -0.3464 -0.1053  0.9322
              Bcc     0.0134     1.795     0.641     0.599  0.8465  0.3931  0.3590
 
              Baa    -0.0096    -5.141    -1.834    -1.715 -0.0788  0.1481  0.9858
    10 H(1)   Bbb    -0.0053    -2.835    -1.012    -0.946 -0.0224  0.9884 -0.1503
              Bcc     0.0149     7.976     2.846     2.661  0.9966  0.0339  0.0746
 
              Baa    -0.0141    -7.516    -2.682    -2.507  0.7389  0.0706  0.6701
    11 H(1)   Bbb    -0.0099    -5.267    -1.879    -1.757 -0.2251  0.9632  0.1467
              Bcc     0.0240    12.783     4.561     4.264 -0.6351 -0.2592  0.7276
 
              Baa    -0.0033    -1.737    -0.620    -0.579  0.7476  0.2970  0.5941
    12 H(1)   Bbb    -0.0013    -0.677    -0.242    -0.226 -0.3640 -0.5650  0.7405
              Bcc     0.0045     2.414     0.862     0.805 -0.5555  0.7698  0.3143
 
              Baa    -0.0035    -1.885    -0.672    -0.629  0.5636  0.8090  0.1674
    13 H(1)   Bbb    -0.0015    -0.778    -0.278    -0.260 -0.3435  0.0453  0.9380
              Bcc     0.0050     2.663     0.950     0.888  0.7513 -0.5861  0.3034
 
              Baa    -0.0084    -4.508    -1.609    -1.504  0.5107  0.8235  0.2470
    14 H(1)   Bbb    -0.0040    -2.127    -0.759    -0.710  0.8517 -0.4451 -0.2767
              Bcc     0.0124     6.636     2.368     2.213  0.1179 -0.3517  0.9287
 
              Baa    -0.0034    -1.799    -0.642    -0.600  0.5329  0.6833  0.4990
    15 H(1)   Bbb    -0.0026    -1.362    -0.486    -0.454 -0.6726 -0.0158  0.7399
              Bcc     0.0059     3.161     1.128     1.054 -0.5134  0.7299 -0.4512
 
              Baa    -0.0021    -1.118    -0.399    -0.373  0.0950  0.9951  0.0281
    16 H(1)   Bbb    -0.0005    -0.255    -0.091    -0.085 -0.0283 -0.0255  0.9993
              Bcc     0.0026     1.372     0.490     0.458  0.9951 -0.0957  0.0257
 
              Baa    -0.0020    -1.072    -0.383    -0.358  0.0727  0.9696  0.2336
    17 H(1)   Bbb    -0.0000    -0.004    -0.001    -0.001  0.7803  0.0906 -0.6188
              Bcc     0.0020     1.076     0.384     0.359  0.6211 -0.2272  0.7501
 
              Baa    -0.0087    -4.619    -1.648    -1.541 -0.4851  0.8665  0.1174
    18 H(1)   Bbb    -0.0049    -2.609    -0.931    -0.870  0.8297  0.4985 -0.2511
              Bcc     0.0135     7.228     2.579     2.411  0.2761  0.0244  0.9608
 
              Baa    -0.0049    -2.593    -0.925    -0.865 -0.4831  0.7426 -0.4637
    19 H(1)   Bbb    -0.0016    -0.838    -0.299    -0.280  0.8209  0.1999 -0.5350
              Bcc     0.0064     3.431     1.224     1.144  0.3046  0.6391  0.7062
 
              Baa    -0.0077    -4.083    -1.457    -1.362 -0.4879  0.8704  0.0664
    20 H(1)   Bbb    -0.0009    -0.493    -0.176    -0.164  0.7563  0.4595 -0.4658
              Bcc     0.0086     4.576     1.633     1.526  0.4359  0.1770  0.8824
 
              Baa    -0.0051    -2.714    -0.969    -0.905  0.3713  0.0973  0.9234
    21 H(1)   Bbb    -0.0037    -1.979    -0.706    -0.660  0.9281 -0.0674 -0.3661
              Bcc     0.0088     4.693     1.675     1.565  0.0266  0.9930 -0.1153
 

 ---------------------------------------------------------------------------------

 Unable to Open any file for archive entry.
 1\1\GINC-NODE16\SP\UM062X\def2TZVP\C7H12O2(1-,2)\SVSS\29-Jan-2024\0\\#
  m062x/def2tzvp\\Ac7_rdkit_conf_2_SP_EA\\-1,2\O,0,-2.284366,-0.997988,
 0.692113\C,0,-1.808657,-0.138727,0.003687\O,0,-2.553958,0.862956,-0.50
 7628\C,0,-0.355824,-0.007343,-0.372733\C,0,0.411337,-1.292765,-0.08242
 2\C,0,1.888563,-1.135513,-0.432287\C,0,2.509726,0.045943,0.30901\C,0,1
 .74037,1.334113,0.0277\C,0,0.261671,1.186296,0.375879\H,0,-3.460985,0.
 727903,-0.197844\H,0,-0.320483,0.216136,-1.444614\H,0,-0.033349,-2.123
 896,-0.632078\H,0,0.30179,-1.529193,0.979532\H,0,1.991394,-0.97658,-1.
 511303\H,0,2.425441,-2.056188,-0.197499\H,0,3.557923,0.162912,0.027689
 \H,0,2.489666,-0.155792,1.385254\H,0,1.833537,1.585403,-1.03423\H,0,2.
 170049,2.166274,0.588412\H,0,0.15511,1.013402,1.452297\H,0,-0.286615,2
 .09786,0.135496\\Version=AS64L-G16RevC.01\State=2-A\HF=-424.3479592\S2
 =0.753512\S2-1=0.\S2A=0.75001\RMSD=3.389e-09\Dipole=0.9250548,0.255689
 2,0.7471353\Quadrupole=-3.7027424,2.0151121,1.6876303,-3.3505117,3.552
 7771,3.028589\PG=C01 [X(C7H12O2)]\\@
 The archive entry for this job was punched.


 YOU CAN WIPE THE SLATE CLEAN, BUT YOU'LL STILL
 HAVE TO EAT A LITTLE CHALK DUST.
 Job cpu time:       0 days  1 hours  4 minutes 15.2 seconds.
 Elapsed time:       0 days  0 hours  8 minutes 15.1 seconds.
 File lengths (MBytes):  RWF=    119 Int=      0 D2E=      0 Chk=     10 Scr=      1
 Normal termination of Gaussian 16 at Mon Jan 29 13:02:20 2024.
