Job Start Time: Thu Feb 29 14:03:12 MST 2024
SLURM Job ID: 235670
SLURM Job Name: Ac7_rdkit_conf_3_SP_NBO
 Entering Gaussian System, Link 0=/opt/apps/Gaussian/G16C/g16/g16
 Initial command:
 /opt/apps/Gaussian/G16C/g16/l1.exe "/tmp/Gau-848639.inp" -scrdir="/tmp/"
 Entering Link 1 = /opt/apps/Gaussian/G16C/g16/l1.exe PID=    848640.
  
 Copyright (c) 1988-2019, Gaussian, Inc.  All Rights Reserved.
  
 This is part of the Gaussian(R) 16 program.  It is based on
 the Gaussian(R) 09 system (copyright 2009, Gaussian, Inc.),
 the Gaussian(R) 03 system (copyright 2003, Gaussian, Inc.),
 the Gaussian(R) 98 system (copyright 1998, Gaussian, Inc.),
 the Gaussian(R) 94 system (copyright 1995, Gaussian, Inc.),
 the Gaussian 92(TM) system (copyright 1992, Gaussian, Inc.),
 the Gaussian 90(TM) system (copyright 1990, Gaussian, Inc.),
 the Gaussian 88(TM) system (copyright 1988, Gaussian, Inc.),
 the Gaussian 86(TM) system (copyright 1986, Carnegie Mellon
 University), and the Gaussian 82(TM) system (copyright 1983,
 Carnegie Mellon University). Gaussian is a federally registered
 trademark of Gaussian, Inc.
  
 This software contains proprietary and confidential information,
 including trade secrets, belonging to Gaussian, Inc.
  
 This software is provided under written license and may be
 used, copied, transmitted, or stored only in accord with that
 written license.
  
 The following legend is applicable only to US Government
 contracts under FAR:
  
                    RESTRICTED RIGHTS LEGEND
  
 Use, reproduction and disclosure by the US Government is
 subject to restrictions as set forth in subparagraphs (a)
 and (c) of the Commercial Computer Software - Restricted
 Rights clause in FAR 52.227-19.
  
 Gaussian, Inc.
 340 Quinnipiac St., Bldg. 40, Wallingford CT 06492
  
  
 ---------------------------------------------------------------
 Warning -- This program may not be used in any manner that
 competes with the business of Gaussian, Inc. or will provide
 assistance to any competitor of Gaussian, Inc.  The licensee
 of this program is prohibited from giving any competitor of
 Gaussian, Inc. access to this program.  By using this program,
 the user acknowledges that Gaussian, Inc. is engaged in the
 business of creating and licensing software in the field of
 computational chemistry and represents and warrants to the
 licensee that it is not a competitor of Gaussian, Inc. and that
 it will not use this program in any manner prohibited above.
 ---------------------------------------------------------------
  

 Cite this work as:
 Gaussian 16, Revision C.01,
 M. J. Frisch, G. W. Trucks, H. B. Schlegel, G. E. Scuseria, 
 M. A. Robb, J. R. Cheeseman, G. Scalmani, V. Barone, 
 G. A. Petersson, H. Nakatsuji, X. Li, M. Caricato, A. V. Marenich, 
 J. Bloino, B. G. Janesko, R. Gomperts, B. Mennucci, H. P. Hratchian, 
 J. V. Ortiz, A. F. Izmaylov, J. L. Sonnenberg, D. Williams-Young, 
 F. Ding, F. Lipparini, F. Egidi, J. Goings, B. Peng, A. Petrone, 
 T. Henderson, D. Ranasinghe, V. G. Zakrzewski, J. Gao, N. Rega, 
 G. Zheng, W. Liang, M. Hada, M. Ehara, K. Toyota, R. Fukuda, 
 J. Hasegawa, M. Ishida, T. Nakajima, Y. Honda, O. Kitao, H. Nakai, 
 T. Vreven, K. Throssell, J. A. Montgomery, Jr., J. E. Peralta, 
 F. Ogliaro, M. J. Bearpark, J. J. Heyd, E. N. Brothers, K. N. Kudin, 
 V. N. Staroverov, T. A. Keith, R. Kobayashi, J. Normand, 
 K. Raghavachari, A. P. Rendell, J. C. Burant, S. S. Iyengar, 
 J. Tomasi, M. Cossi, J. M. Millam, M. Klene, C. Adamo, R. Cammi, 
 J. W. Ochterski, R. L. Martin, K. Morokuma, O. Farkas, 
 J. B. Foresman, and D. J. Fox, Gaussian, Inc., Wallingford CT, 2019.
 
 ******************************************
 Gaussian 16:  AS64L-G16RevC.01  3-Jul-2019
                29-Feb-2024 
 ******************************************
 %nprocshared=8
 Will use up to    8 processors via shared memory.
 %mem=16GB
 ----------------------------------------
 # pop=(nbo6read,savenbos) m062x/def2tzvp
 ----------------------------------------
 1/38=1,163=2,172=1/1;
 2/12=2,17=6,18=5,40=1/2;
 3/5=44,7=101,11=2,25=1,30=1,74=-55/1,2,3;
 4//1;
 5/5=2,38=5/2;
 6/7=2,8=2,9=2,10=2,28=1,40=2,73=1,113=1,114=1,124=2103,126=1/1,12;
 99/5=1,9=1/99;
 -----------------------
 Ac7_rdkit_conf_3_SP_NBO
 -----------------------
 Symbolic Z-matrix:
 Charge =  0 Multiplicity = 1
 O                    -2.71523  -0.00006  -0.9502 
 C                    -1.83475  0.        -0.13537 
 O                    -2.09007   0.00007   1.19 
 C                    -0.35921  -0.00001  -0.43399 
 C                     0.31895   1.26089   0.11817 
 C                     1.80813   1.25892  -0.21739 
 C                     2.49185   0.        0.31086 
 C                     1.80812  -1.25893  -0.21733 
 C                     0.31895  -1.26088   0.11823 
 H                    -3.05252   0.00006   1.2918 
 H                    -0.28208  -0.00003  -1.52377 
 H                    -0.1644    2.15178  -0.28855 
 H                     0.18496   1.28503   1.20325 
 H                     2.28181   2.15134   0.19555 
 H                     1.93251   1.30819  -1.30426 
 H                     2.44654   0.00003   1.40508 
 H                     3.54849  -0.00001   0.03714 
 H                     2.2818   -2.15134   0.19565 
 H                     1.9325   -1.30826  -1.30419 
 H                    -0.16442  -2.15179  -0.28845 
 H                     0.18495  -1.28497   1.20331 
 
                          Input orientation:                          
 ---------------------------------------------------------------------
 Center     Atomic      Atomic             Coordinates (Angstroms)
 Number     Number       Type             X           Y           Z
 ---------------------------------------------------------------------
      1          8           0       -2.715225   -0.000060   -0.950203
      2          6           0       -1.834752   -0.000003   -0.135369
      3          8           0       -2.090070    0.000068    1.189998
      4          6           0       -0.359209   -0.000007   -0.433988
      5          6           0        0.318953    1.260888    0.118166
      6          6           0        1.808129    1.258915   -0.217387
      7          6           0        2.491849    0.000002    0.310861
      8          6           0        1.808122   -1.258931   -0.217327
      9          6           0        0.318946   -1.260881    0.118225
     10          1           0       -3.052518    0.000060    1.291799
     11          1           0       -0.282084   -0.000034   -1.523767
     12          1           0       -0.164403    2.151779   -0.288548
     13          1           0        0.184960    1.285033    1.203245
     14          1           0        2.281808    2.151338    0.195546
     15          1           0        1.932505    1.308187   -1.304255
     16          1           0        2.446541    0.000028    1.405084
     17          1           0        3.548489   -0.000007    0.037143
     18          1           0        2.281796   -2.151337    0.195647
     19          1           0        1.932498   -1.308255   -1.304193
     20          1           0       -0.164415   -2.151787   -0.288449
     21          1           0        0.184953   -1.284974    1.203305
 ---------------------------------------------------------------------
                    Distance matrix (angstroms):
                    1          2          3          4          5
     1  O    0.000000
     2  C    1.199661   0.000000
     3  O    2.229637   1.349735   0.000000
     4  C    2.411906   1.505457   2.373439   0.000000
     5  C    3.455089   2.508500   2.922650   1.534482   0.000000
     6  C    4.752133   3.855150   4.331441   2.515781   1.526514
     7  C    5.357602   4.349551   4.665497   2.946749   2.519611
     8  C    4.752108   3.855146   4.331460   2.515781   2.946128
     9  C    3.455055   2.508493   2.922678   1.534483   2.521769
    10  H    2.267232   1.876103   0.967817   3.198789   3.786016
    11  H    2.499830   2.082889   3.260879   1.092505   2.155717
    12  H    3.402189   2.728314   3.244095   2.165476   1.092125
    13  H    3.834042   2.742707   2.612867   2.151274   1.093587
    14  H    5.559820   4.656591   4.972948   3.464039   2.156777
    15  H    4.841307   4.155705   4.910558   2.778613   2.151527
    16  H    5.673729   4.549996   4.541707   3.354761   2.787931
    17  H    6.341054   5.386004   5.755208   3.935996   3.467899
    18  H    5.559783   4.656584   4.972976   3.464039   3.937262
    19  H    4.841282   4.155700   4.910575   2.778613   3.350691
    20  H    3.402129   2.728302   3.244138   2.165475   3.470638
    21  H    3.834010   2.742701   2.612899   2.151274   2.770721
                    6          7          8          9         10
     6  C    0.000000
     7  C    1.526886   0.000000
     8  C    2.517846   1.526885   0.000000
     9  C    2.946129   2.519611   1.526514   0.000000
    10  H    5.242924   5.630475   5.242932   3.786029   0.000000
    11  H    2.767774   3.325743   2.767773   2.155716   3.950027
    12  H    2.166369   3.470607   3.940669   3.470640   3.933014
    13  H    2.157210   2.787363   3.335331   2.770722   3.484288
    14  H    1.091469   2.164639   3.467676   3.937264   5.855322
    15  H    1.095070   2.152397   2.790516   3.350691   5.770715
    16  H    2.150530   1.095161   2.150529   2.787931   5.500226
    17  H    2.162989   1.091517   2.162989   3.467899   6.719186
    18  H    3.467676   2.164638   1.091468   2.156777   5.855336
    19  H    2.790515   2.152396   1.095071   2.151527   5.770723
    20  H    3.940668   3.470606   2.166368   1.092124   3.933035
    21  H    3.335332   2.787362   2.157209   1.093587   3.484302
                   11         12         13         14         15
    11  H    0.000000
    12  H    2.483931   0.000000
    13  H    3.050594   1.760327   0.000000
    14  H    3.762709   2.493651   2.482481   0.000000
    15  H    2.581479   2.477969   3.056470   1.755654   0.000000
    16  H    4.002944   3.783576   2.608970   2.473510   3.052217
    17  H    4.136391   4.303699   3.784765   2.501571   2.474293
    18  H    3.762708   4.973444   4.149773   4.302675   3.786821
    19  H    2.581478   4.171374   4.008276   3.786822   2.616442
    20  H    2.483928   4.303566   3.762837   4.973444   4.171373
    21  H    3.050593   3.762838   2.570007   4.149773   4.008276
                   16         17         18         19         20
    16  H    0.000000
    17  H    1.756574   0.000000
    18  H    2.473510   2.501571   0.000000
    19  H    3.052217   2.474292   1.755653   0.000000
    20  H    3.783577   4.303699   2.493651   2.477968   0.000000
    21  H    2.608970   3.784765   2.482481   3.056469   1.760327
                   21
    21  H    0.000000
 Stoichiometry    C7H12O2
 Framework group  C1[X(C7H12O2)]
 Deg. of freedom    57
 Full point group                 C1      NOp   1
 Largest Abelian subgroup         C1      NOp   1
 Largest concise Abelian subgroup C1      NOp   1
                         Standard orientation:                         
 ---------------------------------------------------------------------
 Center     Atomic      Atomic             Coordinates (Angstroms)
 Number     Number       Type             X           Y           Z
 ---------------------------------------------------------------------
      1          8           0        2.715225    0.000060   -0.950203
      2          6           0        1.834752    0.000003   -0.135369
      3          8           0        2.090070   -0.000068    1.189998
      4          6           0        0.359209    0.000007   -0.433988
      5          6           0       -0.318953   -1.260888    0.118166
      6          6           0       -1.808129   -1.258915   -0.217387
      7          6           0       -2.491849   -0.000002    0.310861
      8          6           0       -1.808122    1.258931   -0.217327
      9          6           0       -0.318946    1.260881    0.118225
     10          1           0        3.052518   -0.000060    1.291799
     11          1           0        0.282084    0.000034   -1.523767
     12          1           0        0.164403   -2.151779   -0.288548
     13          1           0       -0.184960   -1.285033    1.203245
     14          1           0       -2.281808   -2.151338    0.195546
     15          1           0       -1.932505   -1.308187   -1.304255
     16          1           0       -2.446541   -0.000028    1.405084
     17          1           0       -3.548489    0.000007    0.037143
     18          1           0       -2.281796    2.151337    0.195647
     19          1           0       -1.932498    1.308255   -1.304193
     20          1           0        0.164415    2.151787   -0.288449
     21          1           0       -0.184953    1.284974    1.203305
 ---------------------------------------------------------------------
 Rotational constants (GHZ):           3.2312924           1.0412745           0.9495841
 Standard basis: def2TZVP (5D, 7F)
 There are   396 symmetry adapted cartesian basis functions of A   symmetry.
 There are   351 symmetry adapted basis functions of A   symmetry.
   351 basis functions,   555 primitive gaussians,   396 cartesian basis functions
    35 alpha electrons       35 beta electrons
       nuclear repulsion energy       476.8310901325 Hartrees.
 NAtoms=   21 NActive=   21 NUniq=   21 SFac= 1.00D+00 NAtFMM=   60 NAOKFM=F Big=F
 Integral buffers will be    131072 words long.
 Raffenetti 2 integral format.
 Two-electron integral symmetry is turned on.
 One-electron integrals computed using PRISM.
   1 Symmetry operations used in ECPInt.
 ECPInt:  NShTT=   10878 NPrTT=   32112 LenC2=   10591 LenP2D=   25008.
 LDataN:  DoStor=T MaxTD1= 6 Len=  172
 NBasis=   351 RedAO= T EigKep=  8.19D-05  NBF=   351
 NBsUse=   351 1.00D-06 EigRej= -1.00D+00 NBFU=   351
 ExpMin= 9.52D-02 ExpMax= 2.70D+04 ExpMxC= 9.22D+02 IAcc=3 IRadAn=         5 AccDes= 0.00D+00
 Harris functional with IExCor= 1009 and IRadAn=       5 diagonalized for initial guess.
 HarFok:  IExCor= 1009 AccDes= 0.00D+00 IRadAn=         5 IDoV= 1 UseB2=F ITyADJ=14
 ICtDFT=  3500011 ScaDFX=  1.000000  1.000000  1.000000  1.000000
 FoFCou: FMM=F IPFlag=           0 FMFlag=      100000 FMFlg1=           0
         NFxFlg=           0 DoJE=T BraDBF=F KetDBF=T FulRan=T
         wScrn=  0.000000 ICntrl=       500 IOpCl=  0 I1Cent=   200000004 NGrid=           0
         NMat0=    1 NMatS0=      1 NMatT0=    0 NMatD0=    1 NMtDS0=    0 NMtDT0=    0
 Petite list used in FoFCou.
 Requested convergence on RMS density matrix=1.00D-08 within 128 cycles.
 Requested convergence on MAX density matrix=1.00D-06.
 Requested convergence on             energy=1.00D-06.
 No special actions if energy rises.
 Integral accuracy reduced to 1.0D-05 until final iterations.
 Initial convergence to 1.0D-05 achieved.  Increase integral accuracy.
 SCF Done:  E(RM062X) =  -424.431040826     A.U. after   15 cycles
            NFock= 15  Conv=0.21D-08     -V/T= 2.0048

 **********************************************************************

            Population analysis using the SCF Density.

 **********************************************************************

 Orbital symmetries:
       Occupied  (A) (A) (A) (A) (A) (A) (A) (A) (A) (A) (A) (A)
                 (A) (A) (A) (A) (A) (A) (A) (A) (A) (A) (A) (A)
                 (A) (A) (A) (A) (A) (A) (A) (A) (A) (A) (A)
       Virtual   (A) (A) (A) (A) (A) (A) (A) (A) (A) (A) (A) (A)
                 (A) (A) (A) (A) (A) (A) (A) (A) (A) (A) (A) (A)
                 (A) (A) (A) (A) (A) (A) (A) (A) (A) (A) (A) (A)
                 (A) (A) (A) (A) (A) (A) (A) (A) (A) (A) (A) (A)
                 (A) (A) (A) (A) (A) (A) (A) (A) (A) (A) (A) (A)
                 (A) (A) (A) (A) (A) (A) (A) (A) (A) (A) (A) (A)
                 (A) (A) (A) (A) (A) (A) (A) (A) (A) (A) (A) (A)
                 (A) (A) (A) (A) (A) (A) (A) (A) (A) (A) (A) (A)
                 (A) (A) (A) (A) (A) (A) (A) (A) (A) (A) (A) (A)
                 (A) (A) (A) (A) (A) (A) (A) (A) (A) (A) (A) (A)
                 (A) (A) (A) (A) (A) (A) (A) (A) (A) (A) (A) (A)
                 (A) (A) (A) (A) (A) (A) (A) (A) (A) (A) (A) (A)
                 (A) (A) (A) (A) (A) (A) (A) (A) (A) (A) (A) (A)
                 (A) (A) (A) (A) (A) (A) (A) (A) (A) (A) (A) (A)
                 (A) (A) (A) (A) (A) (A) (A) (A) (A) (A) (A) (A)
                 (A) (A) (A) (A) (A) (A) (A) (A) (A) (A) (A) (A)
                 (A) (A) (A) (A) (A) (A) (A) (A) (A) (A) (A) (A)
                 (A) (A) (A) (A) (A) (A) (A) (A) (A) (A) (A) (A)
                 (A) (A) (A) (A) (A) (A) (A) (A) (A) (A) (A) (A)
                 (A) (A) (A) (A) (A) (A) (A) (A) (A) (A) (A) (A)
                 (A) (A) (A) (A) (A) (A) (A) (A) (A) (A) (A) (A)
                 (A) (A) (A) (A) (A) (A) (A) (A) (A) (A) (A) (A)
                 (A) (A) (A) (A) (A) (A) (A) (A) (A) (A) (A) (A)
                 (A) (A) (A) (A) (A) (A) (A) (A) (A) (A) (A) (A)
                 (A) (A) (A) (A) (A) (A) (A) (A) (A) (A) (A) (A)
                 (A) (A) (A) (A) (A) (A) (A) (A) (A) (A) (A) (A)
                 (A) (A) (A) (A)
 The electronic state is 1-A.
 Alpha  occ. eigenvalues --  -19.67166 -19.61601 -10.67072 -10.55229 -10.53872
 Alpha  occ. eigenvalues --  -10.53871 -10.53397 -10.53394 -10.53198  -1.23801
 Alpha  occ. eigenvalues --   -1.14077  -0.95017  -0.86498  -0.84685  -0.74578
 Alpha  occ. eigenvalues --   -0.70375  -0.68115  -0.64715  -0.58078  -0.57764
 Alpha  occ. eigenvalues --   -0.53833  -0.53778  -0.51374  -0.51345  -0.49673
 Alpha  occ. eigenvalues --   -0.46136  -0.45119  -0.44038  -0.41565  -0.41365
 Alpha  occ. eigenvalues --   -0.39538  -0.39236  -0.38417  -0.36370  -0.34125
 Alpha virt. eigenvalues --    0.05275   0.05758   0.07281   0.08130   0.09217
 Alpha virt. eigenvalues --    0.11067   0.12768   0.12935   0.14116   0.14348
 Alpha virt. eigenvalues --    0.14770   0.15844   0.16482   0.16767   0.19259
 Alpha virt. eigenvalues --    0.22572   0.22922   0.23635   0.24734   0.25016
 Alpha virt. eigenvalues --    0.25668   0.26382   0.28021   0.28433   0.28993
 Alpha virt. eigenvalues --    0.30706   0.31733   0.34124   0.34292   0.36103
 Alpha virt. eigenvalues --    0.36921   0.38975   0.39675   0.41274   0.42455
 Alpha virt. eigenvalues --    0.42688   0.43888   0.44794   0.45865   0.46319
 Alpha virt. eigenvalues --    0.46565   0.46736   0.46912   0.47557   0.47660
 Alpha virt. eigenvalues --    0.49111   0.49973   0.50785   0.50865   0.52859
 Alpha virt. eigenvalues --    0.53143   0.53296   0.53490   0.56629   0.56989
 Alpha virt. eigenvalues --    0.57413   0.60887   0.62830   0.64888   0.65774
 Alpha virt. eigenvalues --    0.66131   0.67917   0.70548   0.72339   0.74006
 Alpha virt. eigenvalues --    0.76676   0.79189   0.79554   0.83202   0.83930
 Alpha virt. eigenvalues --    0.85063   0.85525   0.88716   0.90204   0.90830
 Alpha virt. eigenvalues --    0.91746   0.93758   0.95381   0.97063   0.98104
 Alpha virt. eigenvalues --    0.99409   1.04910   1.05032   1.07084   1.07975
 Alpha virt. eigenvalues --    1.10199   1.10612   1.14179   1.15815   1.16522
 Alpha virt. eigenvalues --    1.18075   1.18123   1.21322   1.22399   1.25199
 Alpha virt. eigenvalues --    1.26087   1.28580   1.29981   1.30877   1.33133
 Alpha virt. eigenvalues --    1.36229   1.37183   1.42041   1.42992   1.44212
 Alpha virt. eigenvalues --    1.44876   1.50213   1.52377   1.52480   1.55166
 Alpha virt. eigenvalues --    1.58201   1.58611   1.62324   1.63659   1.63936
 Alpha virt. eigenvalues --    1.64278   1.67288   1.67548   1.68512   1.70027
 Alpha virt. eigenvalues --    1.70210   1.73378   1.73538   1.77304   1.79293
 Alpha virt. eigenvalues --    1.79920   1.80153   1.83579   1.84289   1.88300
 Alpha virt. eigenvalues --    1.91523   1.92545   1.93038   1.96648   1.98008
 Alpha virt. eigenvalues --    1.99106   2.01908   2.02068   2.03317   2.04539
 Alpha virt. eigenvalues --    2.05017   2.09525   2.12461   2.13252   2.16654
 Alpha virt. eigenvalues --    2.17198   2.20564   2.20595   2.22322   2.25577
 Alpha virt. eigenvalues --    2.26758   2.27337   2.28285   2.32482   2.33462
 Alpha virt. eigenvalues --    2.35383   2.41023   2.41340   2.43592   2.44491
 Alpha virt. eigenvalues --    2.46728   2.48790   2.50899   2.52336   2.53201
 Alpha virt. eigenvalues --    2.53611   2.54747   2.55811   2.57154   2.58659
 Alpha virt. eigenvalues --    2.60130   2.60564   2.62070   2.63735   2.64803
 Alpha virt. eigenvalues --    2.67542   2.68014   2.69022   2.69460   2.73273
 Alpha virt. eigenvalues --    2.73696   2.76751   2.77911   2.79589   2.80650
 Alpha virt. eigenvalues --    2.83046   2.84413   2.85029   2.87901   2.90206
 Alpha virt. eigenvalues --    2.91325   2.92304   2.97336   2.97429   2.98034
 Alpha virt. eigenvalues --    2.98401   2.99720   3.03036   3.05198   3.06880
 Alpha virt. eigenvalues --    3.09350   3.09987   3.11104   3.13549   3.15823
 Alpha virt. eigenvalues --    3.18084   3.18429   3.18513   3.22280   3.22992
 Alpha virt. eigenvalues --    3.23626   3.26579   3.27459   3.30137   3.32741
 Alpha virt. eigenvalues --    3.33586   3.34917   3.36444   3.36978   3.37159
 Alpha virt. eigenvalues --    3.38770   3.42315   3.43417   3.44133   3.44886
 Alpha virt. eigenvalues --    3.47851   3.48654   3.49077   3.51089   3.52090
 Alpha virt. eigenvalues --    3.53411   3.54997   3.57305   3.60943   3.61189
 Alpha virt. eigenvalues --    3.63470   3.63908   3.67142   3.67384   3.69661
 Alpha virt. eigenvalues --    3.72617   3.77306   3.77750   3.87885   3.89669
 Alpha virt. eigenvalues --    3.90543   3.92610   3.93293   3.98363   3.99268
 Alpha virt. eigenvalues --    3.99433   4.03281   4.04182   4.04796   4.04955
 Alpha virt. eigenvalues --    4.12738   4.12902   4.17413   4.18078   4.25087
 Alpha virt. eigenvalues --    4.25349   4.25711   4.32187   4.32436   4.39119
 Alpha virt. eigenvalues --    4.43760   4.46303   4.51897   4.53582   4.56798
 Alpha virt. eigenvalues --    4.57181   4.62864   4.65585   4.65750   4.71583
 Alpha virt. eigenvalues --    4.74408   4.77160   4.78233   4.83674   4.89837
 Alpha virt. eigenvalues --    5.00886   5.02390   5.12161   5.17594   5.21617
 Alpha virt. eigenvalues --    5.23848   5.40596   5.41572   5.53700   5.63109
 Alpha virt. eigenvalues --    5.75894   5.88663   5.89718   6.19972   6.24093
 Alpha virt. eigenvalues --    6.34033   6.38502   6.47300   6.50738   6.68430
 Alpha virt. eigenvalues --    6.70262   6.78346   6.82616   6.90879   7.09909
 Alpha virt. eigenvalues --    7.11288   7.31272  22.55301  22.58171  22.59306
 Alpha virt. eigenvalues --   22.62478  22.71766  22.81338  23.39835  43.97057
 Alpha virt. eigenvalues --   44.02165
          Condensed to atoms (all electrons):
               1          2          3          4          5          6
     1  O    7.802219   0.683950  -0.096527  -0.094697   0.001595  -0.000878
     2  C    0.683950   4.499718   0.359072   0.266095  -0.021882   0.003507
     3  O   -0.096527   0.359072   7.969708  -0.112031  -0.007393   0.000073
     4  C   -0.094697   0.266095  -0.112031   5.479454   0.157795  -0.023975
     5  C    0.001595  -0.021882  -0.007393   0.157795   5.319800   0.219244
     6  C   -0.000878   0.003507   0.000073  -0.023975   0.219244   5.194599
     7  C    0.000026  -0.000335   0.000359   0.001086  -0.042362   0.241564
     8  C   -0.000878   0.003507   0.000073  -0.023977  -0.005924  -0.039282
     9  C    0.001593  -0.021883  -0.007393   0.157803  -0.005711  -0.005924
    10  H    0.006703  -0.023843   0.291437   0.015207   0.000153   0.000120
    11  H    0.009351  -0.034235   0.005035   0.436925  -0.043960  -0.005939
    12  H    0.002244  -0.001438  -0.000519  -0.048315   0.428931  -0.040976
    13  H    0.000180  -0.007392   0.007671  -0.037485   0.427245  -0.045451
    14  H    0.000012  -0.000455   0.000011   0.008758  -0.050665   0.439745
    15  H   -0.000021   0.000174  -0.000028  -0.002628  -0.051413   0.433676
    16  H   -0.000000   0.000186  -0.000094  -0.001585   0.001248  -0.053784
    17  H   -0.000002   0.000126  -0.000001  -0.001300   0.009214  -0.046166
    18  H    0.000012  -0.000455   0.000011   0.008758  -0.001714   0.008918
    19  H   -0.000021   0.000174  -0.000028  -0.002627   0.000893  -0.002080
    20  H    0.002245  -0.001438  -0.000519  -0.048314   0.006839  -0.001026
    21  H    0.000180  -0.007391   0.007671  -0.037486  -0.008304   0.001359
               7          8          9         10         11         12
     1  O    0.000026  -0.000878   0.001593   0.006703   0.009351   0.002244
     2  C   -0.000335   0.003507  -0.021883  -0.023843  -0.034235  -0.001438
     3  O    0.000359   0.000073  -0.007393   0.291437   0.005035  -0.000519
     4  C    0.001086  -0.023977   0.157803   0.015207   0.436925  -0.048315
     5  C   -0.042362  -0.005924  -0.005711   0.000153  -0.043960   0.428931
     6  C    0.241564  -0.039282  -0.005924   0.000120  -0.005939  -0.040976
     7  C    5.192658   0.241565  -0.042362  -0.000023   0.000785   0.008118
     8  C    0.241565   5.194597   0.219247   0.000120  -0.005939  -0.001026
     9  C   -0.042362   0.219247   5.319795   0.000154  -0.043960   0.006838
    10  H   -0.000023   0.000120   0.000154   0.377818  -0.000727  -0.000265
    11  H    0.000785  -0.005939  -0.043960  -0.000727   0.509756  -0.001085
    12  H    0.008118  -0.001026   0.006838  -0.000265  -0.001085   0.517280
    13  H   -0.003427   0.001359  -0.008304  -0.000444   0.005762  -0.014680
    14  H   -0.044404   0.008918  -0.001714  -0.000006   0.000165  -0.006548
    15  H   -0.053303  -0.002080   0.000893   0.000004   0.001684  -0.002460
    16  H    0.431288  -0.053784   0.001248   0.000002   0.000051  -0.000108
    17  H    0.438090  -0.046166   0.009214   0.000001  -0.000315  -0.000295
    18  H   -0.044404   0.439746  -0.050666  -0.000006   0.000165   0.000150
    19  H   -0.053303   0.433676  -0.051414   0.000004   0.001684  -0.000188
    20  H    0.008118  -0.040976   0.428930  -0.000265  -0.001085  -0.000406
    21  H   -0.003426  -0.045451   0.427245  -0.000444   0.005762  -0.000097
              13         14         15         16         17         18
     1  O    0.000180   0.000012  -0.000021  -0.000000  -0.000002   0.000012
     2  C   -0.007392  -0.000455   0.000174   0.000186   0.000126  -0.000455
     3  O    0.007671   0.000011  -0.000028  -0.000094  -0.000001   0.000011
     4  C   -0.037485   0.008758  -0.002628  -0.001585  -0.001300   0.008758
     5  C    0.427245  -0.050665  -0.051413   0.001248   0.009214  -0.001714
     6  C   -0.045451   0.439745   0.433676  -0.053784  -0.046166   0.008918
     7  C   -0.003427  -0.044404  -0.053303   0.431288   0.438090  -0.044404
     8  C    0.001359   0.008918  -0.002080  -0.053784  -0.046166   0.439746
     9  C   -0.008304  -0.001714   0.000893   0.001248   0.009214  -0.050666
    10  H   -0.000444  -0.000006   0.000004   0.000002   0.000001  -0.000006
    11  H    0.005762   0.000165   0.001684   0.000051  -0.000315   0.000165
    12  H   -0.014680  -0.006548  -0.002460  -0.000108  -0.000295   0.000150
    13  H    0.495226  -0.002842   0.005830   0.001720  -0.000156  -0.000111
    14  H   -0.002842   0.531926  -0.018057  -0.003132  -0.005792  -0.000345
    15  H    0.005830  -0.018057   0.531748   0.006874  -0.002749  -0.000190
    16  H    0.001720  -0.003132   0.006874   0.538011  -0.018098  -0.003132
    17  H   -0.000156  -0.005792  -0.002749  -0.018098   0.528497  -0.005792
    18  H   -0.000111  -0.000345  -0.000190  -0.003132  -0.005792   0.531926
    19  H    0.000127  -0.000190   0.002516   0.006874  -0.002749  -0.018057
    20  H   -0.000097   0.000150  -0.000188  -0.000108  -0.000295  -0.006548
    21  H    0.003586  -0.000111   0.000127   0.001720  -0.000156  -0.002842
              19         20         21
     1  O   -0.000021   0.002245   0.000180
     2  C    0.000174  -0.001438  -0.007391
     3  O   -0.000028  -0.000519   0.007671
     4  C   -0.002627  -0.048314  -0.037486
     5  C    0.000893   0.006839  -0.008304
     6  C   -0.002080  -0.001026   0.001359
     7  C   -0.053303   0.008118  -0.003426
     8  C    0.433676  -0.040976  -0.045451
     9  C   -0.051414   0.428930   0.427245
    10  H    0.000004  -0.000265  -0.000444
    11  H    0.001684  -0.001085   0.005762
    12  H   -0.000188  -0.000406  -0.000097
    13  H    0.000127  -0.000097   0.003586
    14  H   -0.000190   0.000150  -0.000111
    15  H    0.002516  -0.000188   0.000127
    16  H    0.006874  -0.000108   0.001720
    17  H   -0.002749  -0.000295  -0.000156
    18  H   -0.018057  -0.006548  -0.002842
    19  H    0.531748  -0.002460   0.005830
    20  H   -0.002460   0.517278  -0.014680
    21  H    0.005830  -0.014680   0.495227
 Mulliken charges:
               1
     1  O   -0.317284
     2  C    0.304240
     3  O   -0.416587
     4  C   -0.097463
     5  C   -0.333629
     6  C   -0.277324
     7  C   -0.276308
     8  C   -0.277325
     9  C   -0.333630
    10  H    0.334302
    11  H    0.160121
    12  H    0.154848
    13  H    0.171682
    14  H    0.144576
    15  H    0.149591
    16  H    0.144601
    17  H    0.144891
    18  H    0.144576
    19  H    0.149591
    20  H    0.154849
    21  H    0.171682
 Sum of Mulliken charges =  -0.00000
 Mulliken charges with hydrogens summed into heavy atoms:
               1
     1  O   -0.317284
     2  C    0.304240
     3  O   -0.082285
     4  C    0.062658
     5  C   -0.007098
     6  C    0.016842
     7  C    0.013184
     8  C    0.016842
     9  C   -0.007099
 Electronic spatial extent (au):  <R**2>=           1323.7687
 Charge=             -0.0000 electrons
 Dipole moment (field-independent basis, Debye):
    X=             -1.6312    Y=             -0.0001    Z=              1.3325  Tot=              2.1063
 Quadrupole moment (field-independent basis, Debye-Ang):
   XX=            -57.1801   YY=            -54.4513   ZZ=            -57.2211
   XY=             -0.0004   XZ=              6.8970   YZ=              0.0002
 Traceless Quadrupole moment (field-independent basis, Debye-Ang):
   XX=             -0.8959   YY=              1.8329   ZZ=             -0.9370
   XY=             -0.0004   XZ=              6.8970   YZ=              0.0002
 Octapole moment (field-independent basis, Debye-Ang**2):
  XXX=             17.7690  YYY=             -0.0000  ZZZ=              3.4293  XYY=              6.2750
  XXY=             -0.0014  XXZ=             26.8673  XZZ=              2.5456  YZZ=             -0.0001
  YYZ=              0.4807  XYZ=              0.0004
 Hexadecapole moment (field-independent basis, Debye-Ang**3):
 XXXX=          -1125.1890 YYYY=           -362.8578 ZZZZ=           -200.9049 XXXY=             -0.0050
 XXXZ=             97.4024 YYYX=              0.0002 YYYZ=             -0.0003 ZZZX=             14.9430
 ZZZY=             -0.0005 XXYY=           -251.4015 XXZZ=           -225.7281 YYZZ=            -96.1350
 XXYZ=              0.0003 YYXZ=             -2.5158 ZZXY=             -0.0008
 N-N= 4.768310901325D+02 E-N=-1.943587939186D+03  KE= 4.224217246384D+02
 Running external command "gaunbo6 R"
         input file       "/tmp/Gau-848640.EIn"
         output file      "/tmp/Gau-848640.EOu"
         message file     "/tmp/Gau-848640.EMs"
         fchk file        "/tmp/Gau-848640.EFC"
         mat. el file     "/tmp/Gau-848640.EUF"

 Writing WrtUnf unformatted file "/tmp/Gau-848640.EUF"
 Gaussian matrix elements                                         Version   2 NLab=11 Len12L=8 Len4L=8
 Write SHELL TO ATOM MAP                   from file      0 offset           0 length                 147 to matrix element file.
 Write SHELL TYPES                         from file      0 offset           0 length                 147 to matrix element file.
 Write NUMBER OF PRIMITIVES PER SHELL      from file      0 offset           0 length                 147 to matrix element file.
 Write PRIMITIVE EXPONENTS                 from file      0 offset           0 length                 252 to matrix element file.
 Write CONTRACTION COEFFICIENTS            from file      0 offset           0 length                 252 to matrix element file.
 Write P(S=P) CONTRACTION COEFFICIENTS     from file      0 offset           0 length                 252 to matrix element file.
 Write COORDINATES OF EACH SHELL           from file      0 offset           0 length                 441 to matrix element file.
 Write BONDS PER ATOM                      from file      0 offset           0 length                  21 to matrix element file.
 Write BONDED ATOMS                        from file      0 offset           0 length                  42 to matrix element file.
 Write BOND TYPES                          from file      0 offset           0 length                  42 to matrix element file.
 Write ONIOM CHARGE/MULT                   from file      0 offset           0 length                  32 to matrix element file.
 Write ONIOM ATOM LAYERS                   from file      0 offset           0 length                  21 to matrix element file.
 Write ONIOM ATOM MODIFIERS                from file      0 offset           0 length                  21 to matrix element file.
 Write ONIOM ATOM TYPES                    from file      0 offset           0 length                  21 to matrix element file.
 Write ONIOM LINK ATOMS                    from file      0 offset           0 length                  21 to matrix element file.
 Write ONIOM LINK CHARGES                  from file      0 offset           0 length                  21 to matrix element file.
 Write ONIOM LINK DISTANCES                from file      0 offset           0 length                  84 to matrix element file.
 Write SYMINF INTS                         from file      0 offset           0 length                  26 to matrix element file.
 Write ROTTR TO SO                         from file      0 offset           0 length                  12 to matrix element file.
 Write GAUSSIAN SCALARS                    from file    501 offset           0 to matrix element file.
 Write OPTIMIZATION FLAGS                  from file      0 offset           0 length                  21 to matrix element file.
 Write INTEGER ISO                         from file      0 offset           0 length                  21 to matrix element file.
 Write INTEGER SPIN                        from file      0 offset           0 length                  21 to matrix element file.
 Write REAL ZEFFECTIVE                     from file      0 offset           0 length                  21 to matrix element file.
 Write REAL GFACTOR                        from file      0 offset           0 length                  21 to matrix element file.
 Write REAL ZNUCLEAR                       from file      0 offset           0 length                  21 to matrix element file.
 Write MULLIKEN CHARGES                    from file      0 offset           0 length                  21 to matrix element file.
 Write NUCLEAR GRADIENT                    from file  10584 offset           0 length                  63 to matrix element file.
 Array NUCLEAR FORCE CONSTANTS              on  file  10585 does not exist.
 Write ELECTRIC DIPOLE MOMENT              from file      0 offset           0 length                   3 to matrix element file.
 Write NON-ADIABATIC COUPLING              from file  10810 offset           0 length                  63 to matrix element file.
 Write FINITE EM FIELD                     from file  10521 offset           0 length                  35 to matrix element file.
 Write OVERLAP                             from file  10514 offset           0 length               61776 to matrix element file.
 Write CORE HAMILTONIAN ALPHA              from file  10515 offset           0 length               61776 to matrix element file.
 Write CORE HAMILTONIAN BETA               from file  10515 offset       61776 length               61776 to matrix element file.
 Write KINETIC ENERGY                      from file  10516 offset           0 length               61776 to matrix element file.
 Write ORTHOGONAL BASIS                    from file  10685 offset           0 length              123201 to matrix element file.
 Write DIPOLE INTEGRALS                    from file  10518 offset           0 length              185328 to matrix element file.
 Array DIP VEL INTEGRALS                    on  file  10572 does not exist.
 Array R X DEL INTEGRALS                    on  file  10572 does not exist.
 Write ALPHA ORBITAL ENERGIES              from file      0 offset           0 length                 351 to matrix element file.
 Write ALPHA MO COEFFICIENTS               from file  10524 offset           0 length              123201 to matrix element file.
 Write ALPHA DENSITY MATRIX                from file      0 offset           0 length               61776 to matrix element file.
 Write ALPHA FOCK MATRIX                   from file  10536 offset           0 length               61776 to matrix element file.
 Write ENERGY-WEIGHTED DENSITY             from file  10571 offset           0 length               61776 to matrix element file.
 Write ALPHA SCF DENSITY MATRIX            from file      0 offset           0 length               61776 to matrix element file.
 Write INTEGER PARAMETERS                  from file      0 offset           0 length                   2 to matrix element file.
 No 2e integrals to process.
 Perform NBO analysis...

 *********************************** NBO 7.0 ***********************************
             N A T U R A L   A T O M I C   O R B I T A L   A N D
          N A T U R A L   B O N D   O R B I T A L   A N A L Y S I S
 **************************** Robert Paton (I101709) ***************************
  (c) Copyright 1996-2019 Board of Regents of the University of Wisconsin System
      on behalf of the Theoretical Chemistry Institute.  All rights reserved.

          Cite this program [NBO 7.0.5 (4-Jun-2019)] as:

          NBO 7.0.  E. D. Glendening, J. K. Badenhoop, A. E. Reed,
          J. E. Carpenter, J. A. Bohmann, C. M. Morales, P. Karafiloglou,
          C. R. Landis, and F. Weinhold, Theoretical Chemistry Institute,
          University of Wisconsin, Madison, WI (2018)

       /AONBO  / : Checkpoint the AO to NBO transformation
                   NBOs sorted by occupancy
       /BNDIDX / : Print bond indices based on the NAO density matrix

 Filename set to /tmp/Gau-848640

 Job title:  Ac7_rdkit_conf_3_SP_NBO


 NATURAL POPULATIONS:  Natural atomic orbital occupancies

  NAO Atom No lang   Type(AO)    Occupancy      Energy
 -------------------------------------------------------
   1    O  1  s      Cor( 1s)     2.00000     -19.61578
   2    O  1  s      Val( 2s)     1.70015      -0.76275
   3    O  1  s      Ryd( 3s)     0.00038       1.16580
   4    O  1  s      Ryd( 4s)     0.00002       4.89914
   5    O  1  s      Ryd( 5s)     0.00000      42.44267
   6    O  1  px     Val( 2p)     1.69357      -0.33095
   7    O  1  px     Ryd( 3p)     0.00168       0.71451
   8    O  1  px     Ryd( 4p)     0.00010       3.54839
   9    O  1  py     Val( 2p)     1.44853      -0.28945
  10    O  1  py     Ryd( 3p)     0.00061       0.71639
  11    O  1  py     Ryd( 4p)     0.00001       2.99504
  12    O  1  pz     Val( 2p)     1.72256      -0.33401
  13    O  1  pz     Ryd( 3p)     0.00188       0.71477
  14    O  1  pz     Ryd( 4p)     0.00011       3.42620
  15    O  1  dxy    Ryd( 3d)     0.00334       1.78658
  16    O  1  dxy    Ryd( 4d)     0.00001       6.43095
  17    O  1  dxz    Ryd( 3d)     0.00779       2.16076
  18    O  1  dxz    Ryd( 4d)     0.00000       6.68915
  19    O  1  dyz    Ryd( 3d)     0.00285       1.77148
  20    O  1  dyz    Ryd( 4d)     0.00000       6.41199
  21    O  1  dx2y2  Ryd( 3d)     0.00313       1.90802
  22    O  1  dx2y2  Ryd( 4d)     0.00001       6.57643
  23    O  1  dz2    Ryd( 3d)     0.00408       1.97979
  24    O  1  dz2    Ryd( 4d)     0.00002       6.67457
  25    O  1  f(0)   Ryd( 4f)     0.00009       5.72337
  26    O  1  f(c1)  Ryd( 4f)     0.00020       6.06355
  27    O  1  f(s1)  Ryd( 4f)     0.00001       5.45454
  28    O  1  f(c2)  Ryd( 4f)     0.00012       5.78737
  29    O  1  f(s2)  Ryd( 4f)     0.00016       5.66991
  30    O  1  f(c3)  Ryd( 4f)     0.00003       5.55810
  31    O  1  f(s3)  Ryd( 4f)     0.00004       5.50409

  32    C  2  s      Cor( 1s)     1.99999     -10.67063
  33    C  2  s      Val( 2s)     0.82060      -0.12258
  34    C  2  s      Ryd( 3s)     0.00611       1.79654
  35    C  2  s      Ryd( 4s)     0.00040       3.27070
  36    C  2  s      Ryd( 5s)     0.00000      18.44071
  37    C  2  px     Val( 2p)     0.90014      -0.01138
  38    C  2  px     Ryd( 3p)     0.00929       1.22335
  39    C  2  px     Ryd( 4p)     0.00037       1.78178
  40    C  2  py     Val( 2p)     0.72003      -0.11598
  41    C  2  py     Ryd( 4p)     0.00179       0.97825
  42    C  2  py     Ryd( 3p)     0.00027       0.92384
  43    C  2  pz     Val( 2p)     0.71559       0.02505
  44    C  2  pz     Ryd( 4p)     0.01142       1.26773
  45    C  2  pz     Ryd( 3p)     0.00014       1.20220
  46    C  2  dxy    Ryd( 4d)     0.00109       2.65212
  47    C  2  dxy    Ryd( 3d)     0.00006       2.31213
  48    C  2  dxz    Ryd( 4d)     0.00064       3.12262
  49    C  2  dxz    Ryd( 3d)     0.00051       3.04054
  50    C  2  dyz    Ryd( 4d)     0.00239       2.55866
  51    C  2  dyz    Ryd( 3d)     0.00021       2.17060
  52    C  2  dx2y2  Ryd( 4d)     0.00053       3.04369
  53    C  2  dx2y2  Ryd( 3d)     0.00025       2.78416
  54    C  2  dz2    Ryd( 4d)     0.00197       3.40424
  55    C  2  dz2    Ryd( 3d)     0.00030       2.64834
  56    C  2  f(0)   Ryd( 4f)     0.00014       3.78835
  57    C  2  f(c1)  Ryd( 4f)     0.00018       3.91272
  58    C  2  f(s1)  Ryd( 4f)     0.00007       3.37040
  59    C  2  f(c2)  Ryd( 4f)     0.00013       3.55259
  60    C  2  f(s2)  Ryd( 4f)     0.00002       3.33051
  61    C  2  f(c3)  Ryd( 4f)     0.00030       3.38646
  62    C  2  f(s3)  Ryd( 4f)     0.00011       3.45626

  63    O  3  s      Cor( 1s)     2.00000     -19.67159
  64    O  3  s      Val( 2s)     1.68282      -0.86011
  65    O  3  s      Ryd( 3s)     0.00043       2.74428
  66    O  3  s      Ryd( 4s)     0.00014       4.75619
  67    O  3  s      Ryd( 5s)     0.00000      40.20646
  68    O  3  px     Val( 2p)     1.58488      -0.37681
  69    O  3  px     Ryd( 3p)     0.00129       0.86572
  70    O  3  px     Ryd( 4p)     0.00004       3.45550
  71    O  3  py     Val( 2p)     1.83915      -0.41228
  72    O  3  py     Ryd( 3p)     0.00163       0.60542
  73    O  3  py     Ryd( 4p)     0.00002       2.81996
  74    O  3  pz     Val( 2p)     1.56997      -0.37284
  75    O  3  pz     Ryd( 3p)     0.00132       0.58892
  76    O  3  pz     Ryd( 4p)     0.00020       3.88418
  77    O  3  dxy    Ryd( 3d)     0.00107       1.60937
  78    O  3  dxy    Ryd( 4d)     0.00001       6.32701
  79    O  3  dxz    Ryd( 3d)     0.00237       2.00246
  80    O  3  dxz    Ryd( 4d)     0.00002       6.65980
  81    O  3  dyz    Ryd( 3d)     0.00278       1.84339
  82    O  3  dyz    Ryd( 4d)     0.00002       6.44574
  83    O  3  dx2y2  Ryd( 3d)     0.00384       2.00173
  84    O  3  dx2y2  Ryd( 4d)     0.00001       6.42584
  85    O  3  dz2    Ryd( 3d)     0.00636       2.17803
  86    O  3  dz2    Ryd( 4d)     0.00001       6.65998
  87    O  3  f(0)   Ryd( 4f)     0.00008       5.87312
  88    O  3  f(c1)  Ryd( 4f)     0.00006       6.06942
  89    O  3  f(s1)  Ryd( 4f)     0.00006       5.68375
  90    O  3  f(c2)  Ryd( 4f)     0.00004       5.50510
  91    O  3  f(s2)  Ryd( 4f)     0.00002       5.30887
  92    O  3  f(c3)  Ryd( 4f)     0.00013       5.74955
  93    O  3  f(s3)  Ryd( 4f)     0.00007       5.35588

  94    C  4  s      Cor( 1s)     1.99999     -10.55212
  95    C  4  s      Val( 2s)     1.02718      -0.21364
  96    C  4  s      Ryd( 3s)     0.00133       1.58732
  97    C  4  s      Ryd( 4s)     0.00009       4.89131
  98    C  4  s      Ryd( 5s)     0.00000      17.19092
  99    C  4  px     Val( 2p)     1.04300      -0.09370
 100    C  4  px     Ryd( 3p)     0.00240       0.90077
 101    C  4  px     Ryd( 4p)     0.00034       1.92040
 102    C  4  py     Val( 2p)     1.05158      -0.08694
 103    C  4  py     Ryd( 3p)     0.00089       0.79410
 104    C  4  py     Ryd( 4p)     0.00017       1.63137
 105    C  4  pz     Val( 2p)     1.18377      -0.11846
 106    C  4  pz     Ryd( 3p)     0.00394       1.07942
 107    C  4  pz     Ryd( 4p)     0.00017       1.73624
 108    C  4  dxy    Ryd( 3d)     0.00017       1.85525
 109    C  4  dxy    Ryd( 4d)     0.00032       3.88687
 110    C  4  dxz    Ryd( 3d)     0.00124       1.71582
 111    C  4  dxz    Ryd( 4d)     0.00021       3.52016
 112    C  4  dyz    Ryd( 3d)     0.00087       1.70490
 113    C  4  dyz    Ryd( 4d)     0.00023       3.52725
 114    C  4  dx2y2  Ryd( 3d)     0.00131       2.03917
 115    C  4  dx2y2  Ryd( 4d)     0.00033       4.13398
 116    C  4  dz2    Ryd( 3d)     0.00138       2.06298
 117    C  4  dz2    Ryd( 4d)     0.00022       3.93218
 118    C  4  f(0)   Ryd( 4f)     0.00038       3.82677
 119    C  4  f(c1)  Ryd( 4f)     0.00009       3.48301
 120    C  4  f(s1)  Ryd( 4f)     0.00003       3.44369
 121    C  4  f(c2)  Ryd( 4f)     0.00005       3.50686
 122    C  4  f(s2)  Ryd( 4f)     0.00005       3.38738
 123    C  4  f(c3)  Ryd( 4f)     0.00030       3.77578
 124    C  4  f(s3)  Ryd( 4f)     0.00002       3.70228

 125    C  5  s      Cor( 1s)     1.99999     -10.53856
 126    C  5  s      Val( 2s)     1.04961      -0.21726
 127    C  5  s      Ryd( 3s)     0.00081       1.61006
 128    C  5  s      Ryd( 4s)     0.00006       2.47813
 129    C  5  s      Ryd( 5s)     0.00000      21.03458
 130    C  5  px     Val( 2p)     1.05118      -0.07938
 131    C  5  px     Ryd( 3p)     0.00103       0.93203
 132    C  5  px     Ryd( 4p)     0.00004       1.68289
 133    C  5  py     Val( 2p)     1.09708      -0.09138
 134    C  5  py     Ryd( 3p)     0.00169       0.90140
 135    C  5  py     Ryd( 4p)     0.00022       1.72838
 136    C  5  pz     Val( 2p)     1.18044      -0.10776
 137    C  5  pz     Ryd( 3p)     0.00124       0.91815
 138    C  5  pz     Ryd( 4p)     0.00005       1.58637
 139    C  5  dxy    Ryd( 3d)     0.00070       2.01421
 140    C  5  dxy    Ryd( 4d)     0.00033       3.47061
 141    C  5  dxz    Ryd( 3d)     0.00045       1.80446
 142    C  5  dxz    Ryd( 4d)     0.00023       3.13408
 143    C  5  dyz    Ryd( 3d)     0.00079       1.86750
 144    C  5  dyz    Ryd( 4d)     0.00015       3.19985
 145    C  5  dx2y2  Ryd( 3d)     0.00074       2.17028
 146    C  5  dx2y2  Ryd( 4d)     0.00012       3.57641
 147    C  5  dz2    Ryd( 3d)     0.00143       2.01898
 148    C  5  dz2    Ryd( 4d)     0.00008       3.51140
 149    C  5  f(0)   Ryd( 4f)     0.00036       3.71930
 150    C  5  f(c1)  Ryd( 4f)     0.00006       3.40955
 151    C  5  f(s1)  Ryd( 4f)     0.00003       3.36227
 152    C  5  f(c2)  Ryd( 4f)     0.00003       3.41416
 153    C  5  f(s2)  Ryd( 4f)     0.00004       3.43105
 154    C  5  f(c3)  Ryd( 4f)     0.00032       3.60042
 155    C  5  f(s3)  Ryd( 4f)     0.00003       3.60905

 156    C  6  s      Cor( 1s)     1.99999     -10.53379
 157    C  6  s      Val( 2s)     1.04755      -0.21392
 158    C  6  s      Ryd( 3s)     0.00076       1.59412
 159    C  6  s      Ryd( 4s)     0.00003       3.89771
 160    C  6  s      Ryd( 5s)     0.00000      19.40288
 161    C  6  px     Val( 2p)     1.04049      -0.07172
 162    C  6  px     Ryd( 3p)     0.00105       0.87243
 163    C  6  px     Ryd( 4p)     0.00010       1.60467
 164    C  6  py     Val( 2p)     1.12012      -0.09143
 165    C  6  py     Ryd( 3p)     0.00182       0.93953
 166    C  6  py     Ryd( 4p)     0.00015       1.61157
 167    C  6  pz     Val( 2p)     1.17592      -0.10361
 168    C  6  pz     Ryd( 3p)     0.00122       0.91866
 169    C  6  pz     Ryd( 4p)     0.00003       1.50423
 170    C  6  dxy    Ryd( 3d)     0.00056       1.98552
 171    C  6  dxy    Ryd( 4d)     0.00027       3.40073
 172    C  6  dxz    Ryd( 3d)     0.00033       1.81461
 173    C  6  dxz    Ryd( 4d)     0.00020       3.06044
 174    C  6  dyz    Ryd( 3d)     0.00077       1.85423
 175    C  6  dyz    Ryd( 4d)     0.00015       3.13654
 176    C  6  dx2y2  Ryd( 3d)     0.00085       2.19362
 177    C  6  dx2y2  Ryd( 4d)     0.00015       3.50452
 178    C  6  dz2    Ryd( 3d)     0.00147       2.04715
 179    C  6  dz2    Ryd( 4d)     0.00007       3.45354
 180    C  6  f(0)   Ryd( 4f)     0.00035       3.71658
 181    C  6  f(c1)  Ryd( 4f)     0.00005       3.39242
 182    C  6  f(s1)  Ryd( 4f)     0.00002       3.34790
 183    C  6  f(c2)  Ryd( 4f)     0.00004       3.41400
 184    C  6  f(s2)  Ryd( 4f)     0.00003       3.43030
 185    C  6  f(c3)  Ryd( 4f)     0.00031       3.60506
 186    C  6  f(s3)  Ryd( 4f)     0.00002       3.58901

 187    C  7  s      Cor( 1s)     1.99999     -10.53186
 188    C  7  s      Val( 2s)     1.04843      -0.21284
 189    C  7  s      Ryd( 3s)     0.00077       1.63035
 190    C  7  s      Ryd( 4s)     0.00003       3.69718
 191    C  7  s      Ryd( 5s)     0.00000      19.47539
 192    C  7  px     Val( 2p)     1.15839      -0.09972
 193    C  7  px     Ryd( 3p)     0.00225       0.98327
 194    C  7  px     Ryd( 4p)     0.00020       1.66302
 195    C  7  py     Val( 2p)     1.01412      -0.06213
 196    C  7  py     Ryd( 3p)     0.00085       0.84514
 197    C  7  py     Ryd( 4p)     0.00003       1.61790
 198    C  7  pz     Val( 2p)     1.16424      -0.10030
 199    C  7  pz     Ryd( 3p)     0.00095       0.88029
 200    C  7  pz     Ryd( 4p)     0.00003       1.48610
 201    C  7  dxy    Ryd( 3d)     0.00068       2.11273
 202    C  7  dxy    Ryd( 4d)     0.00014       3.36692
 203    C  7  dxz    Ryd( 3d)     0.00074       1.81183
 204    C  7  dxz    Ryd( 4d)     0.00018       3.03703
 205    C  7  dyz    Ryd( 3d)     0.00042       1.89619
 206    C  7  dyz    Ryd( 4d)     0.00015       3.13828
 207    C  7  dx2y2  Ryd( 3d)     0.00076       2.00560
 208    C  7  dx2y2  Ryd( 4d)     0.00026       3.46997
 209    C  7  dz2    Ryd( 3d)     0.00135       2.02721
 210    C  7  dz2    Ryd( 4d)     0.00009       3.46227
 211    C  7  f(0)   Ryd( 4f)     0.00037       3.71522
 212    C  7  f(c1)  Ryd( 4f)     0.00003       3.35597
 213    C  7  f(s1)  Ryd( 4f)     0.00002       3.43096
 214    C  7  f(c2)  Ryd( 4f)     0.00003       3.43265
 215    C  7  f(s2)  Ryd( 4f)     0.00005       3.34569
 216    C  7  f(c3)  Ryd( 4f)     0.00031       3.62662
 217    C  7  f(s3)  Ryd( 4f)     0.00002       3.56726

 218    C  8  s      Cor( 1s)     1.99999     -10.53379
 219    C  8  s      Val( 2s)     1.04755      -0.21392
 220    C  8  s      Ryd( 3s)     0.00076       1.59412
 221    C  8  s      Ryd( 4s)     0.00003       3.89774
 222    C  8  s      Ryd( 5s)     0.00000      19.40286
 223    C  8  px     Val( 2p)     1.04049      -0.07172
 224    C  8  px     Ryd( 3p)     0.00105       0.87243
 225    C  8  px     Ryd( 4p)     0.00010       1.60468
 226    C  8  py     Val( 2p)     1.12011      -0.09143
 227    C  8  py     Ryd( 3p)     0.00182       0.93952
 228    C  8  py     Ryd( 4p)     0.00015       1.61157
 229    C  8  pz     Val( 2p)     1.17593      -0.10361
 230    C  8  pz     Ryd( 3p)     0.00122       0.91867
 231    C  8  pz     Ryd( 4p)     0.00003       1.50423
 232    C  8  dxy    Ryd( 3d)     0.00056       1.98553
 233    C  8  dxy    Ryd( 4d)     0.00027       3.40074
 234    C  8  dxz    Ryd( 3d)     0.00033       1.81461
 235    C  8  dxz    Ryd( 4d)     0.00020       3.06043
 236    C  8  dyz    Ryd( 3d)     0.00077       1.85422
 237    C  8  dyz    Ryd( 4d)     0.00015       3.13655
 238    C  8  dx2y2  Ryd( 3d)     0.00085       2.19362
 239    C  8  dx2y2  Ryd( 4d)     0.00015       3.50452
 240    C  8  dz2    Ryd( 3d)     0.00147       2.04715
 241    C  8  dz2    Ryd( 4d)     0.00007       3.45354
 242    C  8  f(0)   Ryd( 4f)     0.00035       3.71657
 243    C  8  f(c1)  Ryd( 4f)     0.00005       3.39241
 244    C  8  f(s1)  Ryd( 4f)     0.00002       3.34790
 245    C  8  f(c2)  Ryd( 4f)     0.00004       3.41400
 246    C  8  f(s2)  Ryd( 4f)     0.00003       3.43031
 247    C  8  f(c3)  Ryd( 4f)     0.00031       3.60505
 248    C  8  f(s3)  Ryd( 4f)     0.00002       3.58902

 249    C  9  s      Cor( 1s)     1.99999     -10.53856
 250    C  9  s      Val( 2s)     1.04961      -0.21726
 251    C  9  s      Ryd( 3s)     0.00081       1.61006
 252    C  9  s      Ryd( 4s)     0.00006       2.47819
 253    C  9  s      Ryd( 5s)     0.00000      21.03452
 254    C  9  px     Val( 2p)     1.05118      -0.07938
 255    C  9  px     Ryd( 3p)     0.00103       0.93203
 256    C  9  px     Ryd( 4p)     0.00004       1.68289
 257    C  9  py     Val( 2p)     1.09709      -0.09138
 258    C  9  py     Ryd( 3p)     0.00169       0.90142
 259    C  9  py     Ryd( 4p)     0.00022       1.72838
 260    C  9  pz     Val( 2p)     1.18043      -0.10776
 261    C  9  pz     Ryd( 3p)     0.00124       0.91814
 262    C  9  pz     Ryd( 4p)     0.00005       1.58637
 263    C  9  dxy    Ryd( 3d)     0.00070       2.01420
 264    C  9  dxy    Ryd( 4d)     0.00033       3.47059
 265    C  9  dxz    Ryd( 3d)     0.00045       1.80447
 266    C  9  dxz    Ryd( 4d)     0.00023       3.13408
 267    C  9  dyz    Ryd( 3d)     0.00079       1.86752
 268    C  9  dyz    Ryd( 4d)     0.00015       3.19985
 269    C  9  dx2y2  Ryd( 3d)     0.00074       2.17029
 270    C  9  dx2y2  Ryd( 4d)     0.00012       3.57640
 271    C  9  dz2    Ryd( 3d)     0.00143       2.01898
 272    C  9  dz2    Ryd( 4d)     0.00008       3.51140
 273    C  9  f(0)   Ryd( 4f)     0.00036       3.71930
 274    C  9  f(c1)  Ryd( 4f)     0.00006       3.40956
 275    C  9  f(s1)  Ryd( 4f)     0.00003       3.36228
 276    C  9  f(c2)  Ryd( 4f)     0.00003       3.41415
 277    C  9  f(s2)  Ryd( 4f)     0.00004       3.43104
 278    C  9  f(c3)  Ryd( 4f)     0.00032       3.60043
 279    C  9  f(s3)  Ryd( 4f)     0.00003       3.60904

 280    H 10  s      Val( 1s)     0.50168       0.13331
 281    H 10  s      Ryd( 2s)     0.00205       0.57117
 282    H 10  s      Ryd( 3s)     0.00038       1.99319
 283    H 10  px     Ryd( 2p)     0.00020       3.34982
 284    H 10  py     Ryd( 2p)     0.00062       1.97280
 285    H 10  pz     Ryd( 2p)     0.00026       2.13728

 286    H 11  s      Val( 1s)     0.77601       0.04399
 287    H 11  s      Ryd( 2s)     0.00112       0.82958
 288    H 11  s      Ryd( 3s)     0.00003       2.00417
 289    H 11  px     Ryd( 2p)     0.00005       2.43823
 290    H 11  py     Ryd( 2p)     0.00007       2.39721
 291    H 11  pz     Ryd( 2p)     0.00093       2.86687

 292    H 12  s      Val( 1s)     0.78512       0.05246
 293    H 12  s      Ryd( 2s)     0.00051       0.75923
 294    H 12  s      Ryd( 3s)     0.00002       1.88461
 295    H 12  px     Ryd( 2p)     0.00021       2.50438
 296    H 12  py     Ryd( 2p)     0.00053       2.74485
 297    H 12  pz     Ryd( 2p)     0.00013       2.30844

 298    H 13  s      Val( 1s)     0.78984       0.04816
 299    H 13  s      Ryd( 2s)     0.00099       0.89007
 300    H 13  s      Ryd( 3s)     0.00002       1.82222
 301    H 13  px     Ryd( 2p)     0.00008       2.37162
 302    H 13  py     Ryd( 2p)     0.00005       2.31750
 303    H 13  pz     Ryd( 2p)     0.00076       2.80810

 304    H 14  s      Val( 1s)     0.78791       0.05225
 305    H 14  s      Ryd( 2s)     0.00052       0.73632
 306    H 14  s      Ryd( 3s)     0.00001       1.92696
 307    H 14  px     Ryd( 2p)     0.00021       2.49271
 308    H 14  py     Ryd( 2p)     0.00052       2.73851
 309    H 14  pz     Ryd( 2p)     0.00013       2.31486

 310    H 15  s      Val( 1s)     0.80417       0.03971
 311    H 15  s      Ryd( 2s)     0.00105       0.83138
 312    H 15  s      Ryd( 3s)     0.00001       1.87091
 313    H 15  px     Ryd( 2p)     0.00008       2.36721
 314    H 15  py     Ryd( 2p)     0.00005       2.31517
 315    H 15  pz     Ryd( 2p)     0.00072       2.80364

 316    H 16  s      Val( 1s)     0.80452       0.04061
 317    H 16  s      Ryd( 2s)     0.00108       0.79972
 318    H 16  s      Ryd( 3s)     0.00001       1.90745
 319    H 16  px     Ryd( 2p)     0.00004       2.27993
 320    H 16  py     Ryd( 2p)     0.00008       2.36334
 321    H 16  pz     Ryd( 2p)     0.00073       2.83900

 322    H 17  s      Val( 1s)     0.78980       0.05275
 323    H 17  s      Ryd( 2s)     0.00049       0.76290
 324    H 17  s      Ryd( 3s)     0.00001       1.90795
 325    H 17  px     Ryd( 2p)     0.00069       2.86349
 326    H 17  py     Ryd( 2p)     0.00008       2.38902
 327    H 17  pz     Ryd( 2p)     0.00008       2.28308

 328    H 18  s      Val( 1s)     0.78791       0.05225
 329    H 18  s      Ryd( 2s)     0.00052       0.73632
 330    H 18  s      Ryd( 3s)     0.00001       1.92696
 331    H 18  px     Ryd( 2p)     0.00021       2.49271
 332    H 18  py     Ryd( 2p)     0.00052       2.73850
 333    H 18  pz     Ryd( 2p)     0.00013       2.31487

 334    H 19  s      Val( 1s)     0.80417       0.03971
 335    H 19  s      Ryd( 2s)     0.00105       0.83138
 336    H 19  s      Ryd( 3s)     0.00001       1.87091
 337    H 19  px     Ryd( 2p)     0.00008       2.36722
 338    H 19  py     Ryd( 2p)     0.00005       2.31518
 339    H 19  pz     Ryd( 2p)     0.00072       2.80363

 340    H 20  s      Val( 1s)     0.78511       0.05246
 341    H 20  s      Ryd( 2s)     0.00051       0.75923
 342    H 20  s      Ryd( 3s)     0.00002       1.88461
 343    H 20  px     Ryd( 2p)     0.00021       2.50438
 344    H 20  py     Ryd( 2p)     0.00053       2.74486
 345    H 20  pz     Ryd( 2p)     0.00013       2.30843

 346    H 21  s      Val( 1s)     0.78984       0.04816
 347    H 21  s      Ryd( 2s)     0.00099       0.89007
 348    H 21  s      Ryd( 3s)     0.00002       1.82222
 349    H 21  px     Ryd( 2p)     0.00008       2.37162
 350    H 21  py     Ryd( 2p)     0.00005       2.31748
 351    H 21  pz     Ryd( 2p)     0.00076       2.80811


 Summary of Natural Population Analysis:

                                     Natural Population
             Natural    ---------------------------------------------
  Atom No    Charge        Core      Valence    Rydberg      Total
 --------------------------------------------------------------------
    O  1   -0.59150      2.00000     6.56482    0.02668     8.59150
    C  2    0.80494      1.99999     3.15636    0.03871     5.19506
    O  3   -0.69886      2.00000     6.67683    0.02203     8.69886
    C  4   -0.32207      1.99999     4.30554    0.01654     6.32207
    C  5   -0.38931      1.99999     4.37830    0.01101     6.38931
    C  6   -0.39486      1.99999     4.38408    0.01079     6.39486
    C  7   -0.39588      1.99999     4.38518    0.01071     6.39588
    C  8   -0.39486      1.99999     4.38408    0.01079     6.39486
    C  9   -0.38931      1.99999     4.37830    0.01101     6.38931
    H 10    0.49481      0.00000     0.50168    0.00351     0.50519
    H 11    0.22178      0.00000     0.77601    0.00221     0.77822
    H 12    0.21348      0.00000     0.78512    0.00140     0.78652
    H 13    0.20826      0.00000     0.78984    0.00190     0.79174
    H 14    0.21071      0.00000     0.78791    0.00138     0.78929
    H 15    0.19391      0.00000     0.80417    0.00192     0.80609
    H 16    0.19354      0.00000     0.80452    0.00194     0.80646
    H 17    0.20885      0.00000     0.78980    0.00135     0.79115
    H 18    0.21071      0.00000     0.78791    0.00138     0.78929
    H 19    0.19391      0.00000     0.80417    0.00192     0.80609
    H 20    0.21348      0.00000     0.78511    0.00140     0.78652
    H 21    0.20826      0.00000     0.78984    0.00190     0.79174
 ====================================================================
 * Total *  0.00000     17.99994    51.81956    0.18050    70.00000

                                 Natural Population
 ---------------------------------------------------------
   Core                      17.99994 ( 99.9996% of   18)
   Valence                   51.81956 ( 99.6530% of   52)
   Natural Minimal Basis     69.81950 ( 99.7421% of   70)
   Natural Rydberg Basis      0.18050 (  0.2579% of   70)
 ---------------------------------------------------------

    Atom No         Natural Electron Configuration
 ----------------------------------------------------------------------------
      O  1      [core]2s( 1.70)2p( 4.86)3d( 0.02)
      C  2      [core]2s( 0.82)2p( 2.34)3s( 0.01)3p( 0.01)4p( 0.01)4d( 0.01)
      O  3      [core]2s( 1.68)2p( 4.99)3d( 0.02)
      C  4      [core]2s( 1.03)2p( 3.28)3p( 0.01)
      C  5      [core]2s( 1.05)2p( 3.33)
      C  6      [core]2s( 1.05)2p( 3.34)
      C  7      [core]2s( 1.05)2p( 3.34)
      C  8      [core]2s( 1.05)2p( 3.34)
      C  9      [core]2s( 1.05)2p( 3.33)
      H 10            1s( 0.50)
      H 11            1s( 0.78)
      H 12            1s( 0.79)
      H 13            1s( 0.79)
      H 14            1s( 0.79)
      H 15            1s( 0.80)
      H 16            1s( 0.80)
      H 17            1s( 0.79)
      H 18            1s( 0.79)
      H 19            1s( 0.80)
      H 20            1s( 0.79)
      H 21            1s( 0.79)


 Wiberg bond index matrix in the NAO basis:

     Atom    1       2       3       4       5       6       7       8       9
     ---- ------  ------  ------  ------  ------  ------  ------  ------  ------
   1.  O  0.0000  1.7813  0.1505  0.0480  0.0131  0.0018  0.0001  0.0018  0.0131
   2.  C  1.7813  0.0000  1.0333  0.9632  0.0091  0.0084  0.0002  0.0084  0.0091
   3.  O  0.1505  1.0333  0.0000  0.0151  0.0026  0.0013  0.0000  0.0013  0.0026
   4.  C  0.0480  0.9632  0.0151  0.0000  0.9919  0.0046  0.0024  0.0046  0.9919
   5.  C  0.0131  0.0091  0.0026  0.9919  0.0000  1.0167  0.0049  0.0023  0.0062
   6.  C  0.0018  0.0084  0.0013  0.0046  1.0167  0.0000  1.0174  0.0049  0.0023
   7.  C  0.0001  0.0002  0.0000  0.0024  0.0049  1.0174  0.0000  1.0174  0.0049
   8.  C  0.0018  0.0084  0.0013  0.0046  0.0023  0.0049  1.0174  0.0000  1.0167
   9.  C  0.0131  0.0091  0.0026  0.9919  0.0062  0.0023  0.0049  1.0167  0.0000
  10.  H  0.0051  0.0020  0.7349  0.0150  0.0003  0.0001  0.0000  0.0001  0.0003
  11.  H  0.0019  0.0023  0.0063  0.9049  0.0025  0.0011  0.0001  0.0011  0.0025
  12.  H  0.0004  0.0012  0.0002  0.0008  0.9260  0.0012  0.0098  0.0002  0.0099
  13.  H  0.0003  0.0014  0.0004  0.0019  0.9212  0.0021  0.0009  0.0001  0.0008
  14.  H  0.0007  0.0007  0.0001  0.0094  0.0011  0.9263  0.0011  0.0099  0.0003
  15.  H  0.0001  0.0002  0.0001  0.0010  0.0020  0.9266  0.0020  0.0009  0.0001
  16.  H  0.0000  0.0000  0.0000  0.0001  0.0009  0.0019  0.9268  0.0019  0.0009
  17.  H  0.0000  0.0003  0.0000  0.0002  0.0100  0.0011  0.9277  0.0011  0.0100
  18.  H  0.0007  0.0007  0.0001  0.0094  0.0003  0.0099  0.0011  0.9263  0.0011
  19.  H  0.0001  0.0002  0.0001  0.0010  0.0001  0.0009  0.0020  0.9266  0.0020
  20.  H  0.0004  0.0012  0.0002  0.0008  0.0099  0.0002  0.0098  0.0012  0.9260
  21.  H  0.0003  0.0014  0.0004  0.0019  0.0008  0.0001  0.0009  0.0021  0.9212

     Atom   10      11      12      13      14      15      16      17      18
     ---- ------  ------  ------  ------  ------  ------  ------  ------  ------
   1.  O  0.0051  0.0019  0.0004  0.0003  0.0007  0.0001  0.0000  0.0000  0.0007
   2.  C  0.0020  0.0023  0.0012  0.0014  0.0007  0.0002  0.0000  0.0003  0.0007
   3.  O  0.7349  0.0063  0.0002  0.0004  0.0001  0.0001  0.0000  0.0000  0.0001
   4.  C  0.0150  0.9049  0.0008  0.0019  0.0094  0.0010  0.0001  0.0002  0.0094
   5.  C  0.0003  0.0025  0.9260  0.9212  0.0011  0.0020  0.0009  0.0100  0.0003
   6.  C  0.0001  0.0011  0.0012  0.0021  0.9263  0.9266  0.0019  0.0011  0.0099
   7.  C  0.0000  0.0001  0.0098  0.0009  0.0011  0.0020  0.9268  0.9277  0.0011
   8.  C  0.0001  0.0011  0.0002  0.0001  0.0099  0.0009  0.0019  0.0011  0.9263
   9.  C  0.0003  0.0025  0.0099  0.0008  0.0003  0.0001  0.0009  0.0100  0.0011
  10.  H  0.0000  0.0004  0.0001  0.0000  0.0000  0.0000  0.0000  0.0000  0.0000
  11.  H  0.0004  0.0000  0.0011  0.0130  0.0002  0.0004  0.0002  0.0000  0.0002
  12.  H  0.0001  0.0011  0.0000  0.0002  0.0015  0.0013  0.0001  0.0005  0.0004
  13.  H  0.0000  0.0130  0.0002  0.0000  0.0014  0.0135  0.0004  0.0002  0.0000
  14.  H  0.0000  0.0002  0.0015  0.0014  0.0000  0.0002  0.0014  0.0014  0.0005
  15.  H  0.0000  0.0004  0.0013  0.0135  0.0002  0.0000  0.0138  0.0014  0.0001
  16.  H  0.0000  0.0002  0.0001  0.0004  0.0014  0.0138  0.0000  0.0002  0.0014
  17.  H  0.0000  0.0000  0.0005  0.0002  0.0014  0.0014  0.0002  0.0000  0.0014
  18.  H  0.0000  0.0002  0.0004  0.0000  0.0005  0.0001  0.0014  0.0014  0.0000
  19.  H  0.0000  0.0004  0.0000  0.0002  0.0001  0.0005  0.0138  0.0014  0.0002
  20.  H  0.0001  0.0011  0.0006  0.0001  0.0004  0.0000  0.0001  0.0005  0.0015
  21.  H  0.0000  0.0130  0.0001  0.0004  0.0000  0.0002  0.0004  0.0002  0.0014

     Atom   19      20      21
     ---- ------  ------  ------
   1.  O  0.0001  0.0004  0.0003
   2.  C  0.0002  0.0012  0.0014
   3.  O  0.0001  0.0002  0.0004
   4.  C  0.0010  0.0008  0.0019
   5.  C  0.0001  0.0099  0.0008
   6.  C  0.0009  0.0002  0.0001
   7.  C  0.0020  0.0098  0.0009
   8.  C  0.9266  0.0012  0.0021
   9.  C  0.0020  0.9260  0.9212
  10.  H  0.0000  0.0001  0.0000
  11.  H  0.0004  0.0011  0.0130
  12.  H  0.0000  0.0006  0.0001
  13.  H  0.0002  0.0001  0.0004
  14.  H  0.0001  0.0004  0.0000
  15.  H  0.0005  0.0000  0.0002
  16.  H  0.0138  0.0001  0.0004
  17.  H  0.0014  0.0005  0.0002
  18.  H  0.0002  0.0015  0.0014
  19.  H  0.0000  0.0013  0.0135
  20.  H  0.0013  0.0000  0.0002
  21.  H  0.0135  0.0002  0.0000


 Wiberg bond index, Totals by atom:

     Atom    1
     ---- ------
   1.  O  2.0196
   2.  C  3.8245
   3.  O  1.9494
   4.  C  3.9681
   5.  C  3.9218
   6.  C  3.9288
   7.  C  3.9296
   8.  C  3.9288
   9.  C  3.9218
  10.  H  0.7585
  11.  H  0.9529
  12.  H  0.9555
  13.  H  0.9584
  14.  H  0.9567
  15.  H  0.9643
  16.  H  0.9645
  17.  H  0.9574
  18.  H  0.9567
  19.  H  0.9643
  20.  H  0.9555
  21.  H  0.9584


 NBI: Natural Binding Index (NCU strength parameters)

     Atom    1       2       3       4       5       6       7       8       9
     ---- ------  ------  ------  ------  ------  ------  ------  ------  ------
   1.  O  0.0000  1.3347  0.3880  0.2191  0.1146  0.0423  0.0112  0.0423  0.1146
   2.  C  1.3347  0.0000  1.0165  0.9814  0.0955  0.0915  0.0145  0.0915  0.0955
   3.  O  0.3880  1.0165  0.0000  0.1227  0.0506  0.0364  0.0069  0.0364  0.0506
   4.  C  0.2191  0.9814  0.1227  0.0000  0.9959  0.0678  0.0486  0.0678  0.9959
   5.  C  0.1146  0.0955  0.0506  0.9959  0.0000  1.0083  0.0702  0.0483  0.0791
   6.  C  0.0423  0.0915  0.0364  0.0678  1.0083  0.0000  1.0087  0.0699  0.0483
   7.  C  0.0112  0.0145  0.0069  0.0486  0.0702  1.0087  0.0000  1.0087  0.0702
   8.  C  0.0423  0.0915  0.0364  0.0678  0.0483  0.0699  1.0087  0.0000  1.0083
   9.  C  0.1146  0.0955  0.0506  0.9959  0.0791  0.0483  0.0702  1.0083  0.0000
  10.  H  0.0716  0.0442  0.8573  0.1223  0.0168  0.0121  0.0021  0.0121  0.0168
  11.  H  0.0433  0.0480  0.0797  0.9513  0.0504  0.0330  0.0108  0.0330  0.0504
  12.  H  0.0198  0.0343  0.0134  0.0283  0.9623  0.0344  0.0989  0.0145  0.0994
  13.  H  0.0160  0.0377  0.0193  0.0437  0.9598  0.0460  0.0293  0.0099  0.0279
  14.  H  0.0257  0.0263  0.0113  0.0971  0.0334  0.9624  0.0335  0.0993  0.0160
  15.  H  0.0090  0.0134  0.0075  0.0317  0.0442  0.9626  0.0448  0.0294  0.0102
  16.  H  0.0021  0.0048  0.0027  0.0110  0.0294  0.0441  0.9627  0.0441  0.0294
  17.  H  0.0039  0.0184  0.0024  0.0143  0.0998  0.0328  0.9632  0.0328  0.0998
  18.  H  0.0257  0.0263  0.0113  0.0971  0.0160  0.0993  0.0335  0.9624  0.0334
  19.  H  0.0090  0.0134  0.0075  0.0317  0.0102  0.0294  0.0448  0.9626  0.0442
  20.  H  0.0198  0.0343  0.0134  0.0283  0.0994  0.0145  0.0989  0.0344  0.9623
  21.  H  0.0160  0.0377  0.0193  0.0437  0.0279  0.0099  0.0293  0.0460  0.9598

     Atom   10      11      12      13      14      15      16      17      18
     ---- ------  ------  ------  ------  ------  ------  ------  ------  ------
   1.  O  0.0716  0.0433  0.0198  0.0160  0.0257  0.0090  0.0021  0.0039  0.0257
   2.  C  0.0442  0.0480  0.0343  0.0377  0.0263  0.0134  0.0048  0.0184  0.0263
   3.  O  0.8573  0.0797  0.0134  0.0193  0.0113  0.0075  0.0027  0.0024  0.0113
   4.  C  0.1223  0.9513  0.0283  0.0437  0.0971  0.0317  0.0110  0.0143  0.0971
   5.  C  0.0168  0.0504  0.9623  0.9598  0.0334  0.0442  0.0294  0.0998  0.0160
   6.  C  0.0121  0.0330  0.0344  0.0460  0.9624  0.9626  0.0441  0.0328  0.0993
   7.  C  0.0021  0.0108  0.0989  0.0293  0.0335  0.0448  0.9627  0.9632  0.0335
   8.  C  0.0121  0.0330  0.0145  0.0099  0.0993  0.0294  0.0441  0.0328  0.9624
   9.  C  0.0168  0.0504  0.0994  0.0279  0.0160  0.0102  0.0294  0.0998  0.0334
  10.  H  0.0000  0.0197  0.0080  0.0039  0.0055  0.0068  0.0013  0.0026  0.0055
  11.  H  0.0197  0.0000  0.0330  0.1139  0.0140  0.0210  0.0155  0.0054  0.0140
  12.  H  0.0080  0.0330  0.0000  0.0131  0.0385  0.0363  0.0122  0.0218  0.0209
  13.  H  0.0039  0.1139  0.0131  0.0000  0.0371  0.1164  0.0210  0.0124  0.0046
  14.  H  0.0055  0.0140  0.0385  0.0371  0.0000  0.0132  0.0374  0.0380  0.0218
  15.  H  0.0068  0.0210  0.0363  0.1164  0.0132  0.0000  0.1174  0.0373  0.0115
  16.  H  0.0013  0.0155  0.0122  0.0210  0.0374  0.1174  0.0000  0.0129  0.0374
  17.  H  0.0026  0.0054  0.0218  0.0124  0.0380  0.0373  0.0129  0.0000  0.0380
  18.  H  0.0055  0.0140  0.0209  0.0046  0.0218  0.0115  0.0374  0.0380  0.0000
  19.  H  0.0068  0.0210  0.0041  0.0148  0.0115  0.0213  0.1174  0.0373  0.0132
  20.  H  0.0080  0.0330  0.0240  0.0117  0.0209  0.0041  0.0122  0.0218  0.0385
  21.  H  0.0039  0.1139  0.0117  0.0191  0.0046  0.0148  0.0210  0.0124  0.0371

     Atom   19      20      21
     ---- ------  ------  ------
   1.  O  0.0090  0.0198  0.0160
   2.  C  0.0134  0.0343  0.0377
   3.  O  0.0075  0.0134  0.0193
   4.  C  0.0317  0.0283  0.0437
   5.  C  0.0102  0.0994  0.0279
   6.  C  0.0294  0.0145  0.0099
   7.  C  0.0448  0.0989  0.0293
   8.  C  0.9626  0.0344  0.0460
   9.  C  0.0442  0.9623  0.9598
  10.  H  0.0068  0.0080  0.0039
  11.  H  0.0210  0.0330  0.1139
  12.  H  0.0041  0.0240  0.0117
  13.  H  0.0148  0.0117  0.0191
  14.  H  0.0115  0.0209  0.0046
  15.  H  0.0213  0.0041  0.0148
  16.  H  0.1174  0.0122  0.0210
  17.  H  0.0373  0.0218  0.0124
  18.  H  0.0132  0.0385  0.0371
  19.  H  0.0000  0.0363  0.1164
  20.  H  0.0363  0.0000  0.0131
  21.  H  0.1164  0.0131  0.0000


 NATURAL BOND ORBITAL ANALYSIS:

                            Occupancies       Lewis Structure    Low   High
         Max    Occ     -------------------  -----------------   occ   occ
  Cycle  Ctr   Thresh    Lewis   non-Lewis     CR  BD  nC  LP    (L)   (NL)
 ============================================================================
    1     2     1.90    67.44930   2.55070      9  21   0   5     3      4
    2     2     1.85    68.89163   1.10837      9  22   0   4     1      1
    3     2     1.84    69.27664   0.72336      9  22   0   4     0      1
    4     2     1.52    69.27664   0.72336      9  22   0   4     0      1
    5     2     1.84    69.27664   0.72336      9  22   0   4     0      1
 ----------------------------------------------------------------------------

 Structure accepted: No low occupancy Lewis orbitals

 -------------------------------------------------------
   Core                     17.99994 (100.000% of  18)
   Valence Lewis            51.27670 ( 98.609% of  52)
  ==================      =============================
   Total Lewis              69.27664 ( 98.967% of  70)
  -----------------------------------------------------
   Valence non-Lewis         0.63477 (  0.907% of  70)
   Rydberg non-Lewis         0.08860 (  0.127% of  70)
  ==================      =============================
   Total non-Lewis           0.72336 (  1.033% of  70)
 -------------------------------------------------------


     (Occupancy)   Bond orbital / Coefficients / Hybrids
 ------------------ Lewis ------------------------------------------------------
   1. (2.00000) CR ( 1) O  1            s(100.00%)
                                         1.0000  0.0000  0.0000  0.0000  0.0000
                                         0.0000  0.0000  0.0000  0.0000  0.0000
                                         0.0000  0.0000  0.0000  0.0000  0.0000
                                         0.0000  0.0000  0.0000  0.0000  0.0000
                                         0.0000  0.0000  0.0000  0.0000  0.0000
                                         0.0000  0.0000  0.0000  0.0000  0.0000
                                         0.0000
   2. (1.99999) CR ( 1) C  2            s(100.00%)
                                         1.0000  0.0000  0.0000  0.0000  0.0000
                                         0.0000  0.0000  0.0000  0.0000  0.0000
                                         0.0000  0.0000  0.0000  0.0000  0.0000
                                         0.0000  0.0000  0.0000  0.0000  0.0000
                                         0.0000  0.0000  0.0000  0.0000  0.0000
                                         0.0000  0.0000  0.0000  0.0000  0.0000
                                         0.0000
   3. (2.00000) CR ( 1) O  3            s(100.00%)
                                         1.0000  0.0000  0.0000  0.0000  0.0000
                                         0.0000  0.0000  0.0000  0.0000  0.0000
                                         0.0000  0.0000  0.0000  0.0000  0.0000
                                         0.0000  0.0000  0.0000  0.0000  0.0000
                                         0.0000  0.0000  0.0000  0.0000  0.0000
                                         0.0000  0.0000  0.0000  0.0000  0.0000
                                         0.0000
   4. (1.99999) CR ( 1) C  4            s(100.00%)
                                         1.0000  0.0000  0.0000  0.0000  0.0000
                                         0.0000  0.0000  0.0000  0.0000  0.0000
                                         0.0000  0.0000  0.0000  0.0000  0.0000
                                         0.0000  0.0000  0.0000  0.0000  0.0000
                                         0.0000  0.0000  0.0000  0.0000  0.0000
                                         0.0000  0.0000  0.0000  0.0000  0.0000
                                         0.0000
   5. (1.99999) CR ( 1) C  5            s(100.00%)
                                         1.0000  0.0000  0.0000  0.0000  0.0000
                                         0.0000  0.0000  0.0000  0.0000  0.0000
                                         0.0000  0.0000  0.0000  0.0000  0.0000
                                         0.0000  0.0000  0.0000  0.0000  0.0000
                                         0.0000  0.0000  0.0000  0.0000  0.0000
                                         0.0000  0.0000  0.0000  0.0000  0.0000
                                         0.0000
   6. (1.99999) CR ( 1) C  6            s(100.00%)
                                         1.0000  0.0000  0.0000  0.0000  0.0000
                                         0.0000  0.0000  0.0000  0.0000  0.0000
                                         0.0000  0.0000  0.0000  0.0000  0.0000
                                         0.0000  0.0000  0.0000  0.0000  0.0000
                                         0.0000  0.0000  0.0000  0.0000  0.0000
                                         0.0000  0.0000  0.0000  0.0000  0.0000
                                         0.0000
   7. (1.99999) CR ( 1) C  7            s(100.00%)
                                         1.0000  0.0000  0.0000  0.0000  0.0000
                                         0.0000  0.0000  0.0000  0.0000  0.0000
                                         0.0000  0.0000  0.0000  0.0000  0.0000
                                         0.0000  0.0000  0.0000  0.0000  0.0000
                                         0.0000  0.0000  0.0000  0.0000  0.0000
                                         0.0000  0.0000  0.0000  0.0000  0.0000
                                         0.0000
   8. (1.99999) CR ( 1) C  8            s(100.00%)
                                         1.0000  0.0000  0.0000  0.0000  0.0000
                                         0.0000  0.0000  0.0000  0.0000  0.0000
                                         0.0000  0.0000  0.0000  0.0000  0.0000
                                         0.0000  0.0000  0.0000  0.0000  0.0000
                                         0.0000  0.0000  0.0000  0.0000  0.0000
                                         0.0000  0.0000  0.0000  0.0000  0.0000
                                         0.0000
   9. (1.99999) CR ( 1) C  9            s(100.00%)
                                         1.0000  0.0000  0.0000  0.0000  0.0000
                                         0.0000  0.0000  0.0000  0.0000  0.0000
                                         0.0000  0.0000  0.0000  0.0000  0.0000
                                         0.0000  0.0000  0.0000  0.0000  0.0000
                                         0.0000  0.0000  0.0000  0.0000  0.0000
                                         0.0000  0.0000  0.0000  0.0000  0.0000
                                         0.0000
  10. (1.97726) LP ( 1) O  1            s( 59.48%)p 0.68( 40.42%)d 0.00(  0.10%)
                                                  f 0.00(  0.00%)
                                         0.0000  0.7712 -0.0011  0.0012 -0.0002
                                         0.4670 -0.0022 -0.0040  0.0000  0.0000
                                         0.0000 -0.4313  0.0054  0.0033  0.0000
                                         0.0000  0.0268  0.0001  0.0000  0.0000
                                        -0.0146 -0.0002 -0.0075 -0.0001  0.0011
                                         0.0022  0.0000 -0.0022  0.0000  0.0006
                                         0.0000
  11. (1.85925) LP ( 2) O  1            s(  0.00%)p 1.00( 99.74%)d 0.00(  0.25%)
                                                  f 0.00(  0.01%)
                                         0.0000  0.0041 -0.0038 -0.0008  0.0000
                                         0.6739  0.0092 -0.0009  0.0000  0.0000
                                         0.0000  0.7369  0.0116 -0.0011  0.0000
                                         0.0000 -0.0020  0.0000  0.0000  0.0000
                                        -0.0241  0.0003  0.0436 -0.0007  0.0061
                                        -0.0081  0.0000 -0.0035  0.0000  0.0030
                                         0.0000
  12. (1.97819) LP ( 1) O  3            s( 45.45%)p 1.20( 54.44%)d 0.00(  0.11%)
                                                  f 0.00(  0.00%)
                                         0.0000  0.6742 -0.0001 -0.0026  0.0002
                                        -0.4635 -0.0035  0.0023  0.0000  0.0000
                                         0.0000  0.5740  0.0019 -0.0030  0.0000
                                         0.0000  0.0292 -0.0009  0.0000  0.0000
                                        -0.0066 -0.0004 -0.0138  0.0002  0.0014
[...]
    3.  1.99999   -10.67063    2.   CR ( 1) C  2
    4.  1.99999   -10.55212    4.   CR ( 1) C  4
    5.  1.99999   -10.53856    5.   CR ( 1) C  5
    6.  1.99999   -10.53379    6.   CR ( 1) C  6
    7.  1.99999   -10.53186    7.   CR ( 1) C  7
    8.  1.99999   -10.53379    8.   CR ( 1) C  8
    9.  1.99999   -10.53856    9.   CR ( 1) C  9
   10.  1.99739    -1.03057   14.   BD ( 1) O  1- C  2
   11.  1.99563    -0.91972   16.   BD ( 1) C  2- O  3
   12.  1.99308    -0.46351   15.   BD ( 2) O  1- C  2
   13.  1.98763    -0.79892   18.   BD ( 1) O  3- H 10
   14.  1.98727    -0.58804   25.   BD ( 1) C  6- C  7
   15.  1.98727    -0.58804   28.   BD ( 1) C  7- C  8
   16.  1.98517    -0.59151   22.   BD ( 1) C  5- C  6
   17.  1.98517    -0.59151   31.   BD ( 1) C  8- C  9
   18.  1.98145    -0.53461   23.   BD ( 1) C  5- H 12
   19.  1.98145    -0.53461   34.   BD ( 1) C  9- H 20
   20.  1.98091    -0.52890   30.   BD ( 1) C  7- H 17
   21.  1.98083    -0.52897   27.   BD ( 1) C  6- H 15
   22.  1.98083    -0.52897   33.   BD ( 1) C  8- H 19
   23.  1.98075    -0.52753   29.   BD ( 1) C  7- H 16
   24.  1.98012    -0.53244   24.   BD ( 1) C  5- H 13
   25.  1.98012    -0.53244   35.   BD ( 1) C  9- H 21
   26.  1.98008    -0.52981   26.   BD ( 1) C  6- H 14
   27.  1.98008    -0.52981   32.   BD ( 1) C  8- H 18
   28.  1.97850    -0.64510   17.   BD ( 1) C  2- C  4
   29.  1.97819    -0.64804   12.   LP ( 1) O  3
   30.  1.97726    -0.66403   10.   LP ( 1) O  1
   31.  1.97261    -0.53763   21.   BD ( 1) C  4- H 11
   32.  1.97101    -0.59238   19.   BD ( 1) C  4- C  5
   33.  1.97101    -0.59238   20.   BD ( 1) C  4- C  9
   34.  1.85925    -0.34475   11.   LP ( 2) O  1
   35.  1.84364    -0.41541   13.   LP ( 2) O  3
   36.  0.18283     0.05788   37.   BD*( 2) O  1- C  2
   37.  0.09866     0.40423   38.   BD*( 1) C  2- O  3
   38.  0.06883     0.40274   39.   BD*( 1) C  2- C  4
   39.  0.02067     0.69377   36.   BD*( 1) O  1- C  2
   40.  0.02036     0.41739   43.   BD*( 1) C  4- H 11
   41.  0.01946     0.38609   41.   BD*( 1) C  4- C  5
   42.  0.01946     0.38609   42.   BD*( 1) C  4- C  9
   43.  0.01722     0.42247   49.   BD*( 1) C  6- H 15
   44.  0.01722     0.42247   55.   BD*( 1) C  8- H 19
   45.  0.01707     0.42346   51.   BD*( 1) C  7- H 16
   46.  0.01663     1.25682   84.   RY ( 1) C  2
   47.  0.01638     0.42783   46.   BD*( 1) C  5- H 13
   48.  0.01638     0.42783   57.   BD*( 1) C  9- H 21
   49.  0.01384     0.40512   47.   BD*( 1) C  6- C  7
   50.  0.01384     0.40512   50.   BD*( 1) C  7- C  8
   51.  0.01296     0.40547   44.   BD*( 1) C  5- C  6
   52.  0.01296     0.40547   53.   BD*( 1) C  8- C  9
   53.  0.01158     0.43768   45.   BD*( 1) C  5- H 12
   54.  0.01158     0.43768   56.   BD*( 1) C  9- H 20
   55.  0.01148     0.43790   48.   BD*( 1) C  6- H 14
   56.  0.01148     0.43790   54.   BD*( 1) C  8- H 18
   57.  0.01147     0.43917   52.   BD*( 1) C  7- H 17
   58.  0.00905     0.45229   40.   BD*( 1) O  3- H 10
   59.  0.00696     1.75963   85.   RY ( 2) C  2
   60.  0.00430     1.10272  136.   RY ( 1) C  4
   61.  0.00333     2.03751   86.   RY ( 3) C  2
   62.  0.00271     0.95350   58.   RY ( 1) O  1
   63.  0.00260     1.27871  162.   RY ( 1) C  5
   64.  0.00260     1.27871  266.   RY ( 1) C  9
   65.  0.00254     1.25243  214.   RY ( 1) C  7
   66.  0.00243     1.12770  137.   RY ( 2) C  4
   67.  0.00240     1.23652  188.   RY ( 1) C  6
   68.  0.00240     1.23652  240.   RY ( 1) C  8
   69.  0.00220     2.54670   87.   RY ( 4) C  2
   70.  0.00209     0.60163  292.   RY ( 1) H 10
   71.  0.00150     1.24269   88.   RY ( 5) C  2
   72.  0.00121     1.22374  110.   RY ( 1) O  3
   73.  0.00117     1.77011  189.   RY ( 2) C  6
   74.  0.00117     1.77011  241.   RY ( 2) C  8
   75.  0.00115     0.84246  297.   RY ( 1) H 11
   76.  0.00111     1.96086  138.   RY ( 3) C  4
   77.  0.00110     0.79050  322.   RY ( 1) H 16
   78.  0.00108     1.81337  215.   RY ( 2) C  7
   79.  0.00107     0.82108  317.   RY ( 1) H 15
   80.  0.00107     0.82108  337.   RY ( 1) H 19
   81.  0.00106     0.80909  111.   RY ( 2) O  3
   82.  0.00106     1.83043  163.   RY ( 2) C  5
   83.  0.00106     1.83048  267.   RY ( 2) C  9
   84.  0.00101     0.88066  307.   RY ( 1) H 13
   85.  0.00101     0.88066  347.   RY ( 1) H 21
   86.  0.00079     1.23218  139.   RY ( 4) C  4
   87.  0.00074     2.41535  112.   RY ( 3) O  3
   88.  0.00069     1.01714   59.   RY ( 2) O  1
   89.  0.00062     1.97280  293.   RY ( 2) H 10
   90.  0.00061     3.71874   89.   RY ( 6) C  2
   91.  0.00058     1.45418  164.   RY ( 3) C  5
   92.  0.00058     1.45418  268.   RY ( 3) C  9
   93.  0.00055     0.75752  312.   RY ( 1) H 14
   94.  0.00055     0.75752  332.   RY ( 1) H 18
   95.  0.00054     1.91401  294.   RY ( 3) H 10
   96.  0.00054     0.78187  302.   RY ( 1) H 12
   97.  0.00054     0.78186  342.   RY ( 1) H 20
   98.  0.00053     2.56281  140.   RY ( 5) C  4
   99.  0.00052     0.78455  327.   RY ( 1) H 17
  100.  0.00046     1.52328  190.   RY ( 3) C  6
  101.  0.00046     1.52328  242.   RY ( 3) C  8
  102.  0.00046     1.60334  216.   RY ( 3) C  7
  103.  0.00040     2.44604  141.   RY ( 6) C  4
  104.  0.00026     3.37187  142.   RY ( 7) C  4
  105.  0.00025     2.42820  165.   RY ( 4) C  5
  106.  0.00025     2.42816  269.   RY ( 4) C  9
  107.  0.00024     2.70650  143.   RY ( 8) C  4
  108.  0.00021     1.94010   90.   RY ( 7) C  2
  109.  0.00021     2.34255  144.   RY ( 9) C  4
  110.  0.00021     1.43768  191.   RY ( 4) C  6
  111.  0.00021     1.43768  243.   RY ( 4) C  8
  112.  0.00019     1.72519  166.   RY ( 5) C  5
  113.  0.00019     1.72526  270.   RY ( 5) C  9
  114.  0.00019     1.32372  217.   RY ( 4) C  7
  115.  0.00017     2.11290  145.   RY (10) C  4
  116.  0.00016     2.51217  167.   RY ( 6) C  5
  117.  0.00016     2.49543  218.   RY ( 5) C  7
  118.  0.00016     2.51214  271.   RY ( 6) C  9
  119.  0.00016     2.37848  192.   RY ( 5) C  6
  120.  0.00016     2.37848  244.   RY ( 5) C  8
  121.  0.00016     2.16529   60.   RY ( 3) O  1
  122.  0.00014     3.42207  193.   RY ( 6) C  6
  123.  0.00014     3.42207  245.   RY ( 6) C  8
  124.  0.00014     1.60574  113.   RY ( 4) O  3
  125.  0.00013     3.55997  219.   RY ( 6) C  7
  126.  0.00012     2.17507  114.   RY ( 5) O  3
  127.  0.00012     2.20139  295.   RY ( 4) H 10
  128.  0.00012     1.84051   61.   RY ( 4) O  1
  129.  0.00011     1.96814   91.   RY ( 8) C  2
  130.  0.00011     2.09074  168.   RY ( 7) C  5
  131.  0.00011     2.09076  272.   RY ( 7) C  9
  132.  0.00009     3.09387  169.   RY ( 8) C  5
  133.  0.00009     3.86921  194.   RY ( 7) C  6
  134.  0.00009     3.86921  246.   RY ( 7) C  8
  135.  0.00009     3.09385  273.   RY ( 8) C  9
  136.  0.00009     3.76916  220.   RY ( 7) C  7
  137.  0.00009     3.23004  146.   RY (11) C  4
  138.  0.00008     2.39387  313.   RY ( 2) H 14
  139.  0.00008     2.39388  333.   RY ( 2) H 18
  140.  0.00008     2.38902  328.   RY ( 2) H 17
  141.  0.00008     2.40151  303.   RY ( 2) H 12
  142.  0.00008     2.40151  343.   RY ( 2) H 20
  143.  0.00008     2.36571  318.   RY ( 2) H 15
  144.  0.00008     2.36334  323.   RY ( 2) H 16
  145.  0.00008     2.36571  338.   RY ( 2) H 19
  146.  0.00007     2.36258  308.   RY ( 2) H 13
  147.  0.00007     2.36258  348.   RY ( 2) H 21
  148.  0.00007     1.66170   92.   RY ( 9) C  2
  149.  0.00007     3.05594  115.   RY ( 6) O  3
  150.  0.00007     2.39721  298.   RY ( 2) H 11
  151.  0.00007     3.11128  147.   RY (12) C  4
  152.  0.00007     2.56270   62.   RY ( 5) O  1
  153.  0.00006     1.64111   63.   RY ( 6) O  1
  154.  0.00006     2.22015  170.   RY ( 9) C  5
  155.  0.00006     2.22013  274.   RY ( 9) C  9
  156.  0.00005     2.99369   93.   RY (10) C  2
  157.  0.00005     2.41432  148.   RY (13) C  4
  158.  0.00005     2.48669  304.   RY ( 3) H 12
  159.  0.00005     2.49925  314.   RY ( 3) H 14
  160.  0.00005     2.49616  329.   RY ( 3) H 17
  161.  0.00005     2.48669  344.   RY ( 3) H 20
  162.  0.00005     2.49925  334.   RY ( 3) H 18
  163.  0.00005     2.50655  299.   RY ( 3) H 11
  164.  0.00004     2.12350  195.   RY ( 8) C  6
  165.  0.00004     2.12350  247.   RY ( 8) C  8
  166.  0.00004     2.68101   94.   RY (11) C  2
  167.  0.00004     2.43338  319.   RY ( 3) H 15
  168.  0.00004     2.43261  324.   RY ( 3) H 16
  169.  0.00004     2.43338  339.   RY ( 3) H 19
  170.  0.00004     4.16445  149.   RY (14) C  4
  171.  0.00004     2.35814  221.   RY ( 8) C  7
  172.  0.00004     2.57956  300.   RY ( 4) H 11
  173.  0.00004     2.52220  309.   RY ( 3) H 13
  174.  0.00004     2.52219  349.   RY ( 3) H 21
  175.  0.00003     2.25856  116.   RY ( 7) O  3
  176.  0.00003     1.91921  196.   RY ( 9) C  6
  177.  0.00003     1.91920  248.   RY ( 9) C  8
  178.  0.00003     1.67255   64.   RY ( 7) O  1
  179.  0.00003     2.09512   95.   RY (12) C  2
  180.  0.00003     2.51212  171.   RY (10) C  5
  181.  0.00003     2.51208  275.   RY (10) C  9
  182.  0.00003     1.66762  222.   RY ( 9) C  7
  183.  0.00003     2.27132  310.   RY ( 4) H 13
  184.  0.00003     2.27132  350.   RY ( 4) H 21
  185.  0.00003     2.72866  150.   RY (15) C  4
  186.  0.00002     2.32981  320.   RY ( 4) H 15
  187.  0.00002     2.32981  340.   RY ( 4) H 19
  188.  0.00002     2.62334  151.   RY (16) C  4
  189.  0.00002     2.21035  172.   RY (11) C  5
  190.  0.00002     2.26786  173.   RY (12) C  5
  191.  0.00002     2.21015  276.   RY (11) C  9
  192.  0.00002     2.26810  277.   RY (12) C  9
  193.  0.00002     2.43625  325.   RY ( 4) H 16
  194.  0.00002     2.20955  301.   RY ( 5) H 11
  195.  0.00002     2.82243  174.   RY (13) C  5
  196.  0.00002     2.82244  278.   RY (13) C  9
  197.  0.00002     1.77141  223.   RY (10) C  7
  198.  0.00001     1.88212  197.   RY (10) C  6
  199.  0.00002     1.98306  198.   RY (11) C  6
  200.  0.00001     1.88206  249.   RY (10) C  8
  201.  0.00002     1.98310  250.   RY (11) C  8
  202.  0.00001     2.24262  224.   RY (11) C  7
  203.  0.00001     2.31588  305.   RY ( 4) H 12
  204.  0.00001     2.31588  345.   RY ( 4) H 20
  205.  0.00001     2.29808  117.   RY ( 8) O  3
  206.  0.00001     1.87283  175.   RY (14) C  5
  207.  0.00001     1.87287  279.   RY (14) C  9
  208.  0.00001     2.35626  315.   RY ( 4) H 14
  209.  0.00001     2.37699  330.   RY ( 4) H 17
  210.  0.00001     2.35626  335.   RY ( 4) H 18
  211.  0.00001     2.14400   96.   RY (13) C  2
  212.  0.00001     3.83155  152.   RY (17) C  4
  213.  0.00001     1.66494  199.   RY (12) C  6
  214.  0.00001     2.04501   65.   RY ( 8) O  1
  215.  0.00001     2.85407   97.   RY (14) C  2
  216.  0.00001     2.93913  176.   RY (15) C  5
  217.  0.00001     2.01511  200.   RY (13) C  6
  218.  0.00001     2.27029  225.   RY (12) C  7
  219.  0.00001     1.66499  251.   RY (12) C  8
  220.  0.00001     1.33268  226.   RY (13) C  7
  221.  0.00001     2.01509  252.   RY (13) C  8
  222.  0.00001     2.93913  280.   RY (15) C  9
  223.  0.00001     3.32730  296.   RY ( 5) H 10
  224.  0.00001     2.17174  311.   RY ( 5) H 13
  225.  0.00001     2.17174  351.   RY ( 5) H 21
  226.  0.00000     3.70015   66.   RY ( 9) O  1
  227.  0.00000     2.93462   67.   RY (10) O  1
  228.  0.00000     2.03145   98.   RY (15) C  2
  229.  0.00000     2.23249   99.   RY (16) C  2
  230.  0.00000     3.08062  118.   RY ( 9) O  3
  231.  0.00000     2.09321  119.   RY (10) O  3
  232.  0.00000     2.31702  201.   RY (14) C  6
  233.  0.00000     2.31705  253.   RY (14) C  8
  234.  0.00000     3.72405   68.   RY (11) O  1
  235.  0.00000     3.73393  120.   RY (11) O  3
  236.  0.00000     2.41831  153.   RY (18) C  4
  237.  0.00000     2.83119  154.   RY (19) C  4
  238.  0.00000     2.73179  177.   RY (16) C  5
  239.  0.00000     2.73174  281.   RY (16) C  9
  240.  0.00000     2.21536  306.   RY ( 5) H 12
  241.  0.00000     2.23729  321.   RY ( 5) H 15
  242.  0.00000     9.10558   69.   RY (12) O  1
  243.  0.00000     5.73212   70.   RY (13) O  1
  244.  0.00000    10.15933   71.   RY (14) O  1
  245.  0.00000     5.97522   72.   RY (15) O  1
  246.  0.00000     6.08940   73.   RY (16) O  1
  247.  0.00000     6.76038   74.   RY (17) O  1
  248.  0.00000     3.29090   75.   RY (18) O  1
  249.  0.00000     5.70309   76.   RY (19) O  1
  250.  0.00000    22.08070   77.   RY (20) O  1
  251.  0.00000    13.86114   78.   RY (21) O  1
  252.  0.00000     5.63881   79.   RY (22) O  1
  253.  0.00000     6.71197   80.   RY (23) O  1
  254.  0.00000     6.06715   81.   RY (24) O  1
  255.  0.00000     6.00565   82.   RY (25) O  1
  256.  0.00000     5.33684   83.   RY (26) O  1
  257.  0.00000     6.64605  100.   RY (17) C  2
  258.  0.00000    10.97028  101.   RY (18) C  2
  259.  0.00000     2.98675  102.   RY (19) C  2
  260.  0.00000     2.55541  103.   RY (20) C  2
  261.  0.00000     6.25349  104.   RY (21) C  2
  262.  0.00000     3.63407  105.   RY (22) C  2
  263.  0.00000     3.29824  106.   RY (23) C  2
  264.  0.00000     5.13294  107.   RY (24) C  2
  265.  0.00000     3.69525  108.   RY (25) C  2
  266.  0.00000     3.05387  109.   RY (26) C  2
  267.  0.00000    28.61819  121.   RY (12) O  3
  268.  0.00000     5.97674  122.   RY (13) O  3
  269.  0.00000     5.67934  123.   RY (14) O  3
  270.  0.00000     5.51788  124.   RY (15) O  3
  271.  0.00000     4.92121  125.   RY (16) O  3
  272.  0.00000     3.79185  126.   RY (17) O  3
  273.  0.00000     3.07304  155.   RY (20) C  4
  274.  0.00000     6.97057  127.   RY (18) O  3
  275.  0.00000     6.86725  128.   RY (19) O  3
  276.  0.00000     6.60493  129.   RY (20) O  3
  277.  0.00000     7.18835  130.   RY (21) O  3
  278.  0.00000     5.65056  131.   RY (22) O  3
  279.  0.00000     7.86226  132.   RY (23) O  3
  280.  0.00000     3.74912  133.   RY (24) O  3
  281.  0.00000    11.96530  134.   RY (25) O  3
  282.  0.00000     5.51750  135.   RY (26) O  3
  283.  0.00000    15.24174  156.   RY (21) C  4
  284.  0.00000     3.45024  157.   RY (22) C  4
  285.  0.00000     3.24080  158.   RY (23) C  4
  286.  0.00000     4.77728  159.   RY (24) C  4
  287.  0.00000     3.66697  160.   RY (25) C  4
  288.  0.00000     3.46431  161.   RY (26) C  4
  289.  0.00000     2.29467  178.   RY (17) C  5
  290.  0.00000    11.65246  179.   RY (18) C  5
  291.  0.00000     3.64830  180.   RY (19) C  5
  292.  0.00000     3.10181  181.   RY (20) C  5
  293.  0.00000     3.76106  182.   RY (21) C  5
  294.  0.00000     3.51816  183.   RY (22) C  5
  295.  0.00000     3.04237  184.   RY (23) C  5
  296.  0.00000     3.06580  202.   RY (15) C  6
  297.  0.00000     2.84769  227.   RY (14) C  7
  298.  0.00000     2.20230  316.   RY ( 5) H 14
  299.  0.00000     2.16568  326.   RY ( 5) H 16
  300.  0.00000     2.23729  341.   RY ( 5) H 19
  301.  0.00000     2.20230  336.   RY ( 5) H 18
  302.  0.00000     2.21536  346.   RY ( 5) H 20
  303.  0.00000     6.00427  185.   RY (24) C  5
  304.  0.00000     7.84881  186.   RY (25) C  5
  305.  0.00000     3.31935  187.   RY (26) C  5
  306.  0.00000     8.62186  203.   RY (16) C  6
  307.  0.00000     4.41403  204.   RY (17) C  6
  308.  0.00000     2.82384  205.   RY (18) C  6
  309.  0.00000     7.26931  206.   RY (19) C  6
  310.  0.00000     5.13989  207.   RY (20) C  6
  311.  0.00000     3.16294  208.   RY (21) C  6
  312.  0.00000     4.70312  209.   RY (22) C  6
  313.  0.00000     4.10623  210.   RY (23) C  6
  314.  0.00000     4.40259  211.   RY (24) C  6
  315.  0.00000     3.03055  212.   RY (25) C  6
  316.  0.00000     3.00367  213.   RY (26) C  6
  317.  0.00000     6.12667  228.   RY (15) C  7
  318.  0.00000     9.49116  229.   RY (16) C  7
  319.  0.00000     3.07324  230.   RY (17) C  7
  320.  0.00000     2.06252  231.   RY (18) C  7
  321.  0.00000     3.06588  254.   RY (15) C  8
  322.  0.00000     2.86865  232.   RY (19) C  7
  323.  0.00000     7.26061  233.   RY (20) C  7
  324.  0.00000     4.31159  234.   RY (21) C  7
  325.  0.00000     3.41418  235.   RY (22) C  7
  326.  0.00000     5.08837  236.   RY (23) C  7
  327.  0.00000     3.24981  237.   RY (24) C  7
  328.  0.00000     2.96986  238.   RY (25) C  7
  329.  0.00000     2.85084  239.   RY (26) C  7
  330.  0.00000     8.62275  255.   RY (16) C  8
  331.  0.00000     4.41488  256.   RY (17) C  8
  332.  0.00000     2.82377  257.   RY (18) C  8
  333.  0.00000     7.26846  258.   RY (19) C  8
  334.  0.00000     5.14021  259.   RY (20) C  8
  335.  0.00000     3.16294  260.   RY (21) C  8
  336.  0.00000     4.70299  261.   RY (22) C  8
  337.  0.00000     4.10666  262.   RY (23) C  8
  338.  0.00000     4.40084  263.   RY (24) C  8
  339.  0.00000     3.03077  264.   RY (25) C  8
  340.  0.00000     3.00367  265.   RY (26) C  8
  341.  0.00000     2.29448  282.   RY (17) C  9
  342.  0.00000    11.65284  283.   RY (18) C  9
  343.  0.00000     3.64719  284.   RY (19) C  9
  344.  0.00000     3.10196  285.   RY (20) C  9
  345.  0.00000     3.76059  286.   RY (21) C  9
  346.  0.00000     3.51798  287.   RY (22) C  9
  347.  0.00000     3.04239  288.   RY (23) C  9
  348.  0.00000     2.15961  331.   RY ( 5) H 17
  349.  0.00000     6.00496  289.   RY (24) C  9
  350.  0.00000     7.84912  290.   RY (25) C  9
  351.  0.00000     3.31972  291.   RY (26) C  9

 NBO analysis completed in 2.41 CPU seconds (3 wall seconds)
 Maximum scratch memory used by NBO was 1509413 words (11.52 MB)
 Maximum scratch memory used by G16NBO was 195635 words (1.49 MB)

 Opening RunExU unformatted file "/tmp/Gau-848640.EUF"
 Read unf file /tmp/Gau-848640.EUF:
 Label Gaussian matrix elements                                         IVers= 2 NLab= 2 Version=AS64L-G16RevC.01
 Title Ac7_rdkit_conf_3_SP_NBO                                         
 NAtoms=    21 NBasis=   351 NBsUse=   351 ICharg=     0 Multip=     1 NE=    70 Len12L=8 Len4L=8 IOpCl= 0 ICGU=111
 GAUSSIAN SCALARS                    NI= 1 NR= 1 NTot=       1 LenBuf=    2 NRI=1 N=    1000
 ALPHA ORBITAL ENERGIES              NI= 0 NR= 1 NTot=     351 LenBuf= 2048 NRI=1 N=     351
 ALPHA MO COEFFICIENTS               NI= 0 NR= 1 NTot=  123201 LenBuf= 2048 NRI=1 N=     351     351
 Store file  10524 Len=  123201.
 NPA CHARGES                         NI= 0 NR= 1 NTot=      21 LenBuf= 2048 NRI=1 N=      21
 Recovered energy= -424.431040826     dipole=     -0.641771510078     -0.000028206118      0.524265280709
 Unable to Open any file for archive entry.
 1\1\GINC-NODE07\SP\RM062X\def2TZVP\C7H12O2\SVSS\29-Feb-2024\0\\# pop=(
 nbo6read,savenbos) m062x/def2tzvp\\Ac7_rdkit_conf_3_SP_NBO\\0,1\O,0,-2
 .715225,-0.00006,-0.950203\C,0,-1.834752,-0.000003,-0.135369\O,0,-2.09
 007,0.000068,1.189998\C,0,-0.359209,-0.000007,-0.433988\C,0,0.318953,1
 .260888,0.118166\C,0,1.808129,1.258915,-0.217387\C,0,2.491849,0.000002
 ,0.310861\C,0,1.808122,-1.258931,-0.217327\C,0,0.318946,-1.260881,0.11
 8225\H,0,-3.052518,0.00006,1.291799\H,0,-0.282084,-0.000034,-1.523767\
 H,0,-0.164403,2.151779,-0.288548\H,0,0.18496,1.285033,1.203245\H,0,2.2
 81808,2.151338,0.195546\H,0,1.932505,1.308187,-1.304255\H,0,2.446541,0
 .000028,1.405084\H,0,3.548489,-0.000007,0.037143\H,0,2.281796,-2.15133
 7,0.195647\H,0,1.932498,-1.308255,-1.304193\H,0,-0.164415,-2.151787,-0
 .288449\H,0,0.184953,-1.284974,1.203305\\Version=AS64L-G16RevC.01\Stat
 e=1-A\HF=-424.4310408\RMSD=2.140e-09\Dipole=0.6417715,0.0000283,0.5242
 653\Quadrupole=-0.666116,1.3627219,-0.6966059,-0.0002816,-5.1277142,-0
 .0001511\PG=C01 [X(C7H12O2)]\\@
 The archive entry for this job was punched.


 OF ALL THE WONDERS OF THE UNIVERSE, THE GREATEST IS MAN.

                                    -- ARISTOTLE
 Job cpu time:       0 days  0 hours 12 minutes  6.8 seconds.
 Elapsed time:       0 days  0 hours  1 minutes 36.0 seconds.
 File lengths (MBytes):  RWF=     71 Int=      0 D2E=      0 Chk=      7 Scr=      1
 Normal termination of Gaussian 16 at Thu Feb 29 14:04:48 2024.
