Job Start Time: Thu Apr 18 14:09:08 MDT 2024
SLURM Job ID: 254467
SLURM Job Name: arbr_26_r2scan3c
SLURM Job Nodes: node17
SLURM Memory / CPU: 8000

                                 *****************
                                 * O   R   C   A *
                                 *****************

                                            #,                                       
                                            ###                                      
                                            ####                                     
                                            #####                                    
                                            ######                                   
                                           ########,                                 
                                     ,,################,,,,,                         
                               ,,#################################,,                 
                          ,,##########################################,,             
                       ,#########################################, ''#####,          
                    ,#############################################,,   '####,        
                  ,##################################################,,,,####,       
                ,###########''''           ''''###############################       
              ,#####''   ,,,,##########,,,,          '''####'''          '####       
            ,##' ,,,,###########################,,,                        '##       
           ' ,,###''''                  '''############,,,                           
         ,,##''                                '''############,,,,        ,,,,,,###''
      ,#''                                            '''#######################'''  
     '                                                          ''''####''''         
             ,#######,   #######,   ,#######,      ##                                
            ,#'     '#,  ##    ##  ,#'     '#,    #''#        ######   ,####,        
            ##       ##  ##   ,#'  ##            #'  '#       #        #'  '#        
            ##       ##  #######   ##           ,######,      #####,   #    #        
            '#,     ,#'  ##    ##  '#,     ,#' ,#      #,         ##   #,  ,#        
             '#######'   ##     ##  '#######'  #'      '#     #####' # '####'        



                  #######################################################
                  #                        -***-                        #
                  #          Department of theory and spectroscopy      #
                  #    Directorship and core code : Frank Neese         #
                  #        Max Planck Institute fuer Kohlenforschung    #
                  #                Kaiser Wilhelm Platz 1               #
                  #                 D-45470 Muelheim/Ruhr               #
                  #                      Germany                        #
                  #                                                     #
                  #                  All rights reserved                #
                  #                        -***-                        #
                  #######################################################


                         Program Version 5.0.3 -  RELEASE  -


 With contributions from (in alphabetic order):
   Daniel Aravena         : Magnetic Suceptibility
   Michael Atanasov       : Ab Initio Ligand Field Theory (pilot matlab implementation)
   Alexander A. Auer      : GIAO ZORA, VPT2 properties, NMR spectrum
   Ute Becker             : Parallelization
   Giovanni Bistoni       : ED, misc. LED, open-shell LED, HFLD
   Martin Brehm           : Molecular dynamics
   Dmytro Bykov           : SCF Hessian
   Vijay G. Chilkuri      : MRCI spin determinant printing, contributions to CSF-ICE
   Dipayan Datta          : RHF DLPNO-CCSD density
   Achintya Kumar Dutta   : EOM-CC, STEOM-CC
   Dmitry Ganyushin       : Spin-Orbit,Spin-Spin,Magnetic field MRCI
   Miquel Garcia          : C-PCM and meta-GGA Hessian, CC/C-PCM, Gaussian charge scheme
   Yang Guo               : DLPNO-NEVPT2, F12-NEVPT2, CIM, IAO-localization
   Andreas Hansen         : Spin unrestricted coupled pair/coupled cluster methods
   Benjamin Helmich-Paris : MC-RPA, TRAH-SCF, COSX integrals
   Lee Huntington         : MR-EOM, pCC
   Robert Izsak           : Overlap fitted RIJCOSX, COSX-SCS-MP3, EOM
   Marcus Kettner         : VPT2
   Christian Kollmar      : KDIIS, OOCD, Brueckner-CCSD(T), CCSD density, CASPT2, CASPT2-K
   Simone Kossmann        : Meta GGA functionals, TD-DFT gradient, OOMP2, MP2 Hessian
   Martin Krupicka        : Initial AUTO-CI
   Lucas Lang             : DCDCAS
   Marvin Lechner         : AUTO-CI (C++ implementation), FIC-MRCC
   Dagmar Lenk            : GEPOL surface, SMD
   Dimitrios Liakos       : Extrapolation schemes; Compound Job, initial MDCI parallelization
   Dimitrios Manganas     : Further ROCIS development; embedding schemes
   Dimitrios Pantazis     : SARC Basis sets
   Anastasios Papadopoulos: AUTO-CI, single reference methods and gradients
   Taras Petrenko         : DFT Hessian,TD-DFT gradient, ASA, ECA, R-Raman, ABS, FL, XAS/XES, NRVS
   Peter Pinski           : DLPNO-MP2, DLPNO-MP2 Gradient
   Christoph Reimann      : Effective Core Potentials
   Marius Retegan         : Local ZFS, SOC
   Christoph Riplinger    : Optimizer, TS searches, QM/MM, DLPNO-CCSD(T), (RO)-DLPNO pert. Triples
   Tobias Risthaus        : Range-separated hybrids, TD-DFT gradient, RPA, STAB
   Michael Roemelt        : Original ROCIS implementation
   Masaaki Saitow         : Open-shell DLPNO-CCSD energy and density
   Barbara Sandhoefer     : DKH picture change effects
   Avijit Sen             : IP-ROCIS
   Kantharuban Sivalingam : CASSCF convergence, NEVPT2, FIC-MRCI
   Bernardo de Souza      : ESD, SOC TD-DFT
   Georgi Stoychev        : AutoAux, RI-MP2 NMR, DLPNO-MP2 response
   Willem Van den Heuvel  : Paramagnetic NMR
   Boris Wezisla          : Elementary symmetry handling
   Frank Wennmohs         : Technical directorship


 We gratefully acknowledge several colleagues who have allowed us to
 interface, adapt or use parts of their codes:
   Stefan Grimme, W. Hujo, H. Kruse, P. Pracht,  : VdW corrections, initial TS optimization,
                  C. Bannwarth, S. Ehlert          DFT functionals, gCP, sTDA/sTD-DF
   Ed Valeev, F. Pavosevic, A. Kumar             : LibInt (2-el integral package), F12 methods
   Garnet Chan, S. Sharma, J. Yang, R. Olivares  : DMRG
   Ulf Ekstrom                                   : XCFun DFT Library
   Mihaly Kallay                                 : mrcc  (arbitrary order and MRCC methods)
   Jiri Pittner, Ondrej Demel                    : Mk-CCSD
   Frank Weinhold                                : gennbo (NPA and NBO analysis)
   Christopher J. Cramer and Donald G. Truhlar   : smd solvation model
   Lars Goerigk                                  : TD-DFT with DH, B97 family of functionals
   V. Asgeirsson, H. Jonsson                     : NEB implementation
   FAccTs GmbH                                   : IRC, NEB, NEB-TS, DLPNO-Multilevel, CI-OPT
                                                   MM, QMMM, 2- and 3-layer-ONIOM, Crystal-QMMM,
                                                   LR-CPCM, SF, NACMEs, symmetry and pop. for TD-DFT,
                                                   nearIR, NL-DFT gradient (VV10), updates on ESD,
                                                   ML-optimized integration grids
   S Lehtola, MJT Oliveira, MAL Marques          : LibXC Library
   Liviu Ungur et al                             : ANISO software


 Your calculation uses the libint2 library for the computation of 2-el integrals
 For citations please refer to: http://libint.valeyev.net

 Your ORCA version has been built with support for libXC version: 5.1.0
 For citations please refer to: https://tddft.org/programs/libxc/

 This ORCA versions uses:
   CBLAS   interface :  Fast vector & matrix operations
   LAPACKE interface :  Fast linear algebra routines
   SCALAPACK package :  Parallel linear algebra routines
   Shared memory     :  Shared parallel matrices
   BLAS/LAPACK       :  OpenBLAS 0.3.15  USE64BITINT DYNAMIC_ARCH NO_AFFINITY Zen SINGLE_THREADED
        Core in use  :  Zen
   Copyright (c) 2011-2014, The OpenBLAS Project


Your calculation utilizes the geometrical counterpoise correction gCP
Please cite in your paper:
H.Kruse, S. Grimme J.Chem.Phys., 136, (2012), 154101 
   

Your calculation utilizes the atom-pairwise dispersion correction
based on tight binding partial charges (D4)
Cite in your paper:
E.Caldeweyher, C.Bannwarth, S.Grimme, J.Chem.Phys., (2017), 147, 034112.
E.Caldeweyher, S.Ehlert, A.Hansen, H.Neugebauer, S.Grimme, J.Chem.Phys., (2018), in progress.
   

================================================================================

----- Orbital basis set information -----
Your calculation utilizes the basis: def2-mTZVPP
   Stefan Grimme, Andreas Hansen, Sebastian Ehlert, and Jan-Michael Mewes 
   J. Chem. Phys. 154, 000000 (2021). DOI: 10.1063/5.0040021

----- AuxJ basis set information -----
Your calculation utilizes the basis: def2-mTZVPP/J
   Stefan Grimme, Andreas Hansen, Sebastian Ehlert, and Jan-Michael Mewes 
   J. Chem. Phys. 154, 000000 (2021). DOI: 10.1063/5.0040021

================================================================================
                                        WARNINGS
                       Please study these warnings very carefully!
================================================================================

Using LibXC functional ID 497 : Re-regularized SCAN exchange by Furness et al
[ 1]  J. W. Furness, A. D. Kaplan, J. Ning, J. P. Perdew, and J. Sun, J. Phys. Chem. Lett. 11, 8208 (2020)
[ 2]  J. W. Furness, A. D. Kaplan, J. Ning, J. P. Perdew, and J. Sun, J. Phys. Chem. Lett. 11, 9248 (2020)
Using LibXC functional ID 498 : Re-regularized SCAN correlation by Furness et al
[ 1]  J. W. Furness, A. D. Kaplan, J. Ning, J. P. Perdew, and J. Sun, J. Phys. Chem. Lett. 11, 8208 (2020)
[ 2]  J. W. Furness, A. D. Kaplan, J. Ning, J. P. Perdew, and J. Sun, J. Phys. Chem. Lett. 11, 9248 (2020)
Using LibXC functional ID 497 : Re-regularized SCAN exchange by Furness et al
[ 1]  J. W. Furness, A. D. Kaplan, J. Ning, J. P. Perdew, and J. Sun, J. Phys. Chem. Lett. 11, 8208 (2020)
[ 2]  J. W. Furness, A. D. Kaplan, J. Ning, J. P. Perdew, and J. Sun, J. Phys. Chem. Lett. 11, 9248 (2020)
Using LibXC functional ID 498 : Re-regularized SCAN correlation by Furness et al
[ 1]  J. W. Furness, A. D. Kaplan, J. Ning, J. P. Perdew, and J. Sun, J. Phys. Chem. Lett. 11, 8208 (2020)
[ 2]  J. W. Furness, A. D. Kaplan, J. Ning, J. P. Perdew, and J. Sun, J. Phys. Chem. Lett. 11, 9248 (2020)

WARNING: Geometry Optimization
  ===> : Switching off AutoStart
         For restart on a previous wavefunction, please use MOREAD

INFO   : the flag for use of the SHARK integral package has been found!

================================================================================
                                       INPUT FILE
================================================================================
NAME = /tmp/254467/arbr_26_r2scan3c.inp
|  1> %maxcore 4000
|  2> %PAL NPROCS 16 END
|  3> ! r2scan-3c opt freq
|  4> 
|  5> # arbr_26_rdkit_conf_1_r2scan3ccreated by GaussianPrep
|  6> 
|  7> * xyz 0 1
|  8> C  -4.71593  0.244609  -1.264129
|  9> C  -4.309534  -0.499331  0.000026
| 10> C  -4.885788  -1.906489  0.000478
| 11> C  -4.715594  0.245304  1.263875
| 12> O  -2.870286  -0.741409  -0.00006
| 13> C  -2.007375  0.280217  -0.000167
| 14> O  -2.289247  1.451644  -0.000035
| 15> N  -0.732973  -0.227876  -0.000108
| 16> C  0.467217  0.473524  -0.000054
| 17> C  0.566672  1.864789  -0.00001
| 18> C  1.839736  2.406809  0.000041
| 19> C  2.959496  1.589021  0.000049
| 20> C  2.721716  0.224438  0.000002
| 21> Br  4.206677  -0.965619  0.00001
| 22> N  1.53331  -0.327698  -0.000046
| 23> H  -4.330718  1.261092  -1.267526
| 24> H  -4.346368  -0.283044  -2.144557
| 25> H  -5.804735  0.280312  -1.319563
| 26> H  -4.558935  -2.451443  -0.885264
| 27> H  -4.558715  -2.450964  0.886434
| 28> H  -5.974688  -1.859046  0.0006
| 29> H  -4.330292  1.26176  1.266641
| 30> H  -4.34588  -0.281909  2.144502
| 31> H  -5.804383  0.281134  1.319529
| 32> H  -0.6353  -1.232075  -0.000128
| 33> H  -0.318791  2.477353  -0.000017
| 34> H  1.960606  3.482567  0.000077
| 35> H  3.964701  1.980737  0.000089
| 36> 
| 37> *
| 38> 
| 39>                          ****END OF INPUT****
================================================================================

                       *****************************
                       * Geometry Optimization Run *
                       *****************************

Geometry optimization settings:
Update method            Update   .... BFGS
Choice of coordinates    CoordSys .... Z-matrix Internals
Initial Hessian          InHess   .... Almoef's Model

Convergence Tolerances:
Energy Change            TolE     ....  5.0000e-06 Eh
Max. Gradient            TolMAXG  ....  3.0000e-04 Eh/bohr
RMS Gradient             TolRMSG  ....  1.0000e-04 Eh/bohr
Max. Displacement        TolMAXD  ....  4.0000e-03 bohr
RMS Displacement         TolRMSD  ....  2.0000e-03 bohr
Strict Convergence                ....  False
------------------------------------------------------------------------------
                        ORCA OPTIMIZATION COORDINATE SETUP
------------------------------------------------------------------------------

The optimization will be done in new redundant internal coordinates
Making redundant internal coordinates   ...  (new redundants) done
Evaluating the initial hessian          ...  (Almloef) done
Evaluating the coordinates              ...  done
Calculating the B-matrix                .... done
Calculating the G-matrix                .... done
Diagonalizing the G-matrix              .... done
Small eigenvalue found = 4.154e-03
Small eigenvalue found = 1.532e-02
Small eigenvalue found = 1.888e-02
Small eigenvalue found = 2.842e-02
The first mode is                       ....   57
The number of degrees of freedom        ....   78

    -----------------------------------------------------------------
                    Redundant Internal Coordinates


    -----------------------------------------------------------------
         Definition                    Initial Value    Approx d2E/dq
    -----------------------------------------------------------------
      1. B(C   1,C   0)                  1.5221         0.384620   
      2. B(C   2,C   1)                  1.5206         0.386729   
      3. B(C   3,C   1)                  1.5221         0.384626   
      4. B(O   4,C   1)                  1.4595         0.433560   
      5. B(C   5,O   4)                  1.3373         0.679167   
      6. B(O   6,C   5)                  1.2049         1.104717   
      7. B(N   7,C   5)                  1.3720         0.597952   
      8. B(C   8,N   7)                  1.3901         0.559362   
      9. B(C   9,C   8)                  1.3948         0.613841   
     10. B(C  10,C   9)                  1.3836         0.639551   
     11. B(C  11,C  10)                  1.3866         0.632666   
     12. B(C  12,C  11)                  1.3851         0.636040   
     13. B(Br 13,C  12)                  1.9030         0.319007   
     14. B(N  14,C  12)                  1.3104         0.749658   
     15. B(N  14,C   8)                  1.3336         0.688406   
     16. B(H  15,C   0)                  1.0870         0.364048   
     17. B(H  16,C   0)                  1.0909         0.358860   
     18. B(H  17,C   0)                  1.0908         0.359044   
     19. B(H  18,C   2)                  1.0901         0.359950   
     20. B(H  19,C   2)                  1.0901         0.359950   
     21. B(H  20,C   2)                  1.0899         0.360189   
     22. B(H  21,C   3)                  1.0870         0.364042   
     23. B(H  22,C   3)                  1.0909         0.358861   
     24. B(H  23,C   3)                  1.0908         0.359044   
     25. B(H  24,N   7)                  1.0089         0.434400   
     26. B(H  25,C   9)                  1.0767         0.378133   
     27. B(H  26,C  10)                  1.0825         0.370123   
     28. B(H  27,C  11)                  1.0788         0.375181   
     29. A(C   1,C   0,H  16)          110.0862         0.325691   
     30. A(H  15,C   0,H  16)          109.2513         0.291180   
     31. A(H  16,C   0,H  17)          108.2374         0.290548   
     32. A(H  15,C   0,H  17)          108.8418         0.291204   
     33. A(C   1,C   0,H  17)          108.9486         0.325718   
     34. A(C   1,C   0,H  15)          111.4092         0.326461   
     35. A(C   3,C   1,O   4)          110.1380         0.372284   
     36. A(C   0,C   1,C   2)          110.5713         0.367338   
     37. A(C   0,C   1,C   3)          112.2902         0.366995   
     38. A(C   2,C   1,O   4)          102.7223         0.372634   
     39. A(C   2,C   1,C   3)          110.5721         0.367339   
     40. A(C   0,C   1,O   4)          110.1407         0.372283   
     41. A(H  19,C   2,H  20)          108.7477         0.290832   
     42. A(C   1,C   2,H  18)          110.4107         0.326147   
     43. A(C   1,C   2,H  20)          109.7751         0.326182   
     44. A(H  18,C   2,H  19)          108.7056         0.290801   
     45. A(C   1,C   2,H  19)          110.4107         0.326147   
     46. A(H  18,C   2,H  20)          108.7477         0.290832   
     47. A(H  22,C   3,H  23)          108.2377         0.290548   
     48. A(H  21,C   3,H  23)          108.8417         0.291203   
     49. A(C   1,C   3,H  23)          108.9490         0.325719   
     50. A(H  21,C   3,H  22)          109.2513         0.291180   
     51. A(C   1,C   3,H  21)          111.4084         0.326461   
     52. A(C   1,C   3,H  22)          110.0865         0.325692   
     53. A(C   1,O   4,C   5)          120.6383         0.408540   
     54. A(O   6,C   5,N   7)          125.2662         0.472659   
     55. A(O   4,C   5,N   7)          108.4492         0.432657   
     56. A(O   4,C   5,O   6)          126.2846         0.483879   
     57. A(C   8,N   7,H  24)          114.7470         0.352692   
     58. A(C   5,N   7,H  24)          117.2921         0.356704   
     59. A(C   5,N   7,C   8)          127.9609         0.417889   
     60. A(N   7,C   8,C   9)          124.3912         0.422592   
     61. A(C   9,C   8,N  14)          122.8378         0.438639   
     62. A(N   7,C   8,N  14)          112.7710         0.428544   
     63. A(C   8,C   9,C  10)          117.1512         0.435715   
     64. A(C  10,C   9,H  25)          122.2621         0.357726   
     65. A(C   8,C   9,H  25)          120.5867         0.355242   
     66. A(C   9,C  10,C  11)          120.7961         0.438094   
     67. A(C   9,C  10,H  26)          119.4731         0.356426   
     68. A(C  11,C  10,H  26)          119.7308         0.355772   
     69. A(C  10,C  11,C  12)          116.2570         0.437659   
     70. A(C  12,C  11,H  27)          121.1749         0.356915   
     71. A(C  10,C  11,H  27)          122.5682         0.356593   
     72. A(Br 13,C  12,N  14)          116.3714         0.422485   
     73. A(C  11,C  12,N  14)          124.8043         0.448328   
     74. A(C  11,C  12,Br 13)          118.8243         0.412973   
     75. A(C   8,N  14,C  12)          118.1536         0.451810   
     76. D(C   2,C   1,C   0,H  17)     58.5458         0.011776   
     77. D(O   4,C   1,C   0,H  15)    -68.5211         0.011776   
     78. D(C   2,C   1,C   0,H  15)    178.6371         0.011776   
     79. D(C   3,C   1,C   0,H  17)    -65.4739         0.011776   
     80. D(O   4,C   1,C   0,H  16)     52.8419         0.011776   
     81. D(C   3,C   1,C   0,H  15)     54.6175         0.011776   
     82. D(O   4,C   1,C   0,H  17)    171.3876         0.011776   
     83. D(C   3,C   1,C   0,H  16)    175.9805         0.011776   
     84. D(C   2,C   1,C   0,H  16)    -59.9999         0.011776   
     85. D(H  19,C   2,C   1,C   3)    -57.3809         0.011899   
     86. D(H  18,C   2,C   1,O   4)    -60.1196         0.011899   
     87. D(H  18,C   2,C   1,C   3)   -177.6180         0.011899   
     88. D(H  18,C   2,C   1,C   0)     57.3814         0.011899   
     89. D(H  19,C   2,C   1,O   4)     60.1174         0.011899   
     90. D(H  20,C   2,C   1,O   4)    179.9989         0.011899   
     91. D(H  20,C   2,C   1,C   3)     62.5006         0.011899   
     92. D(H  20,C   2,C   1,C   0)    -62.5000         0.011899   
     93. D(H  19,C   2,C   1,C   0)    177.6185         0.011899   
     94. D(H  23,C   3,C   1,C   2)    -58.5513         0.011776   
     95. D(H  23,C   3,C   1,C   0)     65.4679         0.011776   
     96. D(H  22,C   3,C   1,O   4)    -52.8456         0.011776   
     97. D(H  22,C   3,C   1,C   2)     59.9952         0.011776   
     98. D(H  22,C   3,C   1,C   0)   -175.9857         0.011776   
     99. D(H  21,C   3,C   1,O   4)     68.5171         0.011776   
    100. D(H  21,C   3,C   1,C   2)   -178.6422         0.011776   
    101. D(H  23,C   3,C   1,O   4)   -171.3921         0.011776   
    102. D(H  21,C   3,C   1,C   0)    -54.6230         0.011776   
    103. D(C   5,O   4,C   1,C   3)    -62.1809         0.014805   
    104. D(C   5,O   4,C   1,C   2)   -179.9866         0.014805   
    105. D(C   5,O   4,C   1,C   0)     62.2074         0.014805   
    106. D(O   6,C   5,O   4,C   1)      0.0099         0.034349   
    107. D(N   7,C   5,O   4,C   1)    179.9947         0.034349   
    108. D(H  24,N   7,C   5,O   6)    179.9931         0.028796   
    109. D(H  24,N   7,C   5,O   4)      0.0082         0.028796   
    110. D(C   8,N   7,C   5,O   6)     -0.0085         0.028796   
    111. D(C   8,N   7,C   5,O   4)   -179.9934         0.028796   
    112. D(N  14,C   8,N   7,H  24)      0.0003         0.024985   
    113. D(N  14,C   8,N   7,C   5)   -179.9980         0.024985   
    114. D(C   9,C   8,N   7,H  24)   -179.9996         0.024985   
    115. D(C   9,C   8,N   7,C   5)      0.0021         0.024985   
    116. D(H  25,C   9,C   8,N  14)   -179.9999         0.026043   
    117. D(H  25,C   9,C   8,N   7)     -0.0000         0.026043   
    118. D(C  10,C   9,C   8,N  14)      0.0001         0.026043   
    119. D(C  10,C   9,C   8,N   7)   -180.0000         0.026043   
    120. D(H  26,C  10,C   9,H  25)      0.0001         0.028416   
    121. D(H  26,C  10,C   9,C   8)   -180.0000         0.028416   
    122. D(C  11,C  10,C   9,H  25)    180.0000         0.028416   
    123. D(C  11,C  10,C   9,C   8)     -0.0001         0.028416   
    124. D(H  27,C  11,C  10,H  26)     -0.0001         0.027768   
    125. D(H  27,C  11,C  10,C   9)   -180.0000         0.027768   
    126. D(C  12,C  11,C  10,H  26)    179.9999         0.027768   
    127. D(C  12,C  11,C  10,C   9)      0.0001         0.027768   
    128. D(N  14,C  12,C  11,H  27)    179.9999         0.028084   
    129. D(N  14,C  12,C  11,C  10)     -0.0001         0.028084   
    130. D(Br 13,C  12,C  11,H  27)      0.0000         0.028084   
    131. D(Br 13,C  12,C  11,C  10)   -180.0000         0.028084   
    132. D(C   8,N  14,C  12,Br 13)   -180.0000         0.042678   
    133. D(C   8,N  14,C  12,C  11)      0.0002         0.042678   
    134. D(C  12,N  14,C   8,C   9)     -0.0002         0.035377   
    135. D(C  12,N  14,C   8,N   7)    179.9999         0.035377   
    -----------------------------------------------------------------

Number of atoms                         .... 28
Number of degrees of freedom            .... 135

         *************************************************************
         *                GEOMETRY OPTIMIZATION CYCLE   1            *
         *************************************************************
---------------------------------
CARTESIAN COORDINATES (ANGSTROEM)
---------------------------------
  C     -4.715930    0.244609   -1.264129
  C     -4.309534   -0.499331    0.000026
  C     -4.885788   -1.906489    0.000478
  C     -4.715594    0.245304    1.263875
  O     -2.870286   -0.741409   -0.000060
  C     -2.007375    0.280217   -0.000167
  O     -2.289247    1.451644   -0.000035
  N     -0.732973   -0.227876   -0.000108
  C      0.467217    0.473524   -0.000054
  C      0.566672    1.864789   -0.000010
  C      1.839736    2.406809    0.000041
  C      2.959496    1.589021    0.000049
  C      2.721716    0.224438    0.000002
  Br     4.206677   -0.965619    0.000010
  N      1.533310   -0.327698   -0.000046
  H     -4.330718    1.261092   -1.267526
  H     -4.346368   -0.283044   -2.144557
  H     -5.804735    0.280312   -1.319563
  H     -4.558935   -2.451443   -0.885264
  H     -4.558715   -2.450964    0.886434
  H     -5.974688   -1.859046    0.000600
  H     -4.330292    1.261760    1.266641
  H     -4.345880   -0.281909    2.144502
  H     -5.804383    0.281134    1.319529
  H     -0.635300   -1.232075   -0.000128
  H     -0.318791    2.477353   -0.000017
  H      1.960606    3.482567    0.000077
  H      3.964701    1.980737    0.000089

----------------------------
CARTESIAN COORDINATES (A.U.)
----------------------------
  NO LB      ZA    FRAG     MASS         X           Y           Z
   0 C     6.0000    0    12.011   -8.911816    0.462244   -2.388858
   1 C     6.0000    0    12.011   -8.143839   -0.943599    0.000049
   2 C     6.0000    0    12.011   -9.232801   -3.602742    0.000903
   3 C     6.0000    0    12.011   -8.911181    0.463557    2.388378
   4 O     8.0000    0    15.999   -5.424054   -1.401060   -0.000113
   5 C     6.0000    0    12.011   -3.793389    0.529533   -0.000316
   6 O     8.0000    0    15.999   -4.326050    2.743210   -0.000066
   7 N     7.0000    0    14.007   -1.385118   -0.430623   -0.000204
   8 C     6.0000    0    12.011    0.882912    0.894831   -0.000102
   9 C     6.0000    0    12.011    1.070855    3.523941   -0.000019
  10 C     6.0000    0    12.011    3.476597    4.548210    0.000077
  11 C     6.0000    0    12.011    5.592637    3.002815    0.000093
  12 C     6.0000    0    12.011    5.143298    0.424126    0.000004
  13 Br   35.0000    0    79.900    7.949467   -1.824755    0.000019
  14 N     7.0000    0    14.007    2.897536   -0.619259   -0.000087
  15 H     1.0000    0     1.008   -8.183871    2.383119   -2.395277
  16 H     1.0000    0     1.008   -8.213445   -0.534876   -4.052625
  17 H     1.0000    0     1.008  -10.969359    0.529713   -2.493613
  18 H     1.0000    0     1.008   -8.615139   -4.632556   -1.672907
  19 H     1.0000    0     1.008   -8.614723   -4.631651    1.675117
  20 H     1.0000    0     1.008  -11.290524   -3.513088    0.001134
  21 H     1.0000    0     1.008   -8.183066    2.384381    2.393605
  22 H     1.0000    0     1.008   -8.212523   -0.532731    4.052521
  23 H     1.0000    0     1.008  -10.968694    0.531266    2.493548
  24 H     1.0000    0     1.008   -1.200543   -2.328284   -0.000242
  25 H     1.0000    0     1.008   -0.602428    4.681519   -0.000032
  26 H     1.0000    0     1.008    3.705008    6.581098    0.000146
  27 H     1.0000    0     1.008    7.492199    3.743050    0.000168

--------------------------------
INTERNAL COORDINATES (ANGSTROEM)
--------------------------------
 C      0   0   0     0.000000000000     0.00000000     0.00000000
 C      1   0   0     1.522068426990     0.00000000     0.00000000
 C      2   1   0     1.520579663741   110.57127169     0.00000000
 C      2   1   3     1.522064486684   112.29024954   235.98037828
 O      2   1   3     1.459464480892   110.14065743   112.84180937
 C      5   2   1     1.337286464915   120.63828761    62.20740448
 O      6   5   2     1.204862256914   126.28460074     0.00000000
 N      6   5   2     1.371954429904   108.44919095   179.99466450
 C      8   6   5     1.390114383429   127.96092573   180.00655537
 C      9   8   6     1.394815256292   124.39118489     0.00000000
 C     10   9   8     1.383646497881   117.15122587   180.00001353
 C     11  10   9     1.386592827981   120.79605909     0.00000000
 C     12  11  10     1.385144791889   116.25696296     0.00000000
 Br    13  12  11     1.902983140975   118.82430047   180.00001716
 N     13  12  11     1.310405656900   124.80428583     0.00000000
 H      1   2   3     1.087031514650   111.40915664   178.63707773
 H      1   2   3     1.090938689128   110.08624284   300.00007394
 H      1   2   3     1.090799688573   108.94863429    58.54576123
 H      3   2   1     1.090113130042   110.41074329    57.38144713
 H      3   2   1     1.090113666959   110.41073290   177.61847886
 H      3   2   1     1.089933054427   109.77511598   297.49997541
 H      4   2   1     1.087036375608   111.40839676   305.37701416
 H      4   2   1     1.090938083621   110.08650957   184.01433304
 H      4   2   1     1.090799084679   108.94899277    65.46787282
 H      8   6   5     1.008937880610   117.29211568     0.00000000
 H     10   9   8     1.076698369328   120.58666466     0.00000000
 H     11  10   9     1.082527058673   119.47312650   180.00004693
 H     12  11  10     1.078832015784   122.56818459   180.00004809

---------------------------
INTERNAL COORDINATES (A.U.)
---------------------------
 C      0   0   0     0.000000000000     0.00000000     0.00000000
 C      1   0   0     2.876292484100     0.00000000     0.00000000
 C      2   1   0     2.873479129281   110.57127169     0.00000000
 C      2   1   3     2.876285038001   112.29024954   235.98037828
 O      2   1   3     2.757988171071   110.14065743   112.84180937
 C      5   2   1     2.527105181290   120.63828761    62.20740448
 O      6   5   2     2.276859694667   126.28460074     0.00000000
 N      6   5   2     2.592618140739   108.44919095   179.99466450
 C      8   6   5     2.626935479505   127.96092573   180.00655537
 C      9   8   6     2.635818841808   124.39118489     0.00000000
 C     10   9   8     2.614712947153   117.15122587   180.00001353
 C     11  10   9     2.620280704143   120.79605909     0.00000000
 C     12  11  10     2.617544312498   116.25696296     0.00000000
 Br    13  12  11     3.596116973911   118.82430047   180.00001716
 N     13  12  11     2.476307815883   124.80428583     0.00000000
 H      1   2   3     2.054191861630   111.40915664   178.63707773
 H      1   2   3     2.061575351352   110.08624284   300.00007394
 H      1   2   3     2.061312678369   108.94863429    58.54576123
 H      3   2   1     2.060015270770   110.41074329    57.38144713
 H      3   2   1     2.060016285396   110.41073290   177.61847886
 H      3   2   1     2.059674977176   109.77511598   297.49997541
 H      4   2   1     2.054201047510   111.40839676   305.37701416
 H      4   2   1     2.061574207108   110.08650957   184.01433304
 H      4   2   1     2.061311537176   108.94899277    65.46787282
 H      8   6   5     1.906616280492   117.29211568     0.00000000
 H     10   9   8     2.034665046870   120.58666466     0.00000000
 H     11  10   9     2.045679673452   119.47312650   180.00004693
 H     12  11  10     2.038697054338   122.56818459   180.00004809

---------------------
BASIS SET INFORMATION
---------------------
There are 5 groups of distinct atoms

 Group   1 Type C   : 11s6p1d contracted to 5s3p1d pattern {62111/411/1}
 Group   2 Type O   : 11s6p2d contracted to 5s3p2d pattern {62111/411/11}
 Group   3 Type N   : 11s6p2d contracted to 5s3p2d pattern {62111/411/11}
 Group   4 Type Br  : 17s13p7d contracted to 6s5p3d pattern {842111/64111/511}
 Group   5 Type H   : 4s1p contracted to 2s1p pattern {31/1}

Atom   0C    basis set group =>   1
Atom   1C    basis set group =>   1
Atom   2C    basis set group =>   1
Atom   3C    basis set group =>   1
Atom   4O    basis set group =>   2
Atom   5C    basis set group =>   1
Atom   6O    basis set group =>   2
Atom   7N    basis set group =>   3
Atom   8C    basis set group =>   1
Atom   9C    basis set group =>   1
Atom  10C    basis set group =>   1
Atom  11C    basis set group =>   1
Atom  12C    basis set group =>   1
Atom  13Br   basis set group =>   4
Atom  14N    basis set group =>   3
Atom  15H    basis set group =>   5
Atom  16H    basis set group =>   5
Atom  17H    basis set group =>   5
Atom  18H    basis set group =>   5
Atom  19H    basis set group =>   5
Atom  20H    basis set group =>   5
Atom  21H    basis set group =>   5
Atom  22H    basis set group =>   5
Atom  23H    basis set group =>   5
Atom  24H    basis set group =>   5
Atom  25H    basis set group =>   5
Atom  26H    basis set group =>   5
Atom  27H    basis set group =>   5
---------------------------------
AUXILIARY/J BASIS SET INFORMATION
---------------------------------
There are 5 groups of distinct atoms

 Group   1 Type C   : 8s3p3d contracted to 6s3p3d pattern {311111/111/111}
 Group   2 Type O   : 8s3p3d contracted to 6s3p3d pattern {311111/111/111}
 Group   3 Type N   : 8s3p3d contracted to 6s3p3d pattern {311111/111/111}
 Group   4 Type Br  : 19s5p5d3f1g contracted to 8s4p3d2f1g pattern {121111111/2111/311/21/1}
 Group   5 Type H   : 5s2p1d contracted to 3s1p1d pattern {311/2/1}

Atom   0C    basis set group =>   1
Atom   1C    basis set group =>   1
Atom   2C    basis set group =>   1
Atom   3C    basis set group =>   1
Atom   4O    basis set group =>   2
Atom   5C    basis set group =>   1
Atom   6O    basis set group =>   2
Atom   7N    basis set group =>   3
Atom   8C    basis set group =>   1
Atom   9C    basis set group =>   1
Atom  10C    basis set group =>   1
Atom  11C    basis set group =>   1
Atom  12C    basis set group =>   1
Atom  13Br   basis set group =>   4
Atom  14N    basis set group =>   3
Atom  15H    basis set group =>   5
Atom  16H    basis set group =>   5
Atom  17H    basis set group =>   5
Atom  18H    basis set group =>   5
Atom  19H    basis set group =>   5
Atom  20H    basis set group =>   5
Atom  21H    basis set group =>   5
Atom  22H    basis set group =>   5
Atom  23H    basis set group =>   5
Atom  24H    basis set group =>   5
Atom  25H    basis set group =>   5
Atom  26H    basis set group =>   5
Atom  27H    basis set group =>   5


           ************************************************************
           *        Program running with 16 parallel MPI-processes    *
           *              working on a common directory               *
           ************************************************************
------------------------------------------------------------------------------
                           ORCA GTO INTEGRAL CALCULATION
                           -- RI-GTO INTEGRALS CHOSEN --
------------------------------------------------------------------------------
------------------------------------------------------------------------------
                   ___                                                        
                  /   \      - P O W E R E D   B Y -                         
                 /     \                                                     
                 |  |  |   _    _      __       _____    __    __             
                 |  |  |  | |  | |    /  \     |  _  \  |  |  /  |          
                  \  \/   | |  | |   /    \    | | | |  |  | /  /          
                 / \  \   | |__| |  /  /\  \   | |_| |  |  |/  /          
                |  |  |   |  __  | /  /__\  \  |    /   |      \           
                |  |  |   | |  | | |   __   |  |    \   |  |\   \          
                \     /   | |  | | |  |  |  |  | |\  \  |  | \   \       
                 \___/    |_|  |_| |__|  |__|  |_| \__\ |__|  \__/        
                                                                              
                      - O R C A' S   B I G   F R I E N D -                    
                                      &                                       
                       - I N T E G R A L  F E E D E R -                       
                                                                              
 v1 FN, 2020, v2 2021                                                         
------------------------------------------------------------------------------


Reading SHARK input file /tmp/254467/arbr_26_r2scan3c.SHARKINP.tmp ... ok
----------------------
SHARK INTEGRAL PACKAGE
----------------------

Number of atoms                             ...     28
Number of basis functions                   ...    387
Number of shells                            ...    183
Maximum angular momentum                    ...      2
Integral batch strategy                     ... SHARK/LIBINT Hybrid
RI-J (if used) integral strategy            ... SPLIT-RIJ (Revised 2003 algorithm where possible)
Printlevel                                  ...      1
Contraction scheme used                     ... SEGMENTED contraction
Coulomb Range Separation                    ... NOT USED
Exchange Range Separation                   ... NOT USED
Finite Nucleus Model                        ... NOT USED
Auxiliary Coulomb fitting basis             ... AVAILABLE
   # of basis functions in Aux-J            ...    621
   # of shells in Aux-J                     ...    251
   Maximum angular momentum in Aux-J        ...      4
Auxiliary J/K fitting basis                 ... NOT available
Auxiliary Correlation fitting basis         ... NOT available
Auxiliary 'external' fitting basis          ... NOT available
Integral threshold                          ...     2.500000e-11
Primitive cut-off                           ...     2.500000e-12
Primitive pair pre-selection threshold      ...     2.500000e-12

Calculating pre-screening integrals         ... done (  0.0 sec) Dimension = 183
Organizing shell pair data                  ... done (  0.1 sec)
Shell pair information
Total number of shell pairs                 ...     16836
Shell pairs after pre-screening             ...     12210
Total number of primitive shell pairs       ...     64674
Primitive shell pairs kept                  ...     30132
          la=0 lb=0:   3643 shell pairs
          la=1 lb=0:   4536 shell pairs
          la=1 lb=1:   1427 shell pairs
          la=2 lb=0:   1502 shell pairs
          la=2 lb=1:    933 shell pairs
          la=2 lb=2:    169 shell pairs

Calculating one electron integrals          ... done (  0.0 sec)
Calculating RI/J V-Matrix + Cholesky decomp.... done (  0.0 sec)
Calculating Nuclear repulsion               ... done (  0.0 sec) ENN=   1268.830596854694 Eh

SHARK setup successfully completed in   0.3 seconds

Maximum memory used throughout the entire GTOINT-calculation: 24.6 MB


           ************************************************************
           *        Program running with 16 parallel MPI-processes    *
           *              working on a common directory               *
           ************************************************************
-------------------------------------------------------------------------------
                                 ORCA SCF
-------------------------------------------------------------------------------

------------
SCF SETTINGS
------------
Hamiltonian:
 Density Functional     Method          .... DFT(GTOs)
  Functional kind                       .... Exchange
  Functional name                       .... Re-regularized SCAN exchange by Furness et al
  Functional family                     .... MGGA
  Functional refs                              
    [ 0] J. W. Furness, A. D. Kaplan, J. Ning, J. P. Perdew, and J. Sun, J. Phys. Chem. Lett. 11, 8208 (2020)
    [ 1] J. W. Furness, A. D. Kaplan, J. Ning, J. P. Perdew, and J. Sun, J. Phys. Chem. Lett. 11, 9248 (2020)
  Functional external parameters         .... 8
 Parameter  0 :         c1 parameter
 Parameter  1 :         c2 parameter
 Parameter  2 :          d parameter
 Parameter  3 :         k1 parameter
 Parameter  4 :       taur parameter
 Parameter  5 :     alphar parameter
 Parameter  6 :        eta parameter
 Parameter  7 :        dp2 parameter
  Functional kind                       .... Correlation
  Functional name                       .... Re-regularized SCAN correlation by Furness et al
  Functional family                     .... MGGA
  Functional refs                              
    [ 0] J. W. Furness, A. D. Kaplan, J. Ning, J. P. Perdew, and J. Sun, J. Phys. Chem. Lett. 11, 8208 (2020)
    [ 1] J. W. Furness, A. D. Kaplan, J. Ning, J. P. Perdew, and J. Sun, J. Phys. Chem. Lett. 11, 9248 (2020)
  Functional external parameters         .... 0
 Gradients option       PostSCFGGA      .... off
   Density functional embedding theory  .... OFF
 RI-approximation to the Coulomb term is turned on
   Number of AuxJ basis functions       .... 621


General Settings:
 Integral files         IntName         .... /tmp/254467/arbr_26_r2scan3c
 Hartree-Fock type      HFTyp           .... RHF
 Total Charge           Charge          ....    0
 Multiplicity           Mult            ....    1
 Number of Electrons    NEL             ....  138
 Basis Dimension        Dim             ....  387
 Nuclear Repulsion      ENuc            ....   1268.8305968547 Eh

Convergence Acceleration:
 DIIS                   CNVDIIS         .... on
   Start iteration      DIISMaxIt       ....    12
   Startup error        DIISStart       ....  0.200000
   # of expansion vecs  DIISMaxEq       ....     5
   Bias factor          DIISBfac        ....   1.050
   Max. coefficient     DIISMaxC        ....  10.000
 Trust-Rad. Augm. Hess. CNVTRAH         .... auto
   Auto Start mean grad. ratio tolernc. ....  1.125000
   Auto Start start iteration           ....    20
   Auto Start num. interpolation iter.  ....    10
   Max. Number of Micro iterations      ....    16
   Max. Number of Macro iterations      .... Maxiter - #DIIS iter
   Number of Davidson start vectors     ....     2
   Converg. threshold I  (grad. norm)   ....   1.000e-05
   Converg. threshold II (energy diff.) ....   1.000e-08
   Grad. Scal. Fac. for Micro threshold ....   0.100
   Minimum threshold for Micro iter.    ....   0.010
   NR start threshold (gradient norm)   ....   0.001
   Initial trust radius                 ....   0.400
   Minimum AH scaling param. (alpha)    ....   1.000
   Maximum AH scaling param. (alpha)    .... 1000.000
   Orbital update algorithm             .... Taylor
   White noise on init. David. guess    .... on
   Maximum white noise                  ....   0.010
   Quad. conv. algorithm                .... NR
   COSX micro iterations for RIJONX calc.... off
 SOSCF                  CNVSOSCF        .... on
   Start iteration      SOSCFMaxIt      ....   150
   Startup grad/error   SOSCFStart      ....  0.003300
 Level Shifting         CNVShift        .... on
   Level shift para.    LevelShift      ....    0.2500
   Turn off err/grad.   ShiftErr        ....    0.0010
 Zerner damping         CNVZerner       .... off
 Static damping         CNVDamp         .... on
   Fraction old density DampFac         ....    0.7000
   Max. Damping (<1)    DampMax         ....    0.9800
   Min. Damping (>=0)   DampMin         ....    0.0000
   Turn off err/grad.   DampErr         ....    0.1000
 Fernandez-Rico         CNVRico         .... off

SCF Procedure:
 Maximum # iterations   MaxIter         ....   125
 SCF integral mode      SCFMode         .... Direct
   Integral package                     .... SHARK and LIBINT hybrid scheme
 Reset frequency        DirectResetFreq ....    20
 Integral Threshold     Thresh          ....  2.500e-11 Eh
 Primitive CutOff       TCut            ....  2.500e-12 Eh

Convergence Tolerance:
 Convergence Check Mode ConvCheckMode   .... Total+1el-Energy
 Convergence forced     ConvForced      .... 0
 Energy Change          TolE            ....  1.000e-08 Eh
 1-El. energy change                    ....  1.000e-05 Eh
 Orbital Gradient       TolG            ....  1.000e-05
 Orbital Rotation angle TolX            ....  1.000e-05
 DIIS Error             TolErr          ....  5.000e-07


Diagonalization of the overlap matrix:
Smallest eigenvalue                        ... 4.877e-05
Time for diagonalization                   ...    0.015 sec
Threshold for overlap eigenvalues          ... 1.000e-08
Number of eigenvalues below threshold      ... 0
Time for construction of square roots      ...    0.013 sec
Total time needed                          ...    0.028 sec

Time for model grid setup =    0.119 sec

------------------------------
INITIAL GUESS: MODEL POTENTIAL
------------------------------
Loading Hartree-Fock densities                     ... done
Calculating cut-offs                               ... done
Initializing the effective Hamiltonian             ... done
Setting up the integral package (SHARK)            ... done
Starting the Coulomb interaction                   ... done (   0.0 sec)
Reading the grid                                   ... done
Mapping shells                                     ... done
Starting the XC term evaluation                    ... done (   0.0 sec)
  promolecular density results
     # of electrons  =    137.984339043
     EX              =   -173.732810756
     EC              =     -5.182098837
     EX+EC           =   -178.914909593
Transforming the Hamiltonian                       ... done (   0.5 sec)
Diagonalizing the Hamiltonian                      ... done (   0.3 sec)
Back transforming the eigenvectors                 ... done (   0.0 sec)
Now organizing SCF variables                       ... done
                      ------------------
                      INITIAL GUESS DONE (   1.2 sec)
                      ------------------
-------------------
DFT GRID GENERATION
-------------------

General Integration Accuracy     IntAcc      ... 4.388
Radial Grid Type                 RadialGrid  ... OptM3 with GC (2021)
Angular Grid (max. ang.)         AngularGrid ... 4 (Lebedev-302)
Angular grid pruning method      GridPruning ... 4 (adaptive)
Weight generation scheme         WeightScheme... Becke
Basis function cutoff            BFCut       ... 1.0000e-11
Integration weight cutoff        WCut        ... 1.0000e-14
Angular grids for H and He will be reduced by one unit
Partially contracted basis set               ... off
Rotationally invariant grid construction     ... off

Total number of grid points                  ...   137388
Total number of batches                      ...     2159
Average number of points per batch           ...       63
Average number of grid points per atom       ...     4907
Time for grid setup =    0.628 sec

--------------
SCF ITERATIONS
--------------
ITER       Energy         Delta-E        Max-DP      RMS-DP      [F,P]     Damp
               ***  Starting incremental Fock matrix formation  ***
  0  -3222.4709623401   0.000000000000 0.05842537  0.00125602  0.2829902 0.7000
  1  -3222.6816661990  -0.210703858834 0.04458406  0.00094404  0.1027489 0.7000
                               ***Turning on DIIS***
  2  -3222.7562659934  -0.074599794420 0.07605680  0.00153827  0.0391292 0.0000
  3  -3222.8703794741  -0.114113480678 0.05312321  0.00077698  0.0523281 0.0000
  4  -3222.9017204333  -0.031340959254 0.02268826  0.00030719  0.0210305 0.0000
  5  -3222.9038883546  -0.002167921296 0.00865377  0.00012133  0.0103642 0.0000
                      *** Initiating the SOSCF procedure ***
                           *** Shutting down DIIS ***
                      *** Re-Reading the Fockian *** 
                      *** Removing any level shift *** 
ITER      Energy       Delta-E        Grad      Rot      Max-DP    RMS-DP
  6  -3222.90411753  -0.0002291776  0.000572  0.000572  0.002996  0.000045
               *** Restarting incremental Fock matrix formation ***
  7  -3222.90413100  -0.0000134687  0.000277  0.001630  0.001594  0.000028
  8  -3222.90412163   0.0000093739  0.000756  0.000867  0.000706  0.000015
  9  -3222.90413573  -0.0000141057  0.000091  0.000352  0.000418  0.000008
 10  -3222.90413487   0.0000008638  0.000181  0.000218  0.000198  0.000004
 11  -3222.90413609  -0.0000012195  0.000028  0.000089  0.000086  0.000002
 12  -3222.90413606   0.0000000295  0.000039  0.000059  0.000042  0.000001
 13  -3222.90413611  -0.0000000531  0.000008  0.000031  0.000033  0.000000
 14  -3222.90413612  -0.0000000052  0.000011  0.000024  0.000011  0.000000
 15  -3222.90413611   0.0000000056  0.000003  0.000007  0.000013  0.000000
 16  -3222.90413610   0.0000000091  0.000003  0.000004  0.000008  0.000000
                  ***Gradient check signals convergence***
              ***Rediagonalizing the Fockian in SOSCF/NRSCF***

               *****************************************************
               *                     SUCCESS                       *
               *           SCF CONVERGED AFTER  17 CYCLES          *
               *****************************************************


----------------
TOTAL SCF ENERGY
----------------

Total Energy       :        -3222.90413611 Eh          -87699.68011 eV

Components:
Nuclear Repulsion  :         1268.83059685 Eh           34526.63584 eV
Electronic Energy  :        -4491.73473297 Eh         -122226.31595 eV
One Electron Energy:        -6986.36577162 Eh         -190108.67758 eV
Two Electron Energy:         2494.63103865 Eh           67882.36163 eV

Virial components:
Potential Energy   :        -6439.74949732 Eh         -175234.49257 eV
Kinetic Energy     :         3216.84536121 Eh           87534.81246 eV
Virial Ratio       :            2.00188345


DFT components:
N(Alpha)           :       68.999921090421 electrons
N(Beta)            :       68.999921090421 electrons
N(Total)           :      137.999842180842 electrons
E(X)               :     -176.229949404226 Eh       
E(C)               :       -5.095278844489 Eh       
E(XC)              :     -181.325228248715 Eh       
DFET-embed. en.    :        0.000000000000 Eh       

---------------
SCF CONVERGENCE
---------------

  Last Energy change         ...   -1.1193e-08  Tolerance :   1.0000e-08
  Last MAX-Density change    ...    1.9639e-05  Tolerance :   1.0000e-07
  Last RMS-Density change    ...    3.3714e-07  Tolerance :   5.0000e-09
  Last Orbital Gradient      ...    6.5089e-07  Tolerance :   1.0000e-05
  Last Orbital Rotation      ...    1.3268e-06  Tolerance :   1.0000e-05

             **** THE GBW FILE WAS UPDATED (/tmp/254467/arbr_26_r2scan3c.gbw) ****
             **** DENSITY /tmp/254467/arbr_26_r2scan3c.scfp WAS UPDATED ****
             **** ENERGY FILE WAS UPDATED (/tmp/254467/arbr_26_r2scan3c.en.tmp) ****
             **** THE GBW FILE WAS UPDATED (/tmp/254467/arbr_26_r2scan3c.gbw) ****
             **** DENSITY /tmp/254467/arbr_26_r2scan3c.scfp WAS UPDATED ****
----------------
ORBITAL ENERGIES
----------------

  NO   OCC          E(Eh)            E(eV) 
   0   2.0000    -482.227217    -13122.0697 
   1   2.0000     -62.298571     -1695.2303 
   2   2.0000     -56.079756     -1526.0078 
   3   2.0000     -56.076007     -1525.9057 
   4   2.0000     -56.075819     -1525.9006 
   5   2.0000     -19.000322      -517.0250 
   6   2.0000     -18.935722      -515.2672 
   7   2.0000     -14.213358      -386.7651 
   8   2.0000     -14.173412      -385.6781 
   9   2.0000     -10.190441      -277.2960 
  10   2.0000     -10.130338      -275.6605 
  11   2.0000     -10.130145      -275.6553 
  12   2.0000     -10.113101      -275.1915 
  13   2.0000     -10.064788      -273.8768 
  14   2.0000     -10.053339      -273.5653 
  15   2.0000     -10.047386      -273.4033 
  16   2.0000     -10.031482      -272.9705 
  17   2.0000     -10.026066      -272.8231 
  18   2.0000     -10.026052      -272.8227 
  19   2.0000      -8.630581      -234.8500 
  20   2.0000      -6.438142      -175.1907 
  21   2.0000      -6.424777      -174.8271 
  22   2.0000      -6.423851      -174.8019 
  23   2.0000      -2.535726       -69.0006 
  24   2.0000      -2.532731       -68.9191 
  25   2.0000      -2.532063       -68.9009 
  26   2.0000      -2.521833       -68.6226 
  27   2.0000      -2.521818       -68.6222 
  28   2.0000      -1.086563       -29.5669 
  29   2.0000      -0.997169       -27.1343 
  30   2.0000      -0.964767       -26.2527 
  31   2.0000      -0.904490       -24.6124 
  32   2.0000      -0.795192       -21.6383 
  33   2.0000      -0.788958       -21.4686 
  34   2.0000      -0.774920       -21.0866 
  35   2.0000      -0.711649       -19.3649 
  36   2.0000      -0.671078       -18.2610 
  37   2.0000      -0.669143       -18.2083 
  38   2.0000      -0.654108       -17.7992 
  39   2.0000      -0.610972       -16.6254 
  40   2.0000      -0.591045       -16.0831 
  41   2.0000      -0.543851       -14.7989 
  42   2.0000      -0.517850       -14.0914 
  43   2.0000      -0.487277       -13.2595 
  44   2.0000      -0.477917       -13.0048 
  45   2.0000      -0.463272       -12.6063 
  46   2.0000      -0.458707       -12.4821 
  47   2.0000      -0.441384       -12.0107 
  48   2.0000      -0.426008       -11.5923 
  49   2.0000      -0.422616       -11.5000 
  50   2.0000      -0.409194       -11.1347 
  51   2.0000      -0.405766       -11.0415 
  52   2.0000      -0.391992       -10.6666 
  53   2.0000      -0.381967       -10.3938 
  54   2.0000      -0.370373       -10.0784 
  55   2.0000      -0.366986        -9.9862 
  56   2.0000      -0.361250        -9.8301 
  57   2.0000      -0.344984        -9.3875 
  58   2.0000      -0.337705        -9.1894 
  59   2.0000      -0.334622        -9.1055 
  60   2.0000      -0.318344        -8.6626 
  61   2.0000      -0.316067        -8.6006 
  62   2.0000      -0.293974        -7.9994 
  63   2.0000      -0.279578        -7.6077 
  64   2.0000      -0.267610        -7.2820 
  65   2.0000      -0.258174        -7.0253 
  66   2.0000      -0.256736        -6.9861 
  67   2.0000      -0.252699        -6.8763 
  68   2.0000      -0.220417        -5.9978 
  69   0.0000      -0.063743        -1.7345 
  70   0.0000      -0.050470        -1.3734 
  71   0.0000      -0.018097        -0.4925 
  72   0.0000       0.020422         0.5557 
  73   0.0000       0.057183         1.5560 
  74   0.0000       0.078230         2.1287 
  75   0.0000       0.085752         2.3334 
  76   0.0000       0.091796         2.4979 
  77   0.0000       0.106280         2.8920 
  78   0.0000       0.113979         3.1015 
  79   0.0000       0.121180         3.2975 
  80   0.0000       0.128127         3.4865 
  81   0.0000       0.131536         3.5793 
  82   0.0000       0.133012         3.6194 
  83   0.0000       0.133329         3.6281 
  84   0.0000       0.143706         3.9105 
  85   0.0000       0.145981         3.9724 
  86   0.0000       0.148482         4.0404 
  87   0.0000       0.159847         4.3497 
  88   0.0000       0.165410         4.5010 
  89   0.0000       0.177178         4.8213 
  90   0.0000       0.181853         4.9485 
  91   0.0000       0.186415         5.0726 
  92   0.0000       0.188361         5.1256 
  93   0.0000       0.195666         5.3243 
  94   0.0000       0.201268         5.4768 
  95   0.0000       0.202848         5.5198 
  96   0.0000       0.205587         5.5943 
  97   0.0000       0.211394         5.7523 
  98   0.0000       0.217646         5.9224 
  99   0.0000       0.234817         6.3897 
 100   0.0000       0.237064         6.4508 
 101   0.0000       0.242413         6.5964 
 102   0.0000       0.244067         6.6414 
 103   0.0000       0.248284         6.7562 
 104   0.0000       0.249630         6.7928 
 105   0.0000       0.257156         6.9976 
 106   0.0000       0.268974         7.3191 
 107   0.0000       0.270734         7.3671 
 108   0.0000       0.271398         7.3851 
 109   0.0000       0.283730         7.7207 
 110   0.0000       0.293593         7.9891 
 111   0.0000       0.293658         7.9908 
 112   0.0000       0.307810         8.3759 
 113   0.0000       0.308933         8.4065 
 114   0.0000       0.313888         8.5413 
 115   0.0000       0.320249         8.7144 
 116   0.0000       0.321724         8.7546 
 117   0.0000       0.325142         8.8476 
 118   0.0000       0.332102         9.0370 
 119   0.0000       0.335544         9.1306 
 120   0.0000       0.341674         9.2974 
 121   0.0000       0.358816         9.7639 
 122   0.0000       0.367264         9.9937 
 123   0.0000       0.373180        10.1547 
 124   0.0000       0.384086        10.4515 
 125   0.0000       0.403097        10.9688 
 126   0.0000       0.405126        11.0240 
 127   0.0000       0.416577        11.3356 
 128   0.0000       0.424050        11.5390 
 129   0.0000       0.435218        11.8429 
 130   0.0000       0.447448        12.1757 
 131   0.0000       0.455124        12.3845 
 132   0.0000       0.466010        12.6808 
 133   0.0000       0.470730        12.8092 
 134   0.0000       0.475666        12.9435 
 135   0.0000       0.488980        13.3058 
 136   0.0000       0.501179        13.6378 
 137   0.0000       0.505162        13.7462 
 138   0.0000       0.508019        13.8239 
 139   0.0000       0.509574        13.8662 
 140   0.0000       0.528872        14.3913 
 141   0.0000       0.544076        14.8051 
 142   0.0000       0.556333        15.1386 
 143   0.0000       0.563728        15.3398 
 144   0.0000       0.578162        15.7326 
 145   0.0000       0.593545        16.1512 
 146   0.0000       0.598096        16.2750 
 147   0.0000       0.599569        16.3151 
 148   0.0000       0.609123        16.5751 
 149   0.0000       0.609950        16.5976 
 150   0.0000       0.615084        16.7373 
 151   0.0000       0.632291        17.2055 
 152   0.0000       0.644246        17.5308 
 153   0.0000       0.653813        17.7912 
 154   0.0000       0.661671        18.0050 
 155   0.0000       0.667433        18.1618 
 156   0.0000       0.690337        18.7850 
 157   0.0000       0.693429        18.8692 
 158   0.0000       0.695978        18.9385 
 159   0.0000       0.704127        19.1603 
 160   0.0000       0.705472        19.1969 
 161   0.0000       0.714162        19.4333 
 162   0.0000       0.732661        19.9367 
 163   0.0000       0.735791        20.0219 
 164   0.0000       0.746886        20.3238 
 165   0.0000       0.757128        20.6025 
 166   0.0000       0.773584        21.0503 
 167   0.0000       0.792341        21.5607 
 168   0.0000       0.799847        21.7649 
 169   0.0000       0.813938        22.1484 
 170   0.0000       0.819196        22.2914 
 171   0.0000       0.828280        22.5386 
 172   0.0000       0.852799        23.2058 
 173   0.0000       0.871287        23.7089 
 174   0.0000       0.897796        24.4303 
 175   0.0000       0.929917        25.3043 
 176   0.0000       0.962567        26.1928 
 177   0.0000       0.986875        26.8542 
 178   0.0000       1.011505        27.5244 
 179   0.0000       1.062501        28.9121 
 180   0.0000       1.062599        28.9148 
 181   0.0000       1.066297        29.0154 
 182   0.0000       1.082500        29.4563 
 183   0.0000       1.099669        29.9235 
 184   0.0000       1.100244        29.9392 
 185   0.0000       1.107949        30.1488 
 186   0.0000       1.109322        30.1862 
 187   0.0000       1.115997        30.3678 
 188   0.0000       1.139527        31.0081 
 189   0.0000       1.140569        31.0364 
 190   0.0000       1.161198        31.5978 
 191   0.0000       1.178975        32.0815 
 192   0.0000       1.181876        32.1605 
 193   0.0000       1.194619        32.5072 
 194   0.0000       1.224262        33.3139 
 195   0.0000       1.272856        34.6362 
 196   0.0000       1.290437        35.1146 
 197   0.0000       1.305733        35.5308 
 198   0.0000       1.308686        35.6112 
 199   0.0000       1.309151        35.6238 
 200   0.0000       1.318251        35.8714 
 201   0.0000       1.328088        36.1391 
 202   0.0000       1.333541        36.2875 
 203   0.0000       1.352530        36.8042 
 204   0.0000       1.365412        37.1547 
 205   0.0000       1.369494        37.2658 
 206   0.0000       1.370916        37.3045 
 207   0.0000       1.387842        37.7651 
 208   0.0000       1.393129        37.9090 
 209   0.0000       1.397498        38.0279 
 210   0.0000       1.406790        38.2807 
 211   0.0000       1.418052        38.5871 
 212   0.0000       1.420290        38.6480 
 213   0.0000       1.431063        38.9412 
 214   0.0000       1.443617        39.2828 
 215   0.0000       1.467382        39.9295 
 216   0.0000       1.470699        40.0197 
 217   0.0000       1.475212        40.1426 
 218   0.0000       1.480506        40.2866 
 219   0.0000       1.498867        40.7863 
 220   0.0000       1.499899        40.8143 
 221   0.0000       1.508186        41.0398 
 222   0.0000       1.508604        41.0512 
 223   0.0000       1.518910        41.3316 
 224   0.0000       1.522132        41.4193 
 225   0.0000       1.533995        41.7421 
 226   0.0000       1.556838        42.3637 
 227   0.0000       1.574792        42.8523 
 228   0.0000       1.598619        43.5006 
 229   0.0000       1.620794        44.1040 
 230   0.0000       1.654806        45.0296 
 231   0.0000       1.679683        45.7065 
 232   0.0000       1.687570        45.9211 
 233   0.0000       1.695123        46.1266 
 234   0.0000       1.708104        46.4799 
 235   0.0000       1.710968        46.5578 
 236   0.0000       1.728419        47.0327 
 237   0.0000       1.729034        47.0494 
 238   0.0000       1.760872        47.9158 
 239   0.0000       1.780834        48.4590 
 240   0.0000       1.808161        49.2026 
 241   0.0000       1.812169        49.3116 
 242   0.0000       1.826949        49.7138 
 243   0.0000       1.843300        50.1587 
 244   0.0000       1.851963        50.3945 
 245   0.0000       1.877893        51.1001 
 246   0.0000       1.888496        51.3886 
 247   0.0000       1.899135        51.6781 
 248   0.0000       1.913122        52.0587 
 249   0.0000       1.928721        52.4832 
 250   0.0000       1.933012        52.5999 
 251   0.0000       1.944412        52.9101 
 252   0.0000       1.968623        53.5690 
 253   0.0000       1.985983        54.0413 
 254   0.0000       2.014583        54.8196 
 255   0.0000       2.050602        55.7997 
 256   0.0000       2.056770        55.9676 
 257   0.0000       2.062721        56.1295 
 258   0.0000       2.075116        56.4668 
 259   0.0000       2.085824        56.7582 
 260   0.0000       2.099967        57.1430 
 261   0.0000       2.101463        57.1837 
 262   0.0000       2.114658        57.5428 
 263   0.0000       2.126769        57.8723 
 264   0.0000       2.146334        58.4047 
 265   0.0000       2.180381        59.3312 
 266   0.0000       2.194199        59.7072 
 267   0.0000       2.231620        60.7255 
 268   0.0000       2.241349        60.9902 
 269   0.0000       2.246749        61.1372 
 270   0.0000       2.258516        61.4573 
 271   0.0000       2.272026        61.8250 
 272   0.0000       2.283043        62.1248 
 273   0.0000       2.289033        62.2878 
 274   0.0000       2.301908        62.6381 
 275   0.0000       2.307900        62.8011 
 276   0.0000       2.308506        62.8176 
 277   0.0000       2.311665        62.9036 
 278   0.0000       2.318288        63.0838 
 279   0.0000       2.351088        63.9763 
 280   0.0000       2.358552        64.1795 
 281   0.0000       2.360363        64.2287 
 282   0.0000       2.363439        64.3124 
 283   0.0000       2.380287        64.7709 
 284   0.0000       2.389810        65.0300 
 285   0.0000       2.404807        65.4381 
 286   0.0000       2.413529        65.6755 
 287   0.0000       2.420334        65.8606 
 288   0.0000       2.422994        65.9330 
 289   0.0000       2.444931        66.5300 
 290   0.0000       2.482771        67.5596 
 291   0.0000       2.504636        68.1546 
 292   0.0000       2.508623        68.2631 
 293   0.0000       2.510049        68.3019 
 294   0.0000       2.527480        68.7762 
 295   0.0000       2.553947        69.4964 
 296   0.0000       2.566886        69.8485 
 297   0.0000       2.568770        69.8998 
 298   0.0000       2.595236        70.6200 
 299   0.0000       2.636607        71.7457 
 300   0.0000       2.639939        71.8364 
 301   0.0000       2.648178        72.0606 
 302   0.0000       2.666481        72.5586 
 303   0.0000       2.669550        72.6422 
 304   0.0000       2.678717        72.8916 
 305   0.0000       2.696199        73.3673 
 306   0.0000       2.717043        73.9345 
 307   0.0000       2.722361        74.0792 
 308   0.0000       2.727020        74.2060 
 309   0.0000       2.730724        74.3068 
 310   0.0000       2.757703        75.0409 
 311   0.0000       2.760725        75.1232 
 312   0.0000       2.762081        75.1600 
 313   0.0000       2.778971        75.6196 
 314   0.0000       2.782137        75.7058 
 315   0.0000       2.783282        75.7369 
 316   0.0000       2.792429        75.9859 
 317   0.0000       2.808057        76.4111 
 318   0.0000       2.808488        76.4228 
 319   0.0000       2.819049        76.7102 
 320   0.0000       2.821637        76.7806 
 321   0.0000       2.873677        78.1967 
 322   0.0000       2.876804        78.2818 
 323   0.0000       2.902187        78.9725 
 324   0.0000       2.903643        79.0121 
 325   0.0000       2.926707        79.6397 
 326   0.0000       2.929104        79.7050 
 327   0.0000       2.930600        79.7457 
 328   0.0000       2.957513        80.4780 
 329   0.0000       2.971684        80.8636 
 330   0.0000       2.997698        81.5715 
 331   0.0000       3.003154        81.7200 
 332   0.0000       3.011247        81.9402 
 333   0.0000       3.047690        82.9319 
 334   0.0000       3.052355        83.0588 
 335   0.0000       3.073708        83.6398 
 336   0.0000       3.088103        84.0315 
 337   0.0000       3.107903        84.5703 
 338   0.0000       3.126291        85.0707 
 339   0.0000       3.163176        86.0744 
 340   0.0000       3.187927        86.7479 
 341   0.0000       3.189403        86.7881 
 342   0.0000       3.198478        87.0350 
 343   0.0000       3.226364        87.7938 
 344   0.0000       3.287192        89.4490 
 345   0.0000       3.317406        90.2712 
 346   0.0000       3.342854        90.9637 
 347   0.0000       3.373289        91.7919 
 348   0.0000       3.396979        92.4365 
 349   0.0000       3.428346        93.2900 
 350   0.0000       3.462894        94.2301 
 351   0.0000       3.490807        94.9897 
 352   0.0000       3.495206        95.1094 
 353   0.0000       3.523959        95.8918 
 354   0.0000       3.538901        96.2984 
 355   0.0000       3.550041        96.6015 
 356   0.0000       3.570502        97.1583 
 357   0.0000       3.577710        97.3544 
 358   0.0000       3.584977        97.5522 
 359   0.0000       3.603012        98.0429 
 360   0.0000       3.603674        98.0610 
 361   0.0000       3.630499        98.7909 
 362   0.0000       3.661126        99.6243 
 363   0.0000       3.726996       101.4167 
 364   0.0000       3.842963       104.5723 
 365   0.0000       3.916906       106.5844 
 366   0.0000       4.079574       111.0108 
 367   0.0000       4.091198       111.3272 
 368   0.0000       4.168083       113.4193 
 369   0.0000       4.295969       116.8992 
 370   0.0000       4.438817       120.7864 
 371   0.0000       4.515680       122.8779 
 372   0.0000       7.521354       204.6665 
 373   0.0000      21.656307       589.2981 
 374   0.0000      21.966046       597.7265 
 375   0.0000      21.978870       598.0755 
 376   0.0000      22.044193       599.8530 
 377   0.0000      22.063836       600.3875 
 378   0.0000      22.091740       601.1468 
 379   0.0000      22.219388       604.6203 
 380   0.0000      22.231540       604.9510 
 381   0.0000      22.301863       606.8645 
 382   0.0000      22.530843       613.0954 
 383   0.0000      31.937387       869.0605 
 384   0.0000      32.101788       873.5341 
 385   0.0000      43.828624      1192.6375 
 386   0.0000      44.052170      1198.7205 

                    ********************************
                    * MULLIKEN POPULATION ANALYSIS *
                    ********************************

-----------------------
MULLIKEN ATOMIC CHARGES
-----------------------
   0 C :   -0.519242
   1 C :    0.146684
   2 C :   -0.438630
   3 C :   -0.519250
   4 O :   -0.159999
   5 C :    0.406387
   6 O :   -0.499320
   7 N :    0.007241
   8 C :   -0.079754
   9 C :   -0.114226
  10 C :   -0.160520
  11 C :   -0.215399
  12 C :    0.068824
  13 Br:   -0.121771
  14 N :   -0.106691
  15 H :    0.193271
  16 H :    0.161757
  17 H :    0.156645
  18 H :    0.158200
  19 H :    0.158204
  20 H :    0.157850
  21 H :    0.193303
  22 H :    0.161745
  23 H :    0.156640
  24 H :    0.277501
  25 H :    0.204810
  26 H :    0.155632
  27 H :    0.170106
Sum of atomic charges:   -0.0000000

--------------------------------
MULLIKEN REDUCED ORBITAL CHARGES
--------------------------------
  0 C s       :     3.347690  s :     3.347690
      pz      :     0.972725  p :     3.144524
      px      :     1.085168
      py      :     1.086631
      dz2     :     0.007581  d :     0.027028
      dxz     :     0.002933
      dyz     :     0.006913
      dx2y2   :     0.006992
      dxy     :     0.002609
  1 C s       :     3.078952  s :     3.078952
      pz      :     0.994970  p :     2.699263
      px      :     0.768465
      py      :     0.935828
      dz2     :     0.016082  d :     0.075101
      dxz     :     0.013235
      dyz     :     0.013907
      dx2y2   :     0.019633
      dxy     :     0.012244
  2 C s       :     3.324098  s :     3.324098
      pz      :     1.105165  p :     3.087053
      px      :     1.053233
      py      :     0.928654
      dz2     :     0.005526  d :     0.027479
      dxz     :     0.001833
      dyz     :     0.008196
      dx2y2   :     0.007834
      dxy     :     0.004089
  3 C s       :     3.347687  s :     3.347687
      pz      :     0.972771  p :     3.144535
      px      :     1.085187
      py      :     1.086576
      dz2     :     0.007581  d :     0.027028
      dxz     :     0.002932
      dyz     :     0.006913
      dx2y2   :     0.006992
      dxy     :     0.002610
  4 O s       :     3.704557  s :     3.704557
      pz      :     1.766165  p :     4.428074
      px      :     1.134041
      py      :     1.527868
      dz2     :     0.001971  d :     0.027368
      dxz     :     0.005199
      dyz     :     0.004660
      dx2y2   :    -0.001960
      dxy     :     0.017498
  5 C s       :     2.989162  s :     2.989162
      pz      :     0.795298  p :     2.454531
      px      :     0.857637
      py      :     0.801596
      dz2     :     0.006505  d :     0.149920
      dxz     :     0.016673
      dyz     :     0.030657
      dx2y2   :     0.039353
      dxy     :     0.056732
  6 O s       :     3.845976  s :     3.845976
      pz      :     1.514272  p :     4.619438
      px      :     1.776317
      py      :     1.328849
      dz2     :     0.006997  d :     0.033906
      dxz     :     0.004296
      dyz     :     0.006663
      dx2y2   :     0.009788
      dxy     :     0.006161
  7 N s       :     3.243296  s :     3.243296
      pz      :     1.636829  p :     3.646526
      px      :     0.925705
      py      :     1.083992
      dz2     :     0.006893  d :     0.102937
      dxz     :     0.018942
      dyz     :     0.007326
      dx2y2   :     0.026898
      dxy     :     0.042878
  8 C s       :     3.215785  s :     3.215785
      pz      :     0.900519  p :     2.781306
      px      :     0.965268
      py      :     0.915519
      dz2     :     0.005065  d :     0.082663
      dxz     :     0.014189
      dyz     :     0.010543
      dx2y2   :     0.024678
      dxy     :     0.028187
  9 C s       :     3.140695  s :     3.140695
      pz      :     1.028960  p :     2.937018
      px      :     0.944474
      py      :     0.963584
      dz2     :     0.003321  d :     0.036513
      dxz     :     0.003844
      dyz     :     0.004187
      dx2y2   :     0.014221
      dxy     :     0.010940
 10 C s       :     3.245765  s :     3.245765
      pz      :     0.932099  p :     2.874627
      px      :     0.912928
      py      :     1.029601
      dz2     :     0.003241  d :     0.040128
      dxz     :     0.008084
      dyz     :     0.002445
      dx2y2   :     0.013728
      dxy     :     0.012631
 11 C s       :     3.147010  s :     3.147010
      pz      :     1.037108  p :     3.030682
      px      :     1.030721
      py      :     0.962853
      dz2     :     0.003388  d :     0.037707
      dxz     :     0.003296
      dyz     :     0.005074
      dx2y2   :     0.014188
      dxy     :     0.011761
 12 C s       :     3.228095  s :     3.228095
      pz      :     0.961949  p :     2.634015
      px      :     0.785073
      py      :     0.886992
      dz2     :     0.004224  d :     0.069067
      dxz     :     0.010205
      dyz     :     0.008560
      dx2y2   :     0.022133
      dxy     :     0.023945
 13 Brs       :     7.970502  s :     7.970502
      pz      :     5.921759  p :    17.107227
      px      :     5.512058
      py      :     5.673411
      dz2     :     2.006152  d :    10.044042
      dxz     :     2.007655
      dyz     :     2.005711
      dx2y2   :     2.006827
      dxy     :     2.017697
 14 N s       :     3.448435  s :     3.448435
      pz      :     1.231967  p :     3.597391
      px      :     0.869746
      py      :     1.495678
      dz2     :     0.001717  d :     0.060865
      dxz     :     0.007051
      dyz     :     0.020415
      dx2y2   :    -0.012799
      dxy     :     0.044482
 15 H s       :     0.788160  s :     0.788160
      pz      :     0.003396  p :     0.018569
      px      :     0.004866
      py      :     0.010307
 16 H s       :     0.820314  s :     0.820314
      pz      :     0.008378  p :     0.017929
      px      :     0.004429
      py      :     0.005122
 17 H s       :     0.825196  s :     0.825196
      pz      :     0.003601  p :     0.018159
      px      :     0.010794
      py      :     0.003764
 18 H s       :     0.823816  s :     0.823816
      pz      :     0.008390  p :     0.017984
      px      :     0.004195
      py      :     0.005399
 19 H s       :     0.823812  s :     0.823812
      pz      :     0.008393  p :     0.017984
      px      :     0.004195
      py      :     0.005396
 20 H s       :     0.824095  s :     0.824095
      pz      :     0.003737  p :     0.018055
      px      :     0.010906
      py      :     0.003412
 21 H s       :     0.788127  s :     0.788127
      pz      :     0.003396  p :     0.018570
      px      :     0.004868
      py      :     0.010306
 22 H s       :     0.820325  s :     0.820325
      pz      :     0.008380  p :     0.017929
      px      :     0.004429
      py      :     0.005120
 23 H s       :     0.825201  s :     0.825201
      pz      :     0.003601  p :     0.018159
      px      :     0.010794
      py      :     0.003764
 24 H s       :     0.690581  s :     0.690581
      pz      :     0.008970  p :     0.031918
      px      :     0.003699
      py      :     0.019249
 25 H s       :     0.774038  s :     0.774038
      pz      :     0.004171  p :     0.021152
      px      :     0.011122
      py      :     0.005858
 26 H s       :     0.825161  s :     0.825161
      pz      :     0.003740  p :     0.019206
      px      :     0.003254
      py      :     0.012213
 27 H s       :     0.810117  s :     0.810117
      pz      :     0.004344  p :     0.019777
      px      :     0.011231
      py      :     0.004202


                     *******************************
                     * LOEWDIN POPULATION ANALYSIS *
                     *******************************

----------------------
LOEWDIN ATOMIC CHARGES
----------------------
   0 C :   -0.369676
   1 C :    0.087764
   2 C :   -0.361076
   3 C :   -0.369670
   4 O :   -0.549753
   5 C :    0.473868
   6 O :   -0.424976
   7 N :   -0.459063
   8 C :    0.333165
   9 C :   -0.115017
  10 C :   -0.104844
  11 C :   -0.178053
  12 C :    0.005165
  13 Br:    0.231528
  14 N :   -0.581235
  15 H :    0.181407
  16 H :    0.166374
  17 H :    0.163290
  18 H :    0.166833
  19 H :    0.166834
  20 H :    0.163297
  21 H :    0.181440
  22 H :    0.166374
  23 H :    0.163283
  24 H :    0.301629
  25 H :    0.206224
  26 H :    0.175298
  27 H :    0.179593

-------------------------------
LOEWDIN REDUCED ORBITAL CHARGES
-------------------------------
  0 C s       :     2.961765  s :     2.961765
      pz      :     1.073926  p :     3.346066
      px      :     1.130744
      py      :     1.141397
      dz2     :     0.017330  d :     0.061845
      dxz     :     0.006386
      dyz     :     0.015297
      dx2y2   :     0.016939
      dxy     :     0.005893
  1 C s       :     2.807986  s :     2.807986
      pz      :     1.071746  p :     2.953837
      px      :     0.818784
      py      :     1.063307
      dz2     :     0.031088  d :     0.150413
      dxz     :     0.025850
      dyz     :     0.026986
      dx2y2   :     0.039630
      dxy     :     0.026859
  2 C s       :     2.962649  s :     2.962649
      pz      :     1.155053  p :     3.336012
      px      :     1.122397
      py      :     1.058563
      dz2     :     0.012845  d :     0.062415
      dxz     :     0.004229
      dyz     :     0.018573
      dx2y2   :     0.018663
      dxy     :     0.008105
  3 C s       :     2.961763  s :     2.961763
      pz      :     1.073948  p :     3.346062
      px      :     1.130754
      py      :     1.141360
      dz2     :     0.017329  d :     0.061845
      dxz     :     0.006385
      dyz     :     0.015296
      dx2y2   :     0.016940
      dxy     :     0.005895
  4 O s       :     3.443725  s :     3.443725
      pz      :     1.728750  p :     4.621592
      px      :     1.319659
      py      :     1.573183
      dz2     :     0.064113  d :     0.484436
      dxz     :     0.097537
      dyz     :     0.045900
      dx2y2   :     0.138839
      dxy     :     0.138047
  5 C s       :     2.653579  s :     2.653579
      pz      :     0.725488  p :     2.553863
      px      :     0.871175
      py      :     0.957199
      dz2     :     0.019471  d :     0.318691
      dxz     :     0.030948
      dyz     :     0.056078
      dx2y2   :     0.088057
      dxy     :     0.124137
  6 O s       :     3.532859  s :     3.532859
      pz      :     1.488407  p :     4.658975
      px      :     1.704820
      py      :     1.465748
      dz2     :     0.029086  d :     0.233143
      dxz     :     0.023514
      dyz     :     0.043364
      dx2y2   :     0.066102
      dxy     :     0.071076
  7 N s       :     3.073968  s :     3.073968
      pz      :     1.556919  p :     3.903030
      px      :     1.144507
      py      :     1.201604
      dz2     :     0.060977  d :     0.482064
      dxz     :     0.093745
      dyz     :     0.031766
      dx2y2   :     0.156951
      dxy     :     0.138625
  8 C s       :     2.717410  s :     2.717410
      pz      :     0.830868  p :     2.774014
      px      :     0.915034
      py      :     1.028112
      dz2     :     0.011456  d :     0.175411
      dxz     :     0.026631
      dyz     :     0.019080
[...]
     31       0.000000  -0.000043   0.084786   0.015601   0.008300   0.000079
     32      -0.000041  -0.000000  -0.000017  -0.000003  -0.000002  -0.000000
     33      -0.000000   0.000013  -0.010352   0.081267   0.001942  -0.000227
     34      -0.000000   0.000007  -0.006647   0.031751  -0.000171   0.000030
     35      -0.000029  -0.000000   0.000001  -0.000004   0.000000  -0.000000
     36      -0.000000   0.000028  -0.000446   0.000582   0.000230  -0.000016
     37       0.000000  -0.000008  -0.000068  -0.003954  -0.000143  -0.000195
     38      -0.000006  -0.000000  -0.000000   0.000001   0.000000   0.000000
     39       0.000000   0.000001   0.000005  -0.000048   0.000012   0.000005
     40       0.000000  -0.000009  -0.000009   0.000035  -0.000016  -0.000004
     41       0.000013   0.000000   0.000000   0.000000  -0.000000   0.000000
     42       0.000000  -0.000017   0.000108  -0.000794   0.000434  -0.000067
     43      -0.000000   0.000013  -0.000090   0.000027  -0.000213   0.000165
     44       0.000002   0.000000   0.000000  -0.000000   0.000000  -0.000000
     45      -0.225565   0.222785   0.000091   0.000003  -0.000227  -0.000223
     46      -0.604453   0.598765   0.000375   0.000029  -0.000367  -0.000020
     47      -0.000982  -0.001510  -0.000021   0.000000  -0.000081  -0.000089
     48       0.084859  -0.079991  -0.000002  -0.000013  -0.000036  -0.000086
     49      -0.102306   0.097388  -0.000041  -0.000000   0.000123  -0.000010
     50      -0.181794   0.171985  -0.000069   0.000016   0.000130  -0.000009
     51      -0.182485   0.192246   0.000574  -0.000034   0.000090   0.000368
     52       0.012565  -0.013127  -0.000019   0.000002   0.000021  -0.000134
     53      -0.006426   0.006592   0.000052  -0.000009   0.000012   0.000136
     54       0.003903  -0.000510   0.000021  -0.000007  -0.000022  -0.000009
     55      -0.006804   0.001404  -0.000082  -0.000003   0.000040   0.000109
     56      -0.009697   0.000159  -0.000132   0.000001   0.000059   0.000405
     57      -0.003894  -0.000547   0.000021  -0.000007  -0.000022  -0.000009
     58       0.006783   0.001469  -0.000082  -0.000003   0.000040   0.000109
     59      -0.009689  -0.000252   0.000132  -0.000001  -0.000059  -0.000405
     60      -0.000048   0.011380   0.000530  -0.000030   0.000066   0.000020
     61      -0.000002   0.000433  -0.000005  -0.000010  -0.000005   0.000134
     62       0.001049   0.000006   0.000000  -0.000000  -0.000000  -0.000000
     63       0.223332   0.224983   0.000091   0.000003  -0.000227  -0.000222
     64       0.598548   0.604755   0.000376   0.000029  -0.000366  -0.000019
     65      -0.001073   0.001422   0.000021  -0.000000   0.000081   0.000089
     66      -0.084013  -0.080777  -0.000003  -0.000013  -0.000036  -0.000086
     67       0.101256   0.098316  -0.000041  -0.000000   0.000123  -0.000010
     68      -0.180037  -0.173729   0.000068  -0.000016  -0.000130   0.000008
     69       0.180560   0.194025   0.000574  -0.000034   0.000090   0.000368
     70      -0.012430  -0.013245  -0.000019   0.000002   0.000021  -0.000134
     71      -0.006336  -0.006629  -0.000052   0.000009  -0.000012  -0.000136
     72       0.000000  -0.000146   0.000254  -0.000164   0.001086   0.087963
     73       0.000000   0.000073   0.000892  -0.000769  -0.000291  -0.993459
     74       0.000044  -0.000000  -0.000001  -0.000001   0.000000   0.000241
     75      -0.000003   0.000497  -0.067534  -0.021561   0.807070  -0.000633
     76       0.000001  -0.000114   0.051405   0.016606  -0.577493   0.000833
     77      -0.000054  -0.000000  -0.000013  -0.000003   0.000140   0.000000
     78      -0.000000   0.000106  -0.114117  -0.014654  -0.012972   0.000050
     79      -0.000003   0.000672  -0.973007  -0.154137  -0.084029  -0.000526
     80      -0.000059  -0.000000   0.000194   0.000030   0.000016  -0.000000
     81       0.000000  -0.000049   0.147813  -0.916647  -0.011797   0.000655
     82       0.000000  -0.000032   0.060816  -0.356603  -0.004322   0.000330
     83      -0.000046  -0.000000  -0.000009   0.000049   0.000001  -0.000001


-----------
IR SPECTRUM
-----------

 Mode   freq       eps      Int      T**2         TX        TY        TZ
       cm**-1   L/(mol*cm) km/mol    a.u.
----------------------------------------------------------------------------
  6:     23.43   0.000003    0.01  0.000038  (-0.000009  0.000030 -0.006146)
  7:     40.37   0.000448    2.26  0.003461  (-0.000007 -0.000026  0.058832)
  8:     74.00   0.000168    0.85  0.000709  (-0.024260  0.010929 -0.000906)
  9:     74.13   0.000359    1.81  0.001509  (-0.000548  0.000250  0.038844)
 10:    111.30   0.000206    1.04  0.000576  ( 0.000043  0.000005 -0.024010)
 11:    153.03   0.000378    1.91  0.000770  ( 0.027132  0.005826 -0.000001)
 12:    155.07   0.000217    1.10  0.000437  (-0.000030  0.000008 -0.020903)
 13:    202.42   0.000119    0.60  0.000184  (-0.000014 -0.000010  0.013566)
 14:    226.35   0.000557    2.82  0.000769  (-0.018633 -0.020528 -0.000033)
 15:    229.30   0.000488    2.46  0.000664  ( 0.000035  0.000034 -0.025762)
 16:    249.54   0.000159    0.80  0.000199  (-0.013011 -0.005461  0.000000)
 17:    272.26   0.001058    5.35  0.001213  (-0.034649 -0.003555  0.000010)
 18:    279.28   0.000014    0.07  0.000016  ( 0.000077  0.000008  0.003946)
 19:    307.37   0.001349    6.82  0.001369  ( 0.034128 -0.014309  0.000005)
 20:    337.94   0.003695   18.67  0.003412  ( 0.055088  0.019432 -0.000015)
 21:    357.29   0.000280    1.42  0.000245  ( 0.000058  0.000025  0.015649)
 22:    409.71   0.000499    2.52  0.000380  (-0.019310 -0.002635 -0.000002)
 23:    438.15   0.000011    0.06  0.000008  (-0.000243 -0.002789  0.000003)
 24:    440.60   0.000099    0.50  0.000070  ( 0.000010  0.000026 -0.008386)
 25:    462.93   0.000529    2.67  0.000357  ( 0.000040  0.000019  0.018883)
 26:    466.66   0.000947    4.79  0.000633  (-0.023985 -0.007622  0.000034)
 27:    605.69   0.007277   36.78  0.003749  (-0.000001  0.000021 -0.061233)
 28:    617.02   0.000241    1.22  0.000122  (-0.008803 -0.006671  0.000009)
 29:    625.78   0.007846   39.65  0.003913  ( 0.000010  0.000008 -0.062551)
 30:    681.95   0.002936   14.83  0.001343  ( 0.019653 -0.030937  0.000006)
 31:    736.74   0.000509    2.57  0.000215  ( 0.000007 -0.000002  0.014677)
 32:    759.25   0.000962    4.86  0.000395  (-0.000006 -0.000011 -0.019882)
 33:    767.88   0.004963   25.08  0.002017  (-0.039723  0.020950 -0.000008)
 34:    788.50   0.010427   52.69  0.004127  ( 0.000008  0.000013 -0.064239)
 35:    791.01   0.002649   13.39  0.001045  ( 0.032214  0.002697 -0.000005)
 36:    857.49   0.026102  131.91  0.009499  (-0.096868  0.010756  0.000001)
 37:    889.83   0.000401    2.03  0.000141  (-0.000023  0.000003 -0.011865)
 38:    918.13   0.000622    3.14  0.000211  ( 0.007992 -0.012147  0.000003)
 39:    926.22   0.000024    0.12  0.000008  ( 0.000009  0.000006  0.002871)
 40:    927.83   0.000176    0.89  0.000059  (-0.006700 -0.003802  0.000003)
 41:    961.40   0.000018    0.09  0.000006  (-0.000001 -0.000000 -0.002406)
 42:    991.16   0.000021    0.11  0.000007  ( 0.000013  0.000014  0.002589)
 43:    996.60   0.003797   19.19  0.001189  ( 0.032564 -0.011343  0.000002)
 44:   1048.78   0.000083    0.42  0.000025  ( 0.000014  0.000033  0.004979)
 45:   1049.84   0.000853    4.31  0.000253  ( 0.003286  0.015578 -0.000013)
 46:   1077.29   0.009530   48.16  0.002761  (-0.028316 -0.044260  0.000010)
 47:   1100.22   0.001102    5.57  0.000312  ( 0.000071  0.017677 -0.000005)
 48:   1150.48   0.031697  160.18  0.008598  (-0.089929  0.022596 -0.000006)
 49:   1171.60   0.193465  977.69  0.051531  ( 0.221409  0.050091 -0.000007)
 50:   1185.55   0.003887   19.64  0.001023  (-0.028630  0.014265 -0.000004)
 51:   1232.61   0.033131  167.43  0.008388  (-0.087251 -0.027843  0.000005)
 52:   1267.59   0.003288   16.62  0.000810  ( 0.000012 -0.000012 -0.028453)
 53:   1280.13   0.002060   10.41  0.000502  (-0.002817 -0.022232  0.000010)
 54:   1304.26   0.005815   29.39  0.001391  ( 0.036304 -0.008571  0.000001)
 55:   1351.42   0.005621   28.41  0.001298  (-0.035851 -0.003558 -0.000000)
 56:   1386.71   0.005633   28.47  0.001268  ( 0.000007 -0.000034 -0.035604)
 57:   1389.24   0.005766   29.14  0.001295  (-0.012670  0.033686 -0.000036)
 58:   1415.73   0.058275  294.50  0.012845  ( 0.113186  0.005852  0.000002)
 59:   1416.97   0.000720    3.64  0.000159  ( 0.012570 -0.000717  0.000006)
 60:   1457.33   0.000061    0.31  0.000013  ( 0.000080 -0.000012  0.003611)
 61:   1458.51   0.051058  258.03  0.010925  ( 0.102662 -0.019622  0.000003)
 62:   1478.06   0.000127    0.64  0.000027  ( 0.003581 -0.003740  0.000001)
 63:   1479.53   0.000106    0.54  0.000022  (-0.000005  0.000007  0.004726)
 64:   1487.64   0.002687   13.58  0.000564  (-0.016822  0.016753 -0.000008)
 65:   1495.03   0.000463    2.34  0.000097  ( 0.000011 -0.000001 -0.009827)
 66:   1518.08   0.001123    5.67  0.000231  ( 0.008659 -0.012483  0.000005)
 67:   1544.77   0.127482  644.24  0.025753  (-0.153685 -0.046196  0.000006)
 68:   1597.84   0.037030  187.14  0.007232  ( 0.074817 -0.040431  0.000010)
 69:   1620.98   0.038077  192.42  0.007330  (-0.080222 -0.029914  0.000004)
 70:   1777.69   0.040412  204.23  0.007094  (-0.027353  0.079661 -0.000026)
 71:   3023.31   0.001738    8.78  0.000179  (-0.001047  0.013352 -0.000001)
 72:   3024.97   0.003782   19.11  0.000390  ( 0.000004  0.000003  0.019754)
 73:   3030.78   0.003533   17.85  0.000364  (-0.017962 -0.006414  0.000001)
 74:   3105.20   0.000894    4.52  0.000090  ( 0.000019 -0.000003  0.009477)
 75:   3107.24   0.002641   13.35  0.000265  ( 0.016078 -0.002592 -0.000010)
 76:   3117.61   0.003275   16.55  0.000328  ( 0.000011 -0.000004 -0.018106)
 77:   3121.09   0.005243   26.50  0.000524  ( 0.021663 -0.007413  0.000007)
 78:   3143.92   0.000031    0.16  0.000003  ( 0.000017  0.000057  0.001750)
 79:   3146.70   0.001687    8.53  0.000167  (-0.004473 -0.012138  0.000009)
 80:   3178.72   0.000990    5.00  0.000097  ( 0.001735  0.009705 -0.000002)
 81:   3220.25   0.000050    0.25  0.000005  (-0.001989  0.000966 -0.000000)
 82:   3244.90   0.001934    9.78  0.000186  ( 0.013278 -0.003119  0.000001)
 83:   3610.01   0.010617   53.65  0.000918  ( 0.002630 -0.030180  0.000007)

* The epsilon (eps) is given for a Dirac delta lineshape.
** The dipole moment derivative (T) already includes vibrational overlap.

The first frequency considered to be a vibration is 6
The total number of vibrations considered is 78


--------------------------
THERMOCHEMISTRY AT 298.15K
--------------------------

Temperature         ... 298.15 K
Pressure            ... 1.00 atm
Total Mass          ... 273.13 AMU

Throughout the following assumptions are being made:
  (1) The electronic state is orbitally nondegenerate
  (2) There are no thermally accessible electronically excited states
  (3) Hindered rotations indicated by low frequency modes are not
      treated as such but are treated as vibrations and this may
      cause some error
  (4) All equations used are the standard statistical mechanics
      equations for an ideal gas
  (5) All vibrations are strictly harmonic

freq.      23.43  E(vib)   ...       0.56 
freq.      40.37  E(vib)   ...       0.54 
freq.      74.00  E(vib)   ...       0.49 
freq.      74.13  E(vib)   ...       0.49 
freq.     111.30  E(vib)   ...       0.45 
freq.     153.03  E(vib)   ...       0.40 
freq.     155.07  E(vib)   ...       0.40 
freq.     202.42  E(vib)   ...       0.35 
freq.     226.35  E(vib)   ...       0.33 
freq.     229.30  E(vib)   ...       0.32 
freq.     249.54  E(vib)   ...       0.31 
freq.     272.26  E(vib)   ...       0.29 
freq.     279.28  E(vib)   ...       0.28 
freq.     307.37  E(vib)   ...       0.26 
freq.     337.94  E(vib)   ...       0.24 
freq.     357.29  E(vib)   ...       0.22 
freq.     409.71  E(vib)   ...       0.19 
freq.     438.15  E(vib)   ...       0.17 
freq.     440.60  E(vib)   ...       0.17 
freq.     462.93  E(vib)   ...       0.16 
freq.     466.66  E(vib)   ...       0.16 
freq.     605.69  E(vib)   ...       0.10 
freq.     617.02  E(vib)   ...       0.09 
freq.     625.78  E(vib)   ...       0.09 
freq.     681.95  E(vib)   ...       0.08 
freq.     736.74  E(vib)   ...       0.06 
freq.     759.25  E(vib)   ...       0.06 
freq.     767.88  E(vib)   ...       0.06 
freq.     788.50  E(vib)   ...       0.05 
freq.     791.01  E(vib)   ...       0.05 
freq.     857.49  E(vib)   ...       0.04 
freq.     889.83  E(vib)   ...       0.04 
freq.     918.13  E(vib)   ...       0.03 
freq.     926.22  E(vib)   ...       0.03 
freq.     927.83  E(vib)   ...       0.03 
freq.     961.40  E(vib)   ...       0.03 
freq.     991.16  E(vib)   ...       0.02 
freq.     996.60  E(vib)   ...       0.02 
freq.    1048.78  E(vib)   ...       0.02 
freq.    1049.84  E(vib)   ...       0.02 
freq.    1077.29  E(vib)   ...       0.02 
freq.    1100.22  E(vib)   ...       0.02 
freq.    1150.48  E(vib)   ...       0.01 
freq.    1171.60  E(vib)   ...       0.01 
freq.    1185.55  E(vib)   ...       0.01 
freq.    1232.61  E(vib)   ...       0.01 
freq.    1267.59  E(vib)   ...       0.01 
freq.    1280.13  E(vib)   ...       0.01 
freq.    1304.26  E(vib)   ...       0.01 
freq.    1351.42  E(vib)   ...       0.01 
freq.    1386.71  E(vib)   ...       0.00 
freq.    1389.24  E(vib)   ...       0.00 
freq.    1415.73  E(vib)   ...       0.00 
freq.    1416.97  E(vib)   ...       0.00 
freq.    1457.33  E(vib)   ...       0.00 
freq.    1458.51  E(vib)   ...       0.00 
freq.    1478.06  E(vib)   ...       0.00 
freq.    1479.53  E(vib)   ...       0.00 
freq.    1487.64  E(vib)   ...       0.00 
freq.    1495.03  E(vib)   ...       0.00 
freq.    1518.08  E(vib)   ...       0.00 
freq.    1544.77  E(vib)   ...       0.00 
freq.    1597.84  E(vib)   ...       0.00 
freq.    1620.98  E(vib)   ...       0.00 
freq.    1777.69  E(vib)   ...       0.00 
freq.    3023.31  E(vib)   ...       0.00 
freq.    3024.97  E(vib)   ...       0.00 
freq.    3030.78  E(vib)   ...       0.00 
freq.    3105.20  E(vib)   ...       0.00 
freq.    3107.24  E(vib)   ...       0.00 
freq.    3117.61  E(vib)   ...       0.00 
freq.    3121.09  E(vib)   ...       0.00 
freq.    3143.92  E(vib)   ...       0.00 
freq.    3146.70  E(vib)   ...       0.00 
freq.    3178.72  E(vib)   ...       0.00 
freq.    3220.25  E(vib)   ...       0.00 
freq.    3244.90  E(vib)   ...       0.00 
freq.    3610.01  E(vib)   ...       0.00 

------------
INNER ENERGY
------------

The inner energy is: U= E(el) + E(ZPE) + E(vib) + E(rot) + E(trans)
    E(el)   - is the total energy from the electronic structure calculation
              = E(kin-el) + E(nuc-el) + E(el-el) + E(nuc-nuc)
    E(ZPE)  - the the zero temperature vibrational energy from the frequency calculation
    E(vib)  - the the finite temperature correction to E(ZPE) due to population
              of excited vibrational states
    E(rot)  - is the rotational thermal energy
    E(trans)- is the translational thermal energy

Summary of contributions to the inner energy U:
Electronic energy                ...  -3222.89601730 Eh
Zero point energy                ...      0.22091888 Eh     138.63 kcal/mol
Thermal vibrational correction   ...      0.01248479 Eh       7.83 kcal/mol
Thermal rotational correction    ...      0.00141627 Eh       0.89 kcal/mol
Thermal translational correction ...      0.00141627 Eh       0.89 kcal/mol
-----------------------------------------------------------------------
Total thermal energy                  -3222.65978109 Eh


Summary of corrections to the electronic energy:
(perhaps to be used in another calculation)
Total thermal correction                  0.01531733 Eh       9.61 kcal/mol
Non-thermal (ZPE) correction              0.22091888 Eh     138.63 kcal/mol
-----------------------------------------------------------------------
Total correction                          0.23623621 Eh     148.24 kcal/mol


--------
ENTHALPY
--------

The enthalpy is H = U + kB*T
                kB is Boltzmann's constant
Total free energy                 ...  -3222.65978109 Eh 
Thermal Enthalpy correction       ...      0.00094421 Eh       0.59 kcal/mol
-----------------------------------------------------------------------
Total Enthalpy                    ...  -3222.65883688 Eh


Note: Only C1 symmetry has been detected, increase convergence thresholds 
      if your molecule has a higher symmetry. Symmetry factor of 1.0 is   
      used for the rotational entropy correction. 
 

Note: Rotational entropy computed according to Herzberg 
Infrared and Raman Spectra, Chapter V,1, Van Nostrand Reinhold, 1945 
Point Group:  C1, Symmetry Number:   1  
Rotational constants in cm-1:     0.040528     0.005087     0.004661 

Vibrational entropy computed according to the QRRHO of S. Grimme
Chem.Eur.J. 2012 18 9955


-------
ENTROPY
-------

The entropy contributions are T*S = T*(S(el)+S(vib)+S(rot)+S(trans))
     S(el)   - electronic entropy
     S(vib)  - vibrational entropy
     S(rot)  - rotational entropy
     S(trans)- translational entropy
The entropies will be listed as multiplied by the temperature to get
units of energy

Electronic entropy                ...      0.00000000 Eh      0.00 kcal/mol
Vibrational entropy               ...      0.02195207 Eh     13.78 kcal/mol
Rotational entropy                ...      0.01605177 Eh     10.07 kcal/mol
Translational entropy             ...      0.02029426 Eh     12.73 kcal/mol
-----------------------------------------------------------------------
Final entropy term                ...      0.05829810 Eh     36.58 kcal/mol

In case the symmetry of your molecule has not been determined correctly
or in case you have a reason to use a different symmetry number we print 
out the resulting rotational entropy values for sn=1,12 :
 --------------------------------------------------------
|  sn= 1 | S(rot)=       0.01605177 Eh     10.07 kcal/mol|
|  sn= 2 | S(rot)=       0.01539731 Eh      9.66 kcal/mol|
|  sn= 3 | S(rot)=       0.01501448 Eh      9.42 kcal/mol|
|  sn= 4 | S(rot)=       0.01474286 Eh      9.25 kcal/mol|
|  sn= 5 | S(rot)=       0.01453217 Eh      9.12 kcal/mol|
|  sn= 6 | S(rot)=       0.01436003 Eh      9.01 kcal/mol|
|  sn= 7 | S(rot)=       0.01421448 Eh      8.92 kcal/mol|
|  sn= 8 | S(rot)=       0.01408840 Eh      8.84 kcal/mol|
|  sn= 9 | S(rot)=       0.01397719 Eh      8.77 kcal/mol|
|  sn=10 | S(rot)=       0.01387771 Eh      8.71 kcal/mol|
|  sn=11 | S(rot)=       0.01378772 Eh      8.65 kcal/mol|
|  sn=12 | S(rot)=       0.01370557 Eh      8.60 kcal/mol|
 --------------------------------------------------------


-------------------
GIBBS FREE ENERGY
-------------------

The Gibbs free energy is G = H - T*S

Total enthalpy                    ...  -3222.65883688 Eh 
Total entropy correction          ...     -0.05829810 Eh    -36.58 kcal/mol
-----------------------------------------------------------------------
Final Gibbs free energy         ...  -3222.71713498 Eh

For completeness - the Gibbs free energy minus the electronic energy
G-E(el)                           ...      0.17888232 Eh    112.25 kcal/mol


Timings for individual modules:

Sum of individual times         ...      205.825 sec (=   3.430 min)
GTO integral calculation        ...        3.365 sec (=   0.056 min)   1.6 %
SCF iterations                  ...       47.201 sec (=   0.787 min)  22.9 %
SCF Gradient evaluation         ...       10.517 sec (=   0.175 min)   5.1 %
Geometry relaxation             ...        0.226 sec (=   0.004 min)   0.1 %
Analytical frequency calculation...      144.516 sec (=   2.409 min)  70.2 %
                             ****ORCA TERMINATED NORMALLY****
TOTAL RUN TIME: 0 days 0 hours 3 minutes 28 seconds 114 msec
