Job Start Time: Thu Apr 18 14:10:01 MDT 2024
SLURM Job ID: 254469
SLURM Job Name: arbr_28_r2scan3c
SLURM Job Nodes: node13
SLURM Memory / CPU: 8000

                                 *****************
                                 * O   R   C   A *
                                 *****************

                                            #,                                       
                                            ###                                      
                                            ####                                     
                                            #####                                    
                                            ######                                   
                                           ########,                                 
                                     ,,################,,,,,                         
                               ,,#################################,,                 
                          ,,##########################################,,             
                       ,#########################################, ''#####,          
                    ,#############################################,,   '####,        
                  ,##################################################,,,,####,       
                ,###########''''           ''''###############################       
              ,#####''   ,,,,##########,,,,          '''####'''          '####       
            ,##' ,,,,###########################,,,                        '##       
           ' ,,###''''                  '''############,,,                           
         ,,##''                                '''############,,,,        ,,,,,,###''
      ,#''                                            '''#######################'''  
     '                                                          ''''####''''         
             ,#######,   #######,   ,#######,      ##                                
            ,#'     '#,  ##    ##  ,#'     '#,    #''#        ######   ,####,        
            ##       ##  ##   ,#'  ##            #'  '#       #        #'  '#        
            ##       ##  #######   ##           ,######,      #####,   #    #        
            '#,     ,#'  ##    ##  '#,     ,#' ,#      #,         ##   #,  ,#        
             '#######'   ##     ##  '#######'  #'      '#     #####' # '####'        



                  #######################################################
                  #                        -***-                        #
                  #          Department of theory and spectroscopy      #
                  #    Directorship and core code : Frank Neese         #
                  #        Max Planck Institute fuer Kohlenforschung    #
                  #                Kaiser Wilhelm Platz 1               #
                  #                 D-45470 Muelheim/Ruhr               #
                  #                      Germany                        #
                  #                                                     #
                  #                  All rights reserved                #
                  #                        -***-                        #
                  #######################################################


                         Program Version 5.0.3 -  RELEASE  -


 With contributions from (in alphabetic order):
   Daniel Aravena         : Magnetic Suceptibility
   Michael Atanasov       : Ab Initio Ligand Field Theory (pilot matlab implementation)
   Alexander A. Auer      : GIAO ZORA, VPT2 properties, NMR spectrum
   Ute Becker             : Parallelization
   Giovanni Bistoni       : ED, misc. LED, open-shell LED, HFLD
   Martin Brehm           : Molecular dynamics
   Dmytro Bykov           : SCF Hessian
   Vijay G. Chilkuri      : MRCI spin determinant printing, contributions to CSF-ICE
   Dipayan Datta          : RHF DLPNO-CCSD density
   Achintya Kumar Dutta   : EOM-CC, STEOM-CC
   Dmitry Ganyushin       : Spin-Orbit,Spin-Spin,Magnetic field MRCI
   Miquel Garcia          : C-PCM and meta-GGA Hessian, CC/C-PCM, Gaussian charge scheme
   Yang Guo               : DLPNO-NEVPT2, F12-NEVPT2, CIM, IAO-localization
   Andreas Hansen         : Spin unrestricted coupled pair/coupled cluster methods
   Benjamin Helmich-Paris : MC-RPA, TRAH-SCF, COSX integrals
   Lee Huntington         : MR-EOM, pCC
   Robert Izsak           : Overlap fitted RIJCOSX, COSX-SCS-MP3, EOM
   Marcus Kettner         : VPT2
   Christian Kollmar      : KDIIS, OOCD, Brueckner-CCSD(T), CCSD density, CASPT2, CASPT2-K
   Simone Kossmann        : Meta GGA functionals, TD-DFT gradient, OOMP2, MP2 Hessian
   Martin Krupicka        : Initial AUTO-CI
   Lucas Lang             : DCDCAS
   Marvin Lechner         : AUTO-CI (C++ implementation), FIC-MRCC
   Dagmar Lenk            : GEPOL surface, SMD
   Dimitrios Liakos       : Extrapolation schemes; Compound Job, initial MDCI parallelization
   Dimitrios Manganas     : Further ROCIS development; embedding schemes
   Dimitrios Pantazis     : SARC Basis sets
   Anastasios Papadopoulos: AUTO-CI, single reference methods and gradients
   Taras Petrenko         : DFT Hessian,TD-DFT gradient, ASA, ECA, R-Raman, ABS, FL, XAS/XES, NRVS
   Peter Pinski           : DLPNO-MP2, DLPNO-MP2 Gradient
   Christoph Reimann      : Effective Core Potentials
   Marius Retegan         : Local ZFS, SOC
   Christoph Riplinger    : Optimizer, TS searches, QM/MM, DLPNO-CCSD(T), (RO)-DLPNO pert. Triples
   Tobias Risthaus        : Range-separated hybrids, TD-DFT gradient, RPA, STAB
   Michael Roemelt        : Original ROCIS implementation
   Masaaki Saitow         : Open-shell DLPNO-CCSD energy and density
   Barbara Sandhoefer     : DKH picture change effects
   Avijit Sen             : IP-ROCIS
   Kantharuban Sivalingam : CASSCF convergence, NEVPT2, FIC-MRCI
   Bernardo de Souza      : ESD, SOC TD-DFT
   Georgi Stoychev        : AutoAux, RI-MP2 NMR, DLPNO-MP2 response
   Willem Van den Heuvel  : Paramagnetic NMR
   Boris Wezisla          : Elementary symmetry handling
   Frank Wennmohs         : Technical directorship


 We gratefully acknowledge several colleagues who have allowed us to
 interface, adapt or use parts of their codes:
   Stefan Grimme, W. Hujo, H. Kruse, P. Pracht,  : VdW corrections, initial TS optimization,
                  C. Bannwarth, S. Ehlert          DFT functionals, gCP, sTDA/sTD-DF
   Ed Valeev, F. Pavosevic, A. Kumar             : LibInt (2-el integral package), F12 methods
   Garnet Chan, S. Sharma, J. Yang, R. Olivares  : DMRG
   Ulf Ekstrom                                   : XCFun DFT Library
   Mihaly Kallay                                 : mrcc  (arbitrary order and MRCC methods)
   Jiri Pittner, Ondrej Demel                    : Mk-CCSD
   Frank Weinhold                                : gennbo (NPA and NBO analysis)
   Christopher J. Cramer and Donald G. Truhlar   : smd solvation model
   Lars Goerigk                                  : TD-DFT with DH, B97 family of functionals
   V. Asgeirsson, H. Jonsson                     : NEB implementation
   FAccTs GmbH                                   : IRC, NEB, NEB-TS, DLPNO-Multilevel, CI-OPT
                                                   MM, QMMM, 2- and 3-layer-ONIOM, Crystal-QMMM,
                                                   LR-CPCM, SF, NACMEs, symmetry and pop. for TD-DFT,
                                                   nearIR, NL-DFT gradient (VV10), updates on ESD,
                                                   ML-optimized integration grids
   S Lehtola, MJT Oliveira, MAL Marques          : LibXC Library
   Liviu Ungur et al                             : ANISO software


 Your calculation uses the libint2 library for the computation of 2-el integrals
 For citations please refer to: http://libint.valeyev.net

 Your ORCA version has been built with support for libXC version: 5.1.0
 For citations please refer to: https://tddft.org/programs/libxc/

 This ORCA versions uses:
   CBLAS   interface :  Fast vector & matrix operations
   LAPACKE interface :  Fast linear algebra routines
   SCALAPACK package :  Parallel linear algebra routines
   Shared memory     :  Shared parallel matrices
   BLAS/LAPACK       :  OpenBLAS 0.3.15  USE64BITINT DYNAMIC_ARCH NO_AFFINITY Zen SINGLE_THREADED
        Core in use  :  Zen
   Copyright (c) 2011-2014, The OpenBLAS Project


Your calculation utilizes the geometrical counterpoise correction gCP
Please cite in your paper:
H.Kruse, S. Grimme J.Chem.Phys., 136, (2012), 154101 
   

Your calculation utilizes the atom-pairwise dispersion correction
based on tight binding partial charges (D4)
Cite in your paper:
E.Caldeweyher, C.Bannwarth, S.Grimme, J.Chem.Phys., (2017), 147, 034112.
E.Caldeweyher, S.Ehlert, A.Hansen, H.Neugebauer, S.Grimme, J.Chem.Phys., (2018), in progress.
   

================================================================================

----- Orbital basis set information -----
Your calculation utilizes the basis: def2-mTZVPP
   Stefan Grimme, Andreas Hansen, Sebastian Ehlert, and Jan-Michael Mewes 
   J. Chem. Phys. 154, 000000 (2021). DOI: 10.1063/5.0040021

----- AuxJ basis set information -----
Your calculation utilizes the basis: def2-mTZVPP/J
   Stefan Grimme, Andreas Hansen, Sebastian Ehlert, and Jan-Michael Mewes 
   J. Chem. Phys. 154, 000000 (2021). DOI: 10.1063/5.0040021

================================================================================
                                        WARNINGS
                       Please study these warnings very carefully!
================================================================================

Using LibXC functional ID 497 : Re-regularized SCAN exchange by Furness et al
[ 1]  J. W. Furness, A. D. Kaplan, J. Ning, J. P. Perdew, and J. Sun, J. Phys. Chem. Lett. 11, 8208 (2020)
[ 2]  J. W. Furness, A. D. Kaplan, J. Ning, J. P. Perdew, and J. Sun, J. Phys. Chem. Lett. 11, 9248 (2020)
Using LibXC functional ID 498 : Re-regularized SCAN correlation by Furness et al
[ 1]  J. W. Furness, A. D. Kaplan, J. Ning, J. P. Perdew, and J. Sun, J. Phys. Chem. Lett. 11, 8208 (2020)
[ 2]  J. W. Furness, A. D. Kaplan, J. Ning, J. P. Perdew, and J. Sun, J. Phys. Chem. Lett. 11, 9248 (2020)
Using LibXC functional ID 497 : Re-regularized SCAN exchange by Furness et al
[ 1]  J. W. Furness, A. D. Kaplan, J. Ning, J. P. Perdew, and J. Sun, J. Phys. Chem. Lett. 11, 8208 (2020)
[ 2]  J. W. Furness, A. D. Kaplan, J. Ning, J. P. Perdew, and J. Sun, J. Phys. Chem. Lett. 11, 9248 (2020)
Using LibXC functional ID 498 : Re-regularized SCAN correlation by Furness et al
[ 1]  J. W. Furness, A. D. Kaplan, J. Ning, J. P. Perdew, and J. Sun, J. Phys. Chem. Lett. 11, 8208 (2020)
[ 2]  J. W. Furness, A. D. Kaplan, J. Ning, J. P. Perdew, and J. Sun, J. Phys. Chem. Lett. 11, 9248 (2020)

WARNING: Geometry Optimization
  ===> : Switching off AutoStart
         For restart on a previous wavefunction, please use MOREAD

INFO   : the flag for use of the SHARK integral package has been found!

================================================================================
                                       INPUT FILE
================================================================================
NAME = /tmp/254469/arbr_28_r2scan3c.inp
|  1> %maxcore 4000
|  2> %PAL NPROCS 16 END
|  3> ! r2scan-3c opt freq
|  4> 
|  5> # arbr_28_rdkit_conf_1_r2scan3ccreated by GaussianPrep
|  6> 
|  7> * xyz 0 1
|  8> Br  -2.403395  -0.421686  0.0
|  9> C  -0.720645  0.416479  0.000001
| 10> C  -0.551804  1.753241  -0.000007
| 11> S  1.113502  2.206823  0.000004
| 12> C  1.611851  0.547458  -0.000002
| 13> C  2.918409  0.060416  -0.000004
| 14> C  3.107594  -1.305606  -0.000001
| 15> C  2.015126  -2.184844  0.000001
| 16> C  0.723455  -1.706322  0.000001
| 17> C  0.510082  -0.32414  0.0
| 18> H  -1.32337  2.505657  -0.00001
| 19> H  3.76072  0.739746  -0.000006
| 20> H  4.113418  -1.704206  0.000002
| 21> H  2.191962  -3.252114  0.000002
| 22> H  -0.124359  -2.379341  0.000003
| 23> 
| 24> *
| 25> 
| 26>                          ****END OF INPUT****
================================================================================

                       *****************************
                       * Geometry Optimization Run *
                       *****************************

Geometry optimization settings:
Update method            Update   .... BFGS
Choice of coordinates    CoordSys .... Z-matrix Internals
Initial Hessian          InHess   .... Almoef's Model

Convergence Tolerances:
Energy Change            TolE     ....  5.0000e-06 Eh
Max. Gradient            TolMAXG  ....  3.0000e-04 Eh/bohr
RMS Gradient             TolRMSG  ....  1.0000e-04 Eh/bohr
Max. Displacement        TolMAXD  ....  4.0000e-03 bohr
RMS Displacement         TolRMSD  ....  2.0000e-03 bohr
Strict Convergence                ....  False
------------------------------------------------------------------------------
                        ORCA OPTIMIZATION COORDINATE SETUP
------------------------------------------------------------------------------

The optimization will be done in new redundant internal coordinates
Making redundant internal coordinates   ...  (new redundants) done
Evaluating the initial hessian          ...  (Almloef) done
Evaluating the coordinates              ...  done
Calculating the B-matrix                .... done
Calculating the G-matrix                .... done
Diagonalizing the G-matrix              .... done
The first mode is                       ....   38
The number of degrees of freedom        ....   39

    -----------------------------------------------------------------
                    Redundant Internal Coordinates


    -----------------------------------------------------------------
         Definition                    Initial Value    Approx d2E/dq
    -----------------------------------------------------------------
      1. B(C   1,Br  0)                  1.8799         0.347190   
      2. B(C   2,C   1)                  1.3474         0.730688   
      3. B(S   3,C   2)                  1.7260         0.490325   
      4. B(C   4,S   3)                  1.7326         0.478561   
      5. B(C   5,C   4)                  1.3944         0.614817   
      6. B(C   6,C   5)                  1.3791         0.650418   
      7. B(C   7,C   6)                  1.4023         0.597114   
      8. B(C   8,C   7)                  1.3775         0.654251   
      9. B(C   9,C   8)                  1.3986         0.605467   
     10. B(C   9,C   4)                  1.4048         0.591644   
     11. B(C   9,C   1)                  1.4364         0.526905   
     12. B(H  10,C   2)                  1.0777         0.376740   
     13. B(H  11,C   5)                  1.0821         0.370681   
     14. B(H  12,C   6)                  1.0819         0.370941   
     15. B(H  13,C   7)                  1.0818         0.371084   
     16. B(H  14,C   8)                  1.0825         0.370199   
     17. A(Br  0,C   1,C   9)          122.4840         0.405466   
     18. A(C   2,C   1,C   9)          113.8397         0.434188   
     19. A(Br  0,C   1,C   2)          123.6762         0.429774   
     20. A(C   1,C   2,S   3)          112.4348         0.452454   
     21. A(S   3,C   2,H  10)          120.4838         0.359580   
     22. A(C   1,C   2,H  10)          127.0814         0.365721   
     23. A(C   2,S   3,C   4)           91.4802         0.442441   
     24. A(C   5,C   4,C   9)          121.2090         0.429781   
     25. A(S   3,C   4,C   5)          127.1601         0.436609   
     26. A(S   3,C   4,C   9)          111.6308         0.433599   
     27. A(C   4,C   5,C   6)          118.3287         0.437165   
     28. A(C   6,C   5,H  11)          121.0015         0.357540   
     29. A(C   4,C   5,H  11)          120.6698         0.354140   
     30. A(C   7,C   6,H  12)          119.5542         0.352434   
     31. A(C   5,C   6,C   7)          120.9428         0.434870   
     32. A(C   5,C   6,H  12)          119.5030         0.357582   
     33. A(C   6,C   7,C   8)          120.8442         0.435331   
     34. A(C   8,C   7,H  13)          119.7359         0.357963   
     35. A(C   6,C   7,H  13)          119.4199         0.352458   
     36. A(C   7,C   8,C   9)          119.1037         0.436421   
     37. A(C   9,C   8,H  14)          119.6678         0.353144   
     38. A(C   7,C   8,H  14)          121.2284         0.357818   
     39. A(C   4,C   9,C   8)          119.5714         0.428601   
     40. A(C   1,C   9,C   8)          129.8141         0.419809   
     41. A(C   1,C   9,C   4)          110.6144         0.418085   
     42. D(H  10,C   2,C   1,Br  0)      0.0003         0.037889   
     43. D(H  10,C   2,C   1,C   9)    179.9999         0.037889   
     44. D(S   3,C   2,C   1,Br  0)    179.9997         0.037889   
     45. D(S   3,C   2,C   1,C   9)     -0.0007         0.037889   
     46. D(C   4,S   3,C   2,C   1)      0.0007         0.005057   
     47. D(C   4,S   3,C   2,H  10)   -179.9998         0.005057   
     48. D(C   5,C   4,S   3,C   2)    179.9997         0.004880   
     49. D(C   9,C   4,S   3,C   2)     -0.0005         0.004880   
     50. D(H  11,C   5,C   4,C   9)    180.0000         0.026130   
     51. D(H  11,C   5,C   4,S   3)     -0.0003         0.026130   
     52. D(C   6,C   5,C   4,C   9)     -0.0001         0.026130   
     53. D(C   6,C   5,C   4,S   3)    179.9996         0.026130   
     54. D(C   7,C   6,C   5,H  11)   -180.0000         0.029458   
     55. D(C   7,C   6,C   5,C   4)      0.0001         0.029458   
     56. D(H  12,C   6,C   5,C   4)   -179.9997         0.029458   
     57. D(H  12,C   6,C   5,H  11)      0.0002         0.029458   
     58. D(H  13,C   7,C   6,H  12)     -0.0002         0.024567   
     59. D(H  13,C   7,C   6,C   5)    179.9999         0.024567   
     60. D(C   8,C   7,C   6,H  12)    179.9998         0.024567   
     61. D(C   8,C   7,C   6,C   5)     -0.0000         0.024567   
     62. D(H  14,C   8,C   7,H  13)      0.0001         0.029831   
     63. D(H  14,C   8,C   7,C   6)   -180.0000         0.029831   
     64. D(C   9,C   8,C   7,H  13)    180.0000         0.029831   
     65. D(C   9,C   8,C   7,C   6)     -0.0000         0.029831   
     66. D(C   1,C   9,C   4,C   5)   -180.0000         0.024096   
     67. D(C   1,C   9,C   4,S   3)      0.0002         0.024096   
     68. D(C   8,C   9,C   1,C   2)   -179.9997         0.018945   
     69. D(C   8,C   9,C   1,Br  0)     -0.0001         0.018945   
     70. D(C   4,C   9,C   1,C   2)      0.0003         0.018945   
     71. D(C   8,C   9,C   4,S   3)   -179.9998         0.024096   
     72. D(C   4,C   9,C   1,Br  0)    179.9999         0.018945   
     73. D(C   4,C   9,C   8,H  14)    180.0000         0.025297   
     74. D(C   4,C   9,C   8,C   7)      0.0000         0.025297   
     75. D(C   1,C   9,C   8,H  14)     -0.0000         0.025297   
     76. D(C   1,C   9,C   8,C   7)   -179.9999         0.025297   
     77. D(C   8,C   9,C   4,C   5)      0.0000         0.024096   
    -----------------------------------------------------------------

Number of atoms                         .... 15
Number of degrees of freedom            .... 77

         *************************************************************
         *                GEOMETRY OPTIMIZATION CYCLE   1            *
         *************************************************************
---------------------------------
CARTESIAN COORDINATES (ANGSTROEM)
---------------------------------
  Br    -2.403395   -0.421686    0.000000
  C     -0.720645    0.416479    0.000001
  C     -0.551804    1.753241   -0.000007
  S      1.113502    2.206823    0.000004
  C      1.611851    0.547458   -0.000002
  C      2.918409    0.060416   -0.000004
  C      3.107594   -1.305606   -0.000001
  C      2.015126   -2.184844    0.000001
  C      0.723455   -1.706322    0.000001
  C      0.510082   -0.324140    0.000000
  H     -1.323370    2.505657   -0.000010
  H      3.760720    0.739746   -0.000006
  H      4.113418   -1.704206    0.000002
  H      2.191962   -3.252114    0.000002
  H     -0.124359   -2.379341    0.000003

----------------------------
CARTESIAN COORDINATES (A.U.)
----------------------------
  NO LB      ZA    FRAG     MASS         X           Y           Z
   0 Br   35.0000    0    79.900   -4.541758   -0.796871    0.000000
   1 C     6.0000    0    12.011   -1.361822    0.787031    0.000002
   2 C     6.0000    0    12.011   -1.042758    3.313145   -0.000013
   3 S    16.0000    0    32.060    2.104214    4.170291    0.000008
   4 C     6.0000    0    12.011    3.045957    1.034546   -0.000004
   5 C     6.0000    0    12.011    5.514994    0.114170   -0.000008
   6 C     6.0000    0    12.011    5.872502   -2.467238   -0.000002
   7 C     6.0000    0    12.011    3.808036   -4.128757    0.000002
   8 C     6.0000    0    12.011    1.367132   -3.224481    0.000002
   9 C     6.0000    0    12.011    0.963915   -0.612536    0.000000
  10 H     1.0000    0     1.008   -2.500807    4.735006   -0.000019
  11 H     1.0000    0     1.008    7.106731    1.397917   -0.000011
  12 H     1.0000    0     1.008    7.773233   -3.220483    0.000004
  13 H     1.0000    0     1.008    4.142208   -6.145605    0.000004
  14 H     1.0000    0     1.008   -0.235004   -4.496303    0.000006

--------------------------------
INTERNAL COORDINATES (ANGSTROEM)
--------------------------------
 Br     0   0   0     0.000000000000     0.00000000     0.00000000
 C      1   0   0     1.879938331362     0.00000000     0.00000000
 C      2   1   0     1.347382621229   123.67622588     0.00000000
 S      3   2   1     1.725972393893   112.43482632   179.99972778
 C      4   3   2     1.732583022271    91.48018549     0.00000000
 C      5   4   3     1.394382916251   127.16013925   179.99967686
 C      6   5   4     1.379060212144   118.32873562   179.99962742
 C      7   6   5     1.402335834125   120.94281054     0.00000000
 C      8   7   6     1.377460444704   120.84423468     0.00000000
 C      9   8   7     1.398554653295   119.10373103     0.00000000
 H      3   2   1     1.077703080362   127.08139361     0.00000000
 H      6   5   4     1.082116938979   120.66976270     0.00000000
 H      7   6   5     1.081926004394   119.50295570   180.00027257
 H      8   7   6     1.081820790980   119.41987087   179.99991839
 H      9   8   7     1.082470855479   121.22842303   180.00002862

---------------------------
INTERNAL COORDINATES (A.U.)
---------------------------
 Br     0   0   0     0.000000000000     0.00000000     0.00000000
 C      1   0   0     3.552568594936     0.00000000     0.00000000
 C      2   1   0     2.546184151727   123.67622588     0.00000000
 S      3   2   1     3.261615139166   112.43482632   179.99972778
 C      4   3   2     3.274107416374    91.48018549     0.00000000
 C      5   4   3     2.635001837532   127.16013925   179.99967686
 C      6   5   4     2.606046123139   118.32873562   179.99962742
 C      7   6   5     2.650030674281   120.94281054     0.00000000
 C      8   7   6     2.603023000801   120.84423468     0.00000000
 C      9   8   7     2.642885278049   119.10373103     0.00000000
 H      3   2   1     2.036563675567   127.08139361     0.00000000
 H      6   5   4     2.044904659547   120.66976270     0.00000000
 H      7   6   5     2.044543845473   119.50295570   180.00027257
 H      8   7   6     2.044345020935   119.41987087   179.99991839
 H      9   8   7     2.045573464806   121.22842303   180.00002862

---------------------
BASIS SET INFORMATION
---------------------
There are 4 groups of distinct atoms

 Group   1 Type Br  : 17s13p7d contracted to 6s5p3d pattern {842111/64111/511}
 Group   2 Type C   : 11s6p1d contracted to 5s3p1d pattern {62111/411/1}
 Group   3 Type S   : 14s9p2d contracted to 5s4p2d pattern {73211/6111/11}
 Group   4 Type H   : 4s1p contracted to 2s1p pattern {31/1}

Atom   0Br   basis set group =>   1
Atom   1C    basis set group =>   2
Atom   2C    basis set group =>   2
Atom   3S    basis set group =>   3
Atom   4C    basis set group =>   2
Atom   5C    basis set group =>   2
Atom   6C    basis set group =>   2
Atom   7C    basis set group =>   2
Atom   8C    basis set group =>   2
Atom   9C    basis set group =>   2
Atom  10H    basis set group =>   4
Atom  11H    basis set group =>   4
Atom  12H    basis set group =>   4
Atom  13H    basis set group =>   4
Atom  14H    basis set group =>   4
---------------------------------
AUXILIARY/J BASIS SET INFORMATION
---------------------------------
There are 4 groups of distinct atoms

 Group   1 Type Br  : 19s5p5d3f1g contracted to 8s4p3d2f1g pattern {121111111/2111/311/21/1}
 Group   2 Type C   : 8s3p3d contracted to 6s3p3d pattern {311111/111/111}
 Group   3 Type S   : 14s5p5d2f contracted to 8s4p3d1f pattern {71111111/2111/311/2}
 Group   4 Type H   : 5s2p1d contracted to 3s1p1d pattern {311/2/1}

Atom   0Br   basis set group =>   1
Atom   1C    basis set group =>   2
Atom   2C    basis set group =>   2
Atom   3S    basis set group =>   3
Atom   4C    basis set group =>   2
Atom   5C    basis set group =>   2
Atom   6C    basis set group =>   2
Atom   7C    basis set group =>   2
Atom   8C    basis set group =>   2
Atom   9C    basis set group =>   2
Atom  10H    basis set group =>   4
Atom  11H    basis set group =>   4
Atom  12H    basis set group =>   4
Atom  13H    basis set group =>   4
Atom  14H    basis set group =>   4


           ************************************************************
           *        Program running with 16 parallel MPI-processes    *
           *              working on a common directory               *
           ************************************************************
------------------------------------------------------------------------------
                           ORCA GTO INTEGRAL CALCULATION
                           -- RI-GTO INTEGRALS CHOSEN --
------------------------------------------------------------------------------
------------------------------------------------------------------------------
                   ___                                                        
                  /   \      - P O W E R E D   B Y -                         
                 /     \                                                     
                 |  |  |   _    _      __       _____    __    __             
                 |  |  |  | |  | |    /  \     |  _  \  |  |  /  |          
                  \  \/   | |  | |   /    \    | | | |  |  | /  /          
                 / \  \   | |__| |  /  /\  \   | |_| |  |  |/  /          
                |  |  |   |  __  | /  /__\  \  |    /   |      \           
                |  |  |   | |  | | |   __   |  |    \   |  |\   \          
                \     /   | |  | | |  |  |  |  | |\  \  |  | \   \       
                 \___/    |_|  |_| |__|  |__|  |_| \__\ |__|  \__/        
                                                                              
                      - O R C A' S   B I G   F R I E N D -                    
                                      &                                       
                       - I N T E G R A L  F E E D E R -                       
                                                                              
 v1 FN, 2020, v2 2021                                                         
------------------------------------------------------------------------------


Reading SHARK input file /tmp/254469/arbr_28_r2scan3c.SHARKINP.tmp ... ok
----------------------
SHARK INTEGRAL PACKAGE
----------------------

Number of atoms                             ...     15
Number of basis functions                   ...    240
Number of shells                            ...    112
Maximum angular momentum                    ...      2
Integral batch strategy                     ... SHARK/LIBINT Hybrid
RI-J (if used) integral strategy            ... SPLIT-RIJ (Revised 2003 algorithm where possible)
Printlevel                                  ...      1
Contraction scheme used                     ... SEGMENTED contraction
Coulomb Range Separation                    ... NOT USED
Exchange Range Separation                   ... NOT USED
Finite Nucleus Model                        ... NOT USED
Auxiliary Coulomb fitting basis             ... AVAILABLE
   # of basis functions in Aux-J            ...    395
   # of shells in Aux-J                     ...    155
   Maximum angular momentum in Aux-J        ...      4
Auxiliary J/K fitting basis                 ... NOT available
Auxiliary Correlation fitting basis         ... NOT available
Auxiliary 'external' fitting basis          ... NOT available
Integral threshold                          ...     2.500000e-11
Primitive cut-off                           ...     2.500000e-12
Primitive pair pre-selection threshold      ...     2.500000e-12

Calculating pre-screening integrals         ... done (  0.0 sec) Dimension = 112
Organizing shell pair data                  ... done (  0.0 sec)
Shell pair information
Total number of shell pairs                 ...      6328
Shell pairs after pre-screening             ...      5492
Total number of primitive shell pairs       ...     27093
Primitive shell pairs kept                  ...     15596
          la=0 lb=0:   1560 shell pairs
          la=1 lb=0:   2046 shell pairs
          la=1 lb=1:    683 shell pairs
          la=2 lb=0:    675 shell pairs
          la=2 lb=1:    445 shell pairs
          la=2 lb=2:     83 shell pairs

Calculating one electron integrals          ... done (  0.0 sec)
Calculating RI/J V-Matrix + Cholesky decomp.... done (  0.0 sec)
Calculating Nuclear repulsion               ... done (  0.0 sec) ENN=    804.845679707199 Eh

SHARK setup successfully completed in   0.2 seconds

Maximum memory used throughout the entire GTOINT-calculation: 18.6 MB


           ************************************************************
           *        Program running with 16 parallel MPI-processes    *
           *              working on a common directory               *
           ************************************************************
-------------------------------------------------------------------------------
                                 ORCA SCF
-------------------------------------------------------------------------------

------------
SCF SETTINGS
------------
Hamiltonian:
 Density Functional     Method          .... DFT(GTOs)
  Functional kind                       .... Exchange
  Functional name                       .... Re-regularized SCAN exchange by Furness et al
  Functional family                     .... MGGA
  Functional refs                              
    [ 0] J. W. Furness, A. D. Kaplan, J. Ning, J. P. Perdew, and J. Sun, J. Phys. Chem. Lett. 11, 8208 (2020)
    [ 1] J. W. Furness, A. D. Kaplan, J. Ning, J. P. Perdew, and J. Sun, J. Phys. Chem. Lett. 11, 9248 (2020)
  Functional external parameters         .... 8
 Parameter  0 :         c1 parameter
 Parameter  1 :         c2 parameter
 Parameter  2 :          d parameter
 Parameter  3 :         k1 parameter
 Parameter  4 :       taur parameter
 Parameter  5 :     alphar parameter
 Parameter  6 :        eta parameter
 Parameter  7 :        dp2 parameter
  Functional kind                       .... Correlation
  Functional name                       .... Re-regularized SCAN correlation by Furness et al
  Functional family                     .... MGGA
  Functional refs                              
    [ 0] J. W. Furness, A. D. Kaplan, J. Ning, J. P. Perdew, and J. Sun, J. Phys. Chem. Lett. 11, 8208 (2020)
    [ 1] J. W. Furness, A. D. Kaplan, J. Ning, J. P. Perdew, and J. Sun, J. Phys. Chem. Lett. 11, 9248 (2020)
  Functional external parameters         .... 0
 Gradients option       PostSCFGGA      .... off
   Density functional embedding theory  .... OFF
 RI-approximation to the Coulomb term is turned on
   Number of AuxJ basis functions       .... 395


General Settings:
 Integral files         IntName         .... /tmp/254469/arbr_28_r2scan3c
 Hartree-Fock type      HFTyp           .... RHF
 Total Charge           Charge          ....    0
 Multiplicity           Mult            ....    1
 Number of Electrons    NEL             ....  104
 Basis Dimension        Dim             ....  240
 Nuclear Repulsion      ENuc            ....    804.8456797072 Eh

Convergence Acceleration:
 DIIS                   CNVDIIS         .... on
   Start iteration      DIISMaxIt       ....    12
   Startup error        DIISStart       ....  0.200000
   # of expansion vecs  DIISMaxEq       ....     5
   Bias factor          DIISBfac        ....   1.050
   Max. coefficient     DIISMaxC        ....  10.000
 Trust-Rad. Augm. Hess. CNVTRAH         .... auto
   Auto Start mean grad. ratio tolernc. ....  1.125000
   Auto Start start iteration           ....    20
   Auto Start num. interpolation iter.  ....    10
   Max. Number of Micro iterations      ....    16
   Max. Number of Macro iterations      .... Maxiter - #DIIS iter
   Number of Davidson start vectors     ....     2
   Converg. threshold I  (grad. norm)   ....   1.000e-05
   Converg. threshold II (energy diff.) ....   1.000e-08
   Grad. Scal. Fac. for Micro threshold ....   0.100
   Minimum threshold for Micro iter.    ....   0.010
   NR start threshold (gradient norm)   ....   0.001
   Initial trust radius                 ....   0.400
   Minimum AH scaling param. (alpha)    ....   1.000
   Maximum AH scaling param. (alpha)    .... 1000.000
   Orbital update algorithm             .... Taylor
   White noise on init. David. guess    .... on
   Maximum white noise                  ....   0.010
   Quad. conv. algorithm                .... NR
   COSX micro iterations for RIJONX calc.... off
 SOSCF                  CNVSOSCF        .... on
   Start iteration      SOSCFMaxIt      ....   150
   Startup grad/error   SOSCFStart      ....  0.003300
 Level Shifting         CNVShift        .... on
   Level shift para.    LevelShift      ....    0.2500
   Turn off err/grad.   ShiftErr        ....    0.0010
 Zerner damping         CNVZerner       .... off
 Static damping         CNVDamp         .... on
   Fraction old density DampFac         ....    0.7000
   Max. Damping (<1)    DampMax         ....    0.9800
   Min. Damping (>=0)   DampMin         ....    0.0000
   Turn off err/grad.   DampErr         ....    0.1000
 Fernandez-Rico         CNVRico         .... off

SCF Procedure:
 Maximum # iterations   MaxIter         ....   125
 SCF integral mode      SCFMode         .... Direct
   Integral package                     .... SHARK and LIBINT hybrid scheme
 Reset frequency        DirectResetFreq ....    20
 Integral Threshold     Thresh          ....  2.500e-11 Eh
 Primitive CutOff       TCut            ....  2.500e-12 Eh

Convergence Tolerance:
 Convergence Check Mode ConvCheckMode   .... Total+1el-Energy
 Convergence forced     ConvForced      .... 0
 Energy Change          TolE            ....  1.000e-08 Eh
 1-El. energy change                    ....  1.000e-05 Eh
 Orbital Gradient       TolG            ....  1.000e-05
 Orbital Rotation angle TolX            ....  1.000e-05
 DIIS Error             TolErr          ....  5.000e-07


Diagonalization of the overlap matrix:
Smallest eigenvalue                        ... 2.575e-05
Time for diagonalization                   ...    0.006 sec
Threshold for overlap eigenvalues          ... 1.000e-08
Number of eigenvalues below threshold      ... 0
Time for construction of square roots      ...    0.003 sec
Total time needed                          ...    0.010 sec

Time for model grid setup =    0.075 sec

------------------------------
INITIAL GUESS: MODEL POTENTIAL
------------------------------
Loading Hartree-Fock densities                     ... done
Calculating cut-offs                               ... done
Initializing the effective Hamiltonian             ... done
Setting up the integral package (SHARK)            ... done
Starting the Coulomb interaction                   ... done (   0.0 sec)
Reading the grid                                   ... done
Mapping shells                                     ... done
Starting the XC term evaluation                    ... done (   0.0 sec)
  promolecular density results
     # of electrons  =    103.997460131
     EX              =   -156.621634044
     EC              =     -4.124675773
     EX+EC           =   -160.746309816
Transforming the Hamiltonian                       ... done (   0.0 sec)
Diagonalizing the Hamiltonian                      ... done (   0.0 sec)
Back transforming the eigenvectors                 ... done (   0.0 sec)
Now organizing SCF variables                       ... done
                      ------------------
                      INITIAL GUESS DONE (   0.1 sec)
                      ------------------
-------------------
DFT GRID GENERATION
-------------------

General Integration Accuracy     IntAcc      ... 4.388
Radial Grid Type                 RadialGrid  ... OptM3 with GC (2021)
Angular Grid (max. ang.)         AngularGrid ... 4 (Lebedev-302)
Angular grid pruning method      GridPruning ... 4 (adaptive)
Weight generation scheme         WeightScheme... Becke
Basis function cutoff            BFCut       ... 1.0000e-11
Integration weight cutoff        WCut        ... 1.0000e-14
Angular grids for H and He will be reduced by one unit
Partially contracted basis set               ... off
Rotationally invariant grid construction     ... off

Total number of grid points                  ...    82641
Total number of batches                      ...     1299
Average number of points per batch           ...       63
Average number of grid points per atom       ...     5509
Time for grid setup =    0.413 sec

--------------
SCF ITERATIONS
--------------
ITER       Energy         Delta-E        Max-DP      RMS-DP      [F,P]     Damp
               ***  Starting incremental Fock matrix formation  ***
  0  -3279.8892265120   0.000000000000 0.05950225  0.00163796  0.1458662 0.7000
  1  -3279.9926725974  -0.103446085413 0.04008339  0.00116788  0.0686299 0.7000
                               ***Turning on DIIS***
  2  -3280.0283670936  -0.035694496202 0.08482581  0.00205845  0.0262906 0.0000
  3  -3280.0800626621  -0.051695568485 0.03280949  0.00103885  0.0471489 0.0000
  4  -3280.0982194992  -0.018156837145 0.01772218  0.00043858  0.0091718 0.0000
  5  -3280.0992103248  -0.000990825583 0.00497433  0.00017883  0.0043973 0.0000
                      *** Initiating the SOSCF procedure ***
                           *** Shutting down DIIS ***
                      *** Re-Reading the Fockian *** 
                      *** Removing any level shift *** 
ITER      Energy       Delta-E        Grad      Rot      Max-DP    RMS-DP
  6  -3280.09934027  -0.0001299485  0.000366  0.000366  0.003703  0.000104
               *** Restarting incremental Fock matrix formation ***
  7  -3280.09934416  -0.0000038826  0.000402  0.002772  0.002325  0.000060
  8  -3280.09932978   0.0000143711  0.000983  0.002091  0.001367  0.000035
  9  -3280.09934780  -0.0000180172  0.000091  0.000408  0.000388  0.000013
 10  -3280.09934671   0.0000010952  0.000164  0.000305  0.000268  0.000009
 11  -3280.09934817  -0.0000014618  0.000021  0.000097  0.000075  0.000002
 12  -3280.09934812   0.0000000449  0.000044  0.000072  0.000038  0.000002
 13  -3280.09934818  -0.0000000597  0.000005  0.000014  0.000045  0.000001
 14  -3280.09934818   0.0000000037  0.000010  0.000010  0.000022  0.000001
                  ***Gradient check signals convergence***
              ***Rediagonalizing the Fockian in SOSCF/NRSCF***

               *****************************************************
               *                     SUCCESS                       *
               *           SCF CONVERGED AFTER  15 CYCLES          *
               *****************************************************


----------------
TOTAL SCF ENERGY
----------------

Total Energy       :        -3280.09934819 Eh          -89256.04095 eV

Components:
Nuclear Repulsion  :          804.84567971 Eh           21900.96437 eV
Electronic Energy  :        -4084.94502790 Eh         -111157.00532 eV
One Electron Energy:        -6147.93437686 Eh         -167293.79945 eV
Two Electron Energy:         2062.98934896 Eh           56136.79412 eV

Virial components:
Potential Energy   :        -6554.48952296 Eh         -178356.72740 eV
Kinetic Energy     :         3274.39017477 Eh           89100.68645 eV
Virial Ratio       :            2.00174358


DFT components:
N(Alpha)           :       51.999936080562 electrons
N(Beta)            :       51.999936080562 electrons
N(Total)           :      103.999872161124 electrons
E(X)               :     -158.115410219876 Eh       
E(C)               :       -4.083026201976 Eh       
E(XC)              :     -162.198436421852 Eh       
DFET-embed. en.    :        0.000000000000 Eh       

---------------
SCF CONVERGENCE
---------------

  Last Energy change         ...   -1.2429e-08  Tolerance :   1.0000e-08
  Last MAX-Density change    ...    2.4215e-05  Tolerance :   1.0000e-07
  Last RMS-Density change    ...    7.2598e-07  Tolerance :   5.0000e-09
  Last Orbital Gradient      ...    1.0761e-06  Tolerance :   1.0000e-05
  Last Orbital Rotation      ...    4.3087e-06  Tolerance :   1.0000e-05

             **** THE GBW FILE WAS UPDATED (/tmp/254469/arbr_28_r2scan3c.gbw) ****
             **** DENSITY /tmp/254469/arbr_28_r2scan3c.scfp WAS UPDATED ****
             **** ENERGY FILE WAS UPDATED (/tmp/254469/arbr_28_r2scan3c.en.tmp) ****
             **** THE GBW FILE WAS UPDATED (/tmp/254469/arbr_28_r2scan3c.gbw) ****
             **** DENSITY /tmp/254469/arbr_28_r2scan3c.scfp WAS UPDATED ****
----------------
ORBITAL ENERGIES
----------------

  NO   OCC          E(Eh)            E(eV) 
   0   2.0000    -482.239108    -13122.3933 
   1   2.0000     -88.602666     -2411.0011 
   2   2.0000     -62.309982     -1695.5408 
   3   2.0000     -56.091305     -1526.3220 
   4   2.0000     -56.087307     -1526.2132 
   5   2.0000     -56.087155     -1526.2091 
   6   2.0000     -10.100574      -274.8506 
   7   2.0000     -10.082834      -274.3679 
   8   2.0000     -10.079808      -274.2855 
   9   2.0000     -10.062250      -273.8077 
  10   2.0000     -10.054406      -273.5943 
  11   2.0000     -10.048586      -273.4359 
  12   2.0000     -10.047786      -273.4142 
  13   2.0000     -10.045279      -273.3459 
  14   2.0000      -8.642002      -235.1608 
  15   2.0000      -7.896867      -214.8847 
  16   2.0000      -6.449910      -175.5110 
  17   2.0000      -6.435645      -175.1228 
  18   2.0000      -6.435417      -175.1166 
  19   2.0000      -5.843788      -159.0176 
  20   2.0000      -5.839062      -158.8890 
  21   2.0000      -5.835401      -158.7893 
  22   2.0000      -2.547359       -69.3172 
  23   2.0000      -2.544013       -69.2261 
  24   2.0000      -2.543832       -69.2212 
  25   2.0000      -2.532926       -68.9244 
  26   2.0000      -2.532907       -68.9239 
  27   2.0000      -0.883402       -24.0386 
  28   2.0000      -0.816222       -22.2105 
  29   2.0000      -0.784469       -21.3465 
  30   2.0000      -0.735639       -20.0178 
  31   2.0000      -0.711708       -19.3666 
  32   2.0000      -0.675469       -18.3804 
  33   2.0000      -0.600288       -16.3347 
  34   2.0000      -0.569695       -15.5022 
  35   2.0000      -0.544412       -14.8142 
  36   2.0000      -0.471039       -12.8176 
  37   2.0000      -0.461695       -12.5634 
  38   2.0000      -0.451528       -12.2867 
  39   2.0000      -0.416129       -11.3234 
  40   2.0000      -0.405796       -11.0423 
  41   2.0000      -0.398003       -10.8302 
  42   2.0000      -0.377829       -10.2812 
  43   2.0000      -0.353796        -9.6273 
  44   2.0000      -0.338920        -9.2225 
  45   2.0000      -0.331293        -9.0149 
  46   2.0000      -0.320673        -8.7260 
  47   2.0000      -0.303187        -8.2501 
  48   2.0000      -0.273869        -7.4523 
  49   2.0000      -0.260091        -7.0774 
  50   2.0000      -0.234838        -6.3903 
  51   2.0000      -0.208444        -5.6720 
  52   0.0000      -0.064710        -1.7608 
  53   0.0000      -0.041681        -1.1342 
  54   0.0000      -0.033668        -0.9161 
  55   0.0000       0.000970         0.0264 
  56   0.0000       0.003366         0.0916 
  57   0.0000       0.067434         1.8350 
  58   0.0000       0.091747         2.4966 
  59   0.0000       0.106082         2.8866 
  60   0.0000       0.107083         2.9139 
  61   0.0000       0.112893         3.0720 
  62   0.0000       0.123900         3.3715 
  63   0.0000       0.135730         3.6934 
  64   0.0000       0.147603         4.0165 
  65   0.0000       0.162136         4.4119 
  66   0.0000       0.166404         4.5281 
  67   0.0000       0.188512         5.1297 
  68   0.0000       0.192106         5.2275 
  69   0.0000       0.202599         5.5130 
  70   0.0000       0.214708         5.8425 
  71   0.0000       0.219091         5.9618 
  72   0.0000       0.232159         6.3174 
  73   0.0000       0.235797         6.4164 
  74   0.0000       0.245570         6.6823 
  75   0.0000       0.247587         6.7372 
  76   0.0000       0.248775         6.7695 
  77   0.0000       0.258906         7.0452 
  78   0.0000       0.272840         7.4244 
  79   0.0000       0.283820         7.7231 
  80   0.0000       0.287939         7.8352 
  81   0.0000       0.293926         7.9981 
  82   0.0000       0.299015         8.1366 
  83   0.0000       0.310254         8.4424 
  84   0.0000       0.326706         8.8901 
  85   0.0000       0.331087         9.0093 
  86   0.0000       0.333786         9.0828 
  87   0.0000       0.340380         9.2622 
  88   0.0000       0.351230         9.5574 
  89   0.0000       0.373143        10.1537 
  90   0.0000       0.375286        10.2120 
  91   0.0000       0.401348        10.9212 
  92   0.0000       0.409424        11.1410 
  93   0.0000       0.424598        11.5539 
  94   0.0000       0.425313        11.5734 
  95   0.0000       0.437247        11.8981 
  96   0.0000       0.454694        12.3729 
  97   0.0000       0.459424        12.5016 
  98   0.0000       0.486455        13.2371 
  99   0.0000       0.507250        13.8030 
 100   0.0000       0.510587        13.8938 
 101   0.0000       0.525728        14.3058 
 102   0.0000       0.537762        14.6332 
 103   0.0000       0.542282        14.7562 
 104   0.0000       0.552243        15.0273 
 105   0.0000       0.572648        15.5825 
 106   0.0000       0.581896        15.8342 
 107   0.0000       0.585938        15.9442 
 108   0.0000       0.595454        16.2031 
 109   0.0000       0.603709        16.4278 
 110   0.0000       0.630769        17.1641 
 111   0.0000       0.647599        17.6221 
 112   0.0000       0.661873        18.0105 
 113   0.0000       0.673501        18.3269 
 114   0.0000       0.690493        18.7893 
 115   0.0000       0.733964        19.9722 
 116   0.0000       0.739392        20.1199 
 117   0.0000       0.764916        20.8144 
 118   0.0000       0.803168        21.8553 
 119   0.0000       0.807825        21.9820 
 120   0.0000       0.937736        25.5171 
 121   0.0000       1.022391        27.8207 
 122   0.0000       1.062537        28.9131 
 123   0.0000       1.106045        30.0970 
 124   0.0000       1.123986        30.5852 
 125   0.0000       1.140203        31.0265 
 126   0.0000       1.151745        31.3406 
 127   0.0000       1.166799        31.7502 
 128   0.0000       1.200573        32.6693 
 129   0.0000       1.207110        32.8471 
 130   0.0000       1.244306        33.8593 
 131   0.0000       1.260395        34.2971 
 132   0.0000       1.275081        34.6967 
 133   0.0000       1.281491        34.8712 
 134   0.0000       1.293305        35.1926 
 135   0.0000       1.309060        35.6213 
 136   0.0000       1.320889        35.9432 
 137   0.0000       1.345872        36.6230 
 138   0.0000       1.353558        36.8322 
 139   0.0000       1.361931        37.0600 
 140   0.0000       1.386195        37.7203 
 141   0.0000       1.393951        37.9313 
 142   0.0000       1.414778        38.4981 
 143   0.0000       1.416198        38.5367 
 144   0.0000       1.423607        38.7383 
 145   0.0000       1.439800        39.1790 
 146   0.0000       1.444518        39.3073 
 147   0.0000       1.453063        39.5399 
 148   0.0000       1.470949        40.0265 
 149   0.0000       1.477245        40.1979 
 150   0.0000       1.482109        40.3302 
 151   0.0000       1.493514        40.6406 
 152   0.0000       1.495155        40.6852 
 153   0.0000       1.530368        41.6434 
 154   0.0000       1.531761        41.6813 
 155   0.0000       1.538691        41.8699 
 156   0.0000       1.549199        42.1558 
 157   0.0000       1.567578        42.6560 
 158   0.0000       1.584097        43.1055 
 159   0.0000       1.603249        43.6266 
 160   0.0000       1.607658        43.7466 
 161   0.0000       1.629874        44.3511 
 162   0.0000       1.637776        44.5662 
 163   0.0000       1.642410        44.6922 
 164   0.0000       1.665240        45.3135 
 165   0.0000       1.703525        46.3553 
 166   0.0000       1.725410        46.9508 
 167   0.0000       1.744475        47.4696 
 168   0.0000       1.756311        47.7916 
 169   0.0000       1.814269        49.3688 
 170   0.0000       1.820772        49.5457 
 171   0.0000       1.916796        52.1587 
 172   0.0000       1.958345        53.2893 
 173   0.0000       1.999392        54.4062 
 174   0.0000       2.008073        54.6424 
 175   0.0000       2.024033        55.0767 
 176   0.0000       2.025809        55.1251 
 177   0.0000       2.069170        56.3050 
 178   0.0000       2.080252        56.6065 
 179   0.0000       2.112166        57.4750 
 180   0.0000       2.114743        57.5451 
 181   0.0000       2.140747        58.2527 
 182   0.0000       2.185555        59.4720 
 183   0.0000       2.197417        59.7948 
 184   0.0000       2.215626        60.2902 
 185   0.0000       2.251848        61.2759 
 186   0.0000       2.258857        61.4666 
 187   0.0000       2.265858        61.6571 
 188   0.0000       2.296619        62.4942 
 189   0.0000       2.302887        62.6647 
 190   0.0000       2.307149        62.7807 
 191   0.0000       2.334736        63.5314 
 192   0.0000       2.345941        63.8363 
 193   0.0000       2.346773        63.8589 
 194   0.0000       2.357760        64.1579 
 195   0.0000       2.367297        64.4174 
 196   0.0000       2.397903        65.2502 
 197   0.0000       2.434491        66.2459 
 198   0.0000       2.440508        66.4096 
 199   0.0000       2.516188        68.4690 
 200   0.0000       2.531009        68.8723 
 201   0.0000       2.538242        69.0691 
 202   0.0000       2.588519        70.4372 
 203   0.0000       2.669670        72.6454 
 204   0.0000       2.683904        73.0327 
 205   0.0000       2.690079        73.2008 
 206   0.0000       2.722520        74.0835 
 207   0.0000       2.723318        74.1053 
 208   0.0000       2.753755        74.9335 
 209   0.0000       2.764293        75.2202 
 210   0.0000       2.787712        75.8575 
 211   0.0000       2.809850        76.4599 
 212   0.0000       2.822767        76.8114 
 213   0.0000       2.947373        80.2021 
 214   0.0000       2.979781        81.0839 
 215   0.0000       2.983341        81.1808 
 216   0.0000       3.002780        81.7098 
 217   0.0000       3.143583        85.5412 
 218   0.0000       3.148129        85.6649 
 219   0.0000       3.173013        86.3421 
 220   0.0000       3.197933        87.0202 
 221   0.0000       3.218065        87.5680 
 222   0.0000       3.269618        88.9708 
 223   0.0000       3.354359        91.2767 
 224   0.0000       3.391313        92.2823 
 225   0.0000       3.418917        93.0335 
 226   0.0000       3.547367        96.5288 
 227   0.0000       3.596387        97.8627 
 228   0.0000       3.625377        98.6515 
 229   0.0000       4.002169       108.9045 
 230   0.0000       7.515846       204.5166 
 231   0.0000      18.996957       516.9335 
 232   0.0000      21.269621       578.7758 
 233   0.0000      21.599862       587.7621 
 234   0.0000      21.922917       596.5529 
 235   0.0000      21.964412       597.6820 
 236   0.0000      22.061859       600.3337 
 237   0.0000      22.162611       603.0753 
 238   0.0000      22.182823       603.6253 
 239   0.0000      22.312893       607.1647 

                    ********************************
                    * MULLIKEN POPULATION ANALYSIS *
                    ********************************

-----------------------
MULLIKEN ATOMIC CHARGES
-----------------------
   0 Br:   -0.108519
   1 C :   -0.110676
   2 C :   -0.146330
   3 S :    0.063394
   4 C :    0.013539
   5 C :   -0.186175
   6 C :   -0.135913
   7 C :   -0.136809
   8 C :   -0.226271
   9 C :    0.177034
  10 H :    0.183711
  11 H :    0.153632
  12 H :    0.150602
  13 H :    0.150361
  14 H :    0.158419
Sum of atomic charges:   -0.0000000

--------------------------------
MULLIKEN REDUCED ORBITAL CHARGES
--------------------------------
  0 Brs       :     7.970512  s :     7.970512
      pz      :     5.938056  p :    17.086893
      px      :     5.350256
      py      :     5.798581
      dz2     :     2.006185  d :    10.051114
      dxz     :     2.012836
      dyz     :     2.004331
      dx2y2   :     2.012749
      dxy     :     2.015013
  1 C s       :     3.281598  s :     3.281598
      pz      :     1.080393  p :     2.777844
      px      :     0.749086
      py      :     0.948365
      dz2     :     0.003585  d :     0.051235
      dxz     :     0.006426
      dyz     :     0.008927
      dx2y2   :     0.015832
      dxy     :     0.016464
  2 C s       :     3.127430  s :     3.127430
      pz      :     1.057805  p :     2.982390
      px      :     0.925396
      py      :     0.999189
      dz2     :     0.003373  d :     0.036511
      dxz     :     0.004230
      dyz     :     0.006835
      dx2y2   :     0.011377
      dxy     :     0.010696
  3 S s       :     5.863585  s :     5.863585
      pz      :     3.708574  p :     9.919593
      px      :     2.971457
      py      :     3.239562
      dz2     :     0.013099  d :     0.153428
      dxz     :     0.040044
      dyz     :     0.029782
      dx2y2   :     0.037062
      dxy     :     0.033440
  4 C s       :     3.238890  s :     3.238890
      pz      :     1.016219  p :     2.698720
      px      :     0.856874
      py      :     0.825626
      dz2     :     0.003742  d :     0.048852
      dxz     :     0.007501
      dyz     :     0.006968
      dx2y2   :     0.015164
      dxy     :     0.015477
  5 C s       :     3.167467  s :     3.167467
      pz      :     1.006024  p :     2.979814
      px      :     0.967034
      py      :     1.006756
      dz2     :     0.003298  d :     0.038893
      dxz     :     0.004204
      dyz     :     0.005549
      dx2y2   :     0.012016
      dxy     :     0.013826
  6 C s       :     3.183797  s :     3.183797
      pz      :     0.993935  p :     2.913483
      px      :     1.001579
      py      :     0.917969
      dz2     :     0.003235  d :     0.038633
      dxz     :     0.002748
      dyz     :     0.006599
      dx2y2   :     0.013117
      dxy     :     0.012933
  7 C s       :     3.168720  s :     3.168720
      pz      :     0.993601  p :     2.929484
      px      :     0.908033
      py      :     1.027849
      dz2     :     0.003214  d :     0.038605
      dxz     :     0.006921
      dyz     :     0.002296
      dx2y2   :     0.013515
      dxy     :     0.012659
  8 C s       :     3.219766  s :     3.219766
      pz      :     0.989067  p :     2.967738
      px      :     1.028682
      py      :     0.949988
      dz2     :     0.003252  d :     0.038767
      dxz     :     0.004427
      dyz     :     0.005047
      dx2y2   :     0.013112
      dxy     :     0.012928
  9 C s       :     3.163727  s :     3.163727
      pz      :     1.014727  p :     2.608643
      px      :     0.766872
      py      :     0.827045
      dz2     :     0.003869  d :     0.050596
      dxz     :     0.006458
      dyz     :     0.007930
      dx2y2   :     0.013680
      dxy     :     0.018659
 10 H s       :     0.796072  s :     0.796072
      pz      :     0.004693  p :     0.020217
      px      :     0.008062
      py      :     0.007462
 11 H s       :     0.826810  s :     0.826810
      pz      :     0.004254  p :     0.019557
      px      :     0.008738
      py      :     0.006566
 12 H s       :     0.829967  s :     0.829967
      pz      :     0.004232  p :     0.019431
      px      :     0.010870
      py      :     0.004328
 13 H s       :     0.830244  s :     0.830244
      pz      :     0.004220  p :     0.019394
      px      :     0.003336
      py      :     0.011839
 14 H s       :     0.821703  s :     0.821703
      pz      :     0.004141  p :     0.019878
      px      :     0.009022
      py      :     0.006716


                     *******************************
                     * LOEWDIN POPULATION ANALYSIS *
                     *******************************

----------------------
LOEWDIN ATOMIC CHARGES
----------------------
   0 Br:    0.223004
   1 C :   -0.259959
   2 C :   -0.268013
   3 S :    0.288890
   4 C :   -0.153809
   5 C :   -0.153684
   6 C :   -0.162420
   7 C :   -0.163481
   8 C :   -0.144564
   9 C :   -0.088240
  10 H :    0.186615
  11 H :    0.175331
  12 H :    0.170748
  13 H :    0.170483
  14 H :    0.179101

-------------------------------
LOEWDIN REDUCED ORBITAL CHARGES
-------------------------------
  0 Brs       :     7.660486  s :     7.660486
      pz      :     5.915355  p :    17.042951
      px      :     5.351892
      py      :     5.775704
      dz2     :     2.010066  d :    10.073559
      dxz     :     2.016048
      dyz     :     2.005446
      dx2y2   :     2.018782
      dxy     :     2.023217
  1 C s       :     2.925092  s :     2.925092
      pz      :     1.076029  p :     3.230473
      px      :     1.039810
      py      :     1.114635
      dz2     :     0.007238  d :     0.104394
      dxz     :     0.010486
      dyz     :     0.015611
      dx2y2   :     0.035389
      dxy     :     0.035669
  2 C s       :     2.942421  s :     2.942421
      pz      :     1.048863  p :     3.243875
      px      :     1.087441
      py      :     1.107571
      dz2     :     0.006456  d :     0.081717
      dxz     :     0.008037
      dyz     :     0.012313
      dx2y2   :     0.028253
      dxy     :     0.026658
  3 S s       :     5.347624  s :     5.347624
      pz      :     3.641170  p :     9.977800
      px      :     3.064537
      py      :     3.272093
      dz2     :     0.042428  d :     0.385686
      dxz     :     0.078215
      dyz     :     0.052133
      dx2y2   :     0.122024
      dxy     :     0.090886
  4 C s       :     2.871982  s :     2.871982
      pz      :     1.012081  p :     3.179683
      px      :     1.097436
      py      :     1.070167
      dz2     :     0.007456  d :     0.102144
      dxz     :     0.013072
      dyz     :     0.013107
      dx2y2   :     0.034058
      dxy     :     0.034451
  5 C s       :     2.897560  s :     2.897560
      pz      :     0.993864  p :     3.173215
      px      :     1.076491
      py      :     1.102860
      dz2     :     0.005667  d :     0.082909
      dxz     :     0.007401
      dyz     :     0.009614
      dx2y2   :     0.027631
      dxy     :     0.032597
  6 C s       :     2.905103  s :     2.905103
      pz      :     0.982487  p :     3.175434
      px      :     1.100266
      py      :     1.092681
      dz2     :     0.005523  d :     0.081884
      dxz     :     0.004312
      dyz     :     0.012019
      dx2y2   :     0.030331
      dxy     :     0.029699
  7 C s       :     2.904089  s :     2.904089
      pz      :     0.982670  p :     3.177451
      px      :     1.093672
      py      :     1.101109
      dz2     :     0.005509  d :     0.081941
      dxz     :     0.012646
      dyz     :     0.003406
      dx2y2   :     0.031784
      dxy     :     0.028595
  8 C s       :     2.896761  s :     2.896761
      pz      :     0.978792  p :     3.165718
      px      :     1.113462
      py      :     1.073464
      dz2     :     0.005614  d :     0.082086
      dxz     :     0.007414
      dyz     :     0.009113
      dx2y2   :     0.029456
      dxy     :     0.030488
  9 C s       :     2.847461  s :     2.847461
      pz      :     1.006278  p :     3.136511
      px      :     1.046123
      py      :     1.084109
      dz2     :     0.007441  d :     0.104269
      dxz     :     0.011542
      dyz     :     0.013530
      dx2y2   :     0.030155
      dxy     :     0.041600
 10 H s       :     0.765883  s :     0.765883
      pz      :     0.010542  p :     0.047502
      px      :     0.019349
      py      :     0.017612
 11 H s       :     0.779759  s :     0.779759
      pz      :     0.009193  p :     0.044910
      px      :     0.020378
      py      :     0.015339
 12 H s       :     0.784639  s :     0.784639
      pz      :     0.009130  p :     0.044614
      px      :     0.025798
      py      :     0.009686
 13 H s       :     0.784992  s :     0.784992
      pz      :     0.009077  p :     0.044525
      px      :     0.007303
      py      :     0.028145
 14 H s       :     0.775185  s :     0.775185
      pz      :     0.009002  p :     0.045714
      px      :     0.021222
      py      :     0.015490


                      *****************************
                      * MAYER POPULATION ANALYSIS *
                      *****************************

  NA   - Mulliken gross atomic population
  ZA   - Total nuclear charge
  QA   - Mulliken gross atomic charge
  VA   - Mayer's total valence
  BVA  - Mayer's bonded valence
  FA   - Mayer's free valence

  ATOM       NA         ZA         QA         VA         BVA        FA
  0 Br    35.1085    35.0000    -0.1085     1.1492     1.1492    -0.0000
  1 C      6.1107     6.0000    -0.1107     3.8444     3.8444    -0.0000
  2 C      6.1463     6.0000    -0.1463     3.6464     3.6464     0.0000
  3 S     15.9366    16.0000     0.0634     2.5083     2.5083    -0.0000
  4 C      5.9865     6.0000     0.0135     3.7009     3.7009     0.0000
  5 C      6.1862     6.0000    -0.1862     3.7220     3.7220    -0.0000
  6 C      6.1359     6.0000    -0.1359     3.8379     3.8379     0.0000
  7 C      6.1368     6.0000    -0.1368     3.8284     3.8284     0.0000
  8 C      6.2263     6.0000    -0.2263     3.6966     3.6966    -0.0000
  9 C      5.8230     6.0000     0.1770     3.7228     3.7228    -0.0000
 10 H      0.8163     1.0000     0.1837     0.9579     0.9579     0.0000
 11 H      0.8464     1.0000     0.1536     0.9689     0.9689    -0.0000
 12 H      0.8494     1.0000     0.1506     0.9680     0.9680     0.0000
 13 H      0.8496     1.0000     0.1504     0.9680     0.9680     0.0000
 14 H      0.8416     1.0000     0.1584     0.9682     0.9682    -0.0000

  Mayer bond orders larger than 0.100000
B(  0-Br,  1-C ) :   1.1130 B(  1-C ,  2-C ) :   1.5641 B(  1-C ,  3-S ) :   0.1394 
B(  1-C ,  9-C ) :   1.1248 B(  2-C ,  3-S ) :   1.0767 B(  2-C , 10-H ) :   0.9098 
B(  3-S ,  4-C ) :   1.1342 B(  4-C ,  5-C ) :   1.2629 B(  4-C ,  9-C ) :   1.3709 
B(  5-C ,  6-C ) :   1.4668 B(  5-C , 11-H ) :   0.9311 B(  6-C ,  7-C ) :   1.3502 
B(  6-C , 12-H ) :   0.9517 B(  7-C ,  8-C ) :   1.4706 B(  7-C , 13-H ) :   0.9436 
B(  8-C ,  9-C ) :   1.2702 B(  8-C , 14-H ) :   0.9410 

-------
TIMINGS
-------

Total SCF time: 0 days 0 hours 0 min 5 sec 

Total time                  ....       5.462 sec
Sum of individual times     ....       5.247 sec  ( 96.1%)

Fock matrix formation       ....       3.118 sec  ( 57.1%)
  Split-RI-J                ....       0.692 sec  ( 22.2% of F)
  XC integration            ....       2.232 sec  ( 71.6% of F)
    Basis function eval.    ....       0.299 sec  ( 13.4% of XC)
    Density eval.           ....       0.593 sec  ( 26.6% of XC)
    XC-Functional eval.     ....       0.268 sec  ( 12.0% of XC)
    XC-Potential eval.      ....       0.627 sec  ( 28.1% of XC)
Diagonalization             ....       0.380 sec  (  7.0%)
Density matrix formation    ....       0.011 sec  (  0.2%)
Population analysis         ....       0.019 sec  (  0.3%)
Initial guess               ....       0.064 sec  (  1.2%)
Orbital Transformation      ....       0.000 sec  (  0.0%)
Orbital Orthonormalization  ....       0.000 sec  (  0.0%)
DIIS solution               ....       1.016 sec  ( 18.6%)
SOSCF solution              ....       0.152 sec  (  2.8%)
Grid generation             ....       0.488 sec  (  8.9%)

Maximum memory used throughout the entire SCF-calculation: 29.5 MB


-------------------------------------------------------------------------------
                          DFT DISPERSION CORRECTION                            
                                                                               
                                 DFTD4 V2.5                                    
-------------------------------------------------------------------------------
The R2SCAN3C composite method is recognized
Using three-body term ABC
Active option DFTDOPT                   ...         5   

Starting D4
-------------------------   ----------------
Dispersion correction           -0.006983996
-------------------------   ----------------

------------------   -----------------
gCP correction             0.005323824
------------------   -----------------

-------------------------   --------------------
FINAL SINGLE POINT ENERGY     -3280.101008364248
-------------------------   --------------------



           ************************************************************
           *        Program running with 16 parallel MPI-processes    *
           *              working on a common directory               *
           ************************************************************
------------------------------------------------------------------------------
                         ORCA SCF GRADIENT CALCULATION
------------------------------------------------------------------------------

Gradient of the Kohn-Sham DFT energy:
Kohn-Sham wavefunction type      ... RKS
Hartree-Fock exchange scaling    ...    0.000
Number of operators              ...    1
Number of atoms                  ...   15
Basis set dimensions             ...  240
Integral neglect threshold       ... 2.5e-11
Integral primitive cutoff        ... 2.5e-12
SHARK Integral package           ... ON

Nuc. rep. gradient       (SHARK) ... done (  0.0 sec)
HCore & Overlap gradient (SHARK) ... done (  0.0 sec)
RI-J gradient            (SHARK) ... done (  0.2 sec)
Exchange-correlation gradient    ... done
Dispersion correction            ... Starting D4
Starting D4
Starting D4
Starting D4
Starting D4
Starting D4
Starting D4
Starting D4
Starting D4
Starting D4
Starting D4
Starting D4
Starting D4
Starting D4
Starting D4
Starting D4


------------------- 
Dispersion Gradient 
------------------- 
   1  :   -0.000283029   -0.000048049    0.000000000
   2  :   -0.000043713    0.000069803    0.000000000
   3  :   -0.000084814    0.000128298   -0.000000000
   4  :    0.000081419    0.000350931    0.000000001
   5  :    0.000057690    0.000039065   -0.000000000
   6  :    0.000120833    0.000011222   -0.000000000
   7  :    0.000104365   -0.000064058   -0.000000000
   8  :    0.000078213   -0.000131020    0.000000000
   9  :   -0.000002144   -0.000104187    0.000000000
  10  :   -0.000024958    0.000124657    0.000000000
  11  :   -0.000023556    0.000036606   -0.000000000
  12  :    0.000049854    0.000016830   -0.000000000
  13  :    0.000040576   -0.000020114    0.000000000
  14  :    0.000015010   -0.000046420    0.000000000
  15  :   -0.000021379   -0.000050787    0.000000000

  |G| =    0.002273602

done
gCP correction                   ... done

------------------
CARTESIAN GRADIENT
------------------

   1   Br  :    0.005467146    0.002217939    0.000000011
   2   C   :   -0.006517199    0.007338669    0.000000791
   3   C   :    0.007744382   -0.005489468   -0.000000876
   4   S   :   -0.006442718   -0.011029808    0.000000788
   5   C   :   -0.006242840    0.004690619   -0.000000292
   6   C   :    0.000815456   -0.003401144   -0.000000269
   7   C   :   -0.000041183    0.002843164   -0.000000033
   8   C   :   -0.002218882    0.000494431    0.000000030
   9   C   :    0.001645810   -0.000204119   -0.000000053
  10   C   :    0.007382632    0.001743558   -0.000000165
  11   H   :    0.001733291   -0.002295607   -0.000000062
  12   H   :   -0.002162727   -0.001535325   -0.000000039
  13   H   :   -0.002498882    0.000858679    0.000000181
  14   H   :   -0.000426240    0.002628750   -0.000000049
  15   H   :    0.001826320    0.001452437    0.000000036

Difference to translation invariance:
           :    0.0000643662    0.0003127758    0.0000000002

Difference to rotation invariance:
           :    0.0000000091    0.0000000029   -0.0000013079

Norm of the cartesian gradient     ...    0.0237906672
RMS gradient                       ...    0.0035465033
MAX gradient                       ...    0.0110298078

-------
TIMINGS
-------

Total SCF gradient time            ...        0.772 sec

One electron gradient       ....       0.025 sec  (  3.2%)
RI-J Coulomb gradient       ....       0.245 sec  ( 31.8%)
XC gradient                 ....       0.351 sec  ( 45.5%)

Maximum memory used throughout the entire SCFGRAD-calculation: 31.6 MB
------------------------------------------------------------------------------
                         ORCA GEOMETRY RELAXATION STEP
------------------------------------------------------------------------------

Reading the OPT-File                    .... done
Getting information on internals        .... done
Copying old internal coords+grads       .... done
Making the new internal coordinates     .... (new redundants).... done
Validating the new internal coordinates .... (new redundants).... done
Calculating the B-matrix                .... done
Calculating the G,G- and P matrices     .... done
Transforming gradient to internals      .... done
Projecting the internal gradient        .... done
Number of atoms                         ....  15
Number of internal coordinates          ....  77
Current Energy                          .... -3280.101008364 Eh
Current gradient norm                   ....     0.023790667 Eh/bohr
Maximum allowed component of the step   ....  0.300
Current trust radius                    ....  0.300
Evaluating the initial hessian          ....  (Almloef) done
Projecting the Hessian                  .... done
Forming the augmented Hessian           .... done
Diagonalizing the augmented Hessian     .... done
Last element of RFO vector              ....  0.999115594
Lowest eigenvalues of augmented Hessian:
 -0.000876492  0.016028980  0.020761846  0.022852733  0.025538601
Length of the computed step             ....  0.042085159
The final length of the internal step   ....  0.042085159
Converting the step to cartesian space:
 Initial RMS(Int)=    0.0047960489
Transforming coordinates:
 Iter   0:  RMS(Cart)=    0.0087529809 RMS(Int)=    2.3748227369
 Iter   1:  RMS(Cart)=    0.0000071997 RMS(Int)=    0.0000039412
 Iter   2:  RMS(Cart)=    0.0000000307 RMS(Int)=    0.0000000134
done
Storing new coordinates                 .... done

                                .--------------------.
          ----------------------|Geometry convergence|-------------------------
          Item                value                   Tolerance       Converged
          ---------------------------------------------------------------------
          RMS gradient        0.0024412016            0.0001000000      NO
          MAX gradient        0.0097962088            0.0003000000      NO
          RMS step            0.0047960489            0.0020000000      NO
          MAX step            0.0187078085            0.0040000000      NO
          ........................................................
          Max(Bonds)      0.0099      Max(Angles)    0.23
          Max(Dihed)        0.00      Max(Improp)    0.00
          ---------------------------------------------------------------------

The optimization has not yet converged - more geometry cycles are needed


    ---------------------------------------------------------------------------
                         Redundant Internal Coordinates
                            (Angstroem and degrees)

        Definition                    Value    dE/dq     Step     New-Value
    ----------------------------------------------------------------------------
     1. B(C   1,Br  0)                1.8799 -0.005863  0.0089    1.8889   
     2. B(C   2,C   1)                1.3474 -0.009796  0.0072    1.3546   
     3. B(S   3,C   2)                1.7260 -0.008833  0.0096    1.7356   
     4. B(C   4,S   3)                1.7326 -0.009141  0.0099    1.7425   
     5. B(C   5,C   4)                1.3944 -0.001863  0.0016    1.3960   
     6. B(C   6,C   5)                1.3791 -0.005143  0.0042    1.3832   
     7. B(C   7,C   6)                1.4023 -0.002433  0.0022    1.4045   
     8. B(C   8,C   7)                1.3775 -0.004893  0.0040    1.3814   
     9. B(C   9,C   8)                1.3986 -0.002995  0.0026    1.4012   
    10. B(C   9,C   4)                1.4048 -0.007293  0.0064    1.4112   
    11. B(C   9,C   1)                1.4364 -0.000097  0.0002    1.4366   
    12. B(H  10,C   2)                1.0777 -0.002854  0.0040    1.0817   
    13. B(H  11,C   5)                1.0821 -0.002660  0.0038    1.0859   
    14. B(H  12,C   6)                1.0819 -0.002635  0.0038    1.0857   
    15. B(H  13,C   7)                1.0818 -0.002645  0.0038    1.0856   
    16. B(H  14,C   8)                1.0825 -0.002320  0.0033    1.0858   
    17. A(Br  0,C   1,C   9)          122.48 -0.000137    0.00    122.49   
    18. A(C   2,C   1,C   9)          113.84 -0.001438    0.22    114.06   
    19. A(Br  0,C   1,C   2)          123.68  0.001575   -0.23    123.45   
    20. A(C   1,C   2,S   3)          112.43  0.001278   -0.14    112.30   
    21. A(S   3,C   2,H  10)          120.48 -0.000164   -0.01    120.48   
    22. A(C   1,C   2,H  10)          127.08 -0.001114    0.14    127.22   
    23. A(C   2,S   3,C   4)           91.48  0.000836   -0.13     91.35   
    24. A(C   5,C   4,C   9)          121.21 -0.000403    0.07    121.28   
    25. A(S   3,C   4,C   5)          127.16  0.000664   -0.06    127.10   
    26. A(S   3,C   4,C   9)          111.63 -0.000261   -0.00    111.63   
    27. A(C   4,C   5,C   6)          118.33  0.000113   -0.02    118.30   
    28. A(C   6,C   5,H  11)          121.00  0.000107   -0.01    120.99   
    29. A(C   4,C   5,H  11)          120.67 -0.000220    0.04    120.71   
    30. A(C   7,C   6,H  12)          119.55 -0.000060    0.01    119.57   
    31. A(C   5,C   6,C   7)          120.94 -0.000146    0.01    120.96   
    32. A(C   5,C   6,H  12)          119.50  0.000206   -0.03    119.47   
    33. A(C   6,C   7,C   8)          120.84 -0.000276    0.04    120.88   
    34. A(C   8,C   7,H  13)          119.74  0.000152   -0.02    119.72   
    35. A(C   6,C   7,H  13)          119.42  0.000124   -0.02    119.40   
    36. A(C   7,C   8,C   9)          119.10 -0.000218    0.03    119.13   
    37. A(C   9,C   8,H  14)          119.67  0.000130   -0.02    119.65   
    38. A(C   7,C   8,H  14)          121.23  0.000088   -0.01    121.22   
    39. A(C   4,C   9,C   8)          119.57  0.000931   -0.12    119.45   
    40. A(C   1,C   9,C   8)          129.81 -0.000514    0.08    129.89   
    41. A(C   1,C   9,C   4)          110.61 -0.000416    0.05    110.66   
    42. D(H  10,C   2,C   1,Br  0)      0.00  0.000000   -0.00     -0.00   
    43. D(H  10,C   2,C   1,C   9)    180.00 -0.000000    0.00    180.00   
    44. D(S   3,C   2,C   1,Br  0)    180.00 -0.000000    0.00    180.00   
    45. D(S   3,C   2,C   1,C   9)     -0.00 -0.000000    0.00      0.00   
    46. D(C   4,S   3,C   2,C   1)      0.00  0.000001   -0.00     -0.00   
    47. D(C   4,S   3,C   2,H  10)   -180.00  0.000000   -0.00   -180.00   
    48. D(C   5,C   4,S   3,C   2)    180.00 -0.000000    0.00    180.00   
    49. D(C   9,C   4,S   3,C   2)     -0.00 -0.000000    0.00      0.00   
    50. D(H  11,C   5,C   4,C   9)    180.00  0.000000   -0.00    180.00   
    51. D(H  11,C   5,C   4,S   3)     -0.00 -0.000000    0.00      0.00   
    52. D(C   6,C   5,C   4,C   9)     -0.00 -0.000000    0.00      0.00   
    53. D(C   6,C   5,C   4,S   3)    180.00 -0.000000    0.00    180.00   
    54. D(C   7,C   6,C   5,H  11)   -180.00 -0.000000    0.00   -180.00   
    55. D(C   7,C   6,C   5,C   4)      0.00  0.000000   -0.00     -0.00   
    56. D(H  12,C   6,C   5,C   4)   -180.00  0.000000   -0.00   -180.00   
    57. D(H  12,C   6,C   5,H  11)      0.00  0.000000   -0.00      0.00   
    58. D(H  13,C   7,C   6,H  12)     -0.00 -0.000000    0.00     -0.00   
    59. D(H  13,C   7,C   6,C   5)    180.00 -0.000000    0.00    180.00   
    60. D(C   8,C   7,C   6,H  12)    180.00 -0.000000    0.00    180.00   
    61. D(C   8,C   7,C   6,C   5)     -0.00 -0.000000    0.00     -0.00   
    62. D(H  14,C   8,C   7,H  13)      0.00  0.000000    0.00      0.00   
    63. D(H  14,C   8,C   7,C   6)   -180.00  0.000000    0.00   -180.00   
    64. D(C   9,C   8,C   7,H  13)    180.00 -0.000000    0.00    180.00   
    65. D(C   9,C   8,C   7,C   6)     -0.00 -0.000000    0.00      0.00   
    66. D(C   1,C   9,C   4,C   5)   -180.00  0.000000   -0.00   -180.00   
    67. D(C   1,C   9,C   4,S   3)      0.00  0.000000   -0.00     -0.00   
    68. D(C   8,C   9,C   1,C   2)   -180.00  0.000000   -0.00   -180.00   
    69. D(C   8,C   9,C   1,Br  0)     -0.00 -0.000000    0.00     -0.00   
    70. D(C   4,C   9,C   1,C   2)      0.00  0.000000   -0.00     -0.00   
    71. D(C   8,C   9,C   4,S   3)   -180.00  0.000000   -0.00   -180.00   
    72. D(C   4,C   9,C   1,Br  0)    180.00 -0.000000    0.00    180.00   
    73. D(C   4,C   9,C   8,H  14)    180.00 -0.000000   -0.00    180.00   
    74. D(C   4,C   9,C   8,C   7)      0.00  0.000000   -0.00      0.00   
    75. D(C   1,C   9,C   8,H  14)     -0.00 -0.000000    0.00      0.00   
    76. D(C   1,C   9,C   8,C   7)   -180.00  0.000000    0.00   -180.00   
    77. D(C   8,C   9,C   4,C   5)      0.00  0.000000   -0.00     -0.00   
    ----------------------------------------------------------------------------

         *************************************************************
         *                GEOMETRY OPTIMIZATION CYCLE   2            *
         *************************************************************
---------------------------------
CARTESIAN COORDINATES (ANGSTROEM)
---------------------------------
  Br    -2.414418   -0.424856    0.000001
  C     -0.723210    0.416321   -0.000004
  C     -0.557981    1.760813   -0.000001
  S      1.116148    2.218552   -0.000015
  C      1.615208    0.549064   -0.000005
  C      2.923178    0.061265   -0.000001
  C      3.112125   -1.308995    0.000002
  C      2.017663   -2.189187    0.000002
[...]
      4       0.051226  -0.034013   0.044898   0.062053  -0.064716  -0.129501
      5       0.000000  -0.000000   0.000001   0.000003  -0.000001  -0.000002
      6       0.067328  -0.045362   0.028399   0.092432  -0.001836   0.022880
      7      -0.008216   0.001402  -0.026422   0.058854  -0.038501   0.136294
      8      -0.000002   0.000002  -0.000002  -0.000003   0.000002   0.000001
      9      -0.002463  -0.000287  -0.005406  -0.002913   0.008286   0.000019
     10      -0.008023   0.014115  -0.002401  -0.006604   0.009540  -0.004750
     11       0.000000  -0.000000   0.000000   0.000001  -0.000001   0.000000
     12       0.009512   0.023786   0.134284  -0.045212  -0.336237   0.014891
     13       0.001971  -0.066821  -0.029983  -0.000999  -0.070667   0.117186
     14      -0.000000   0.000002   0.000001  -0.000001  -0.000001  -0.000001
     15       0.024984   0.000824  -0.043419  -0.036647   0.166302   0.127658
     16      -0.041481  -0.026481  -0.041756  -0.025058  -0.164386  -0.139350
     17       0.000001   0.000000  -0.000000  -0.000000   0.000004   0.000003
     18       0.005775   0.003326  -0.032215   0.034819   0.112538  -0.054599
     19       0.048618   0.066187  -0.009159   0.060834   0.232094  -0.022616
     20      -0.000001  -0.000001  -0.000000   0.000000   0.000001  -0.000001
     21       0.025350  -0.059041  -0.026756  -0.046339  -0.258681  -0.108218
     22      -0.033465   0.000734  -0.014611   0.080909  -0.093075   0.056470
     23       0.000001  -0.000000  -0.000000  -0.000001  -0.000003  -0.000001
     24      -0.047459   0.021043  -0.039663   0.084674   0.107492   0.126243
     25       0.010934   0.000421  -0.032191  -0.127681  -0.125882  -0.031449
     26      -0.000001   0.000000  -0.000000   0.000001   0.000001   0.000002
     27      -0.091426   0.037588   0.070477   0.240340   0.065722  -0.102027
     28       0.037567  -0.024187   0.117621  -0.063877   0.338670  -0.098934
     29       0.000000  -0.000000   0.000000  -0.000000  -0.000001  -0.000001
     30      -0.432734   0.244653  -0.156976  -0.370980   0.127296  -0.151494
     31      -0.526747   0.302690  -0.218674  -0.405377   0.084318  -0.016779
     32       0.000010  -0.000006  -0.000001   0.000007   0.000002   0.000013
     33       0.298274   0.122263  -0.459822   0.037946   0.103164  -0.383288
     34      -0.386298  -0.185491   0.468663  -0.125643  -0.080402   0.511369
     35       0.000006   0.000002  -0.000009  -0.000001  -0.000005  -0.000010
     36       0.173956   0.210302   0.054038  -0.079147  -0.095405   0.129928
     37       0.473087   0.595609   0.219795  -0.214169  -0.310093   0.467465
     38       0.000002   0.000004   0.000001   0.000001  -0.000001   0.000001
     39       0.102321  -0.569756   0.111797  -0.508028   0.550491   0.172566
     40      -0.023985  -0.080840   0.006229   0.012363   0.032764   0.119335
     41       0.000001  -0.000009   0.000001  -0.000007   0.000004   0.000001
     42      -0.069643   0.154225   0.341321  -0.283491   0.180871  -0.164909
     43       0.030193  -0.160534  -0.511669   0.337062  -0.215478   0.347335
     44      -0.000000   0.000004   0.000007  -0.000001   0.000008  -0.000003
                 36         37         38         39         40         41    
      0       0.000858   0.001964   0.000515  -0.000423   0.000003  -0.000003
      1       0.000558   0.002492  -0.000911   0.000166   0.000012  -0.000014
      2      -0.000000  -0.000000  -0.000000   0.000000  -0.000000   0.000000
      3      -0.071370  -0.027566  -0.017896   0.037693  -0.000192   0.000225
      4      -0.038039  -0.413119   0.170330  -0.011717   0.000159   0.000069
      5       0.000000  -0.000004   0.000001  -0.000000   0.000000  -0.000000
      6       0.029511   0.060091  -0.030184  -0.019118  -0.000042  -0.000036
      7       0.075063   0.360817  -0.098184  -0.023085  -0.000283   0.000132
      8      -0.000000   0.000002  -0.000001   0.000001  -0.000000  -0.000000
      9       0.001759  -0.006148  -0.003804   0.000066  -0.000019  -0.000110
     10      -0.001289  -0.001104   0.002938   0.000401  -0.000006   0.000051
     11       0.000000   0.000000  -0.000000  -0.000000  -0.000000   0.000000
     12      -0.129530   0.155317   0.231772   0.185066   0.000939   0.001271
     13      -0.019999  -0.079708   0.072765  -0.104440  -0.000601  -0.001195
     14      -0.000001   0.000002   0.000001   0.000003   0.000000  -0.000000
     15       0.016963  -0.148325  -0.142114  -0.193417  -0.030282  -0.041732
     16       0.127666   0.030305  -0.074427   0.261266  -0.022855  -0.032031
     17      -0.000001  -0.000002  -0.000001  -0.000004   0.000000   0.000000
     18       0.032756   0.078565   0.193471   0.062329   0.050141   0.021200
     19      -0.170400   0.136294   0.259564  -0.209760  -0.019819  -0.005959
     20       0.000001   0.000001   0.000002   0.000001   0.000000   0.000000
     21      -0.127061   0.026893  -0.304330  -0.229128  -0.007874   0.005362
     22      -0.005559  -0.087237  -0.133485   0.100868   0.045022  -0.042113
     23      -0.000002   0.000001  -0.000003  -0.000003  -0.000000   0.000000
     24      -0.031458  -0.082530   0.100349   0.249566  -0.019035   0.036553
     25       0.142356   0.059202   0.144707  -0.253582  -0.016266   0.031050
     26      -0.000001  -0.000001   0.000000   0.000004  -0.000000   0.000000
     27       0.155889  -0.029067  -0.079624  -0.134371  -0.000118   0.000816
     28      -0.112952   0.074406  -0.286803   0.199607   0.000441  -0.000641
     29       0.000000  -0.000002   0.000000  -0.000001  -0.000000   0.000000
     30      -0.088678  -0.379818   0.071423   0.022592  -0.001775  -0.000583
     31      -0.030093  -0.002631  -0.019726   0.017303   0.001627   0.000696
     32       0.000003   0.000024  -0.000006  -0.000001   0.000000  -0.000000
     33       0.241376   0.100804  -0.068353   0.262705   0.351348   0.475685
     34      -0.124730  -0.311403  -0.194429  -0.303460   0.277771   0.376867
     35       0.000004   0.000004   0.000000   0.000007  -0.000000  -0.000000
     36       0.254036  -0.167616  -0.071903   0.230106  -0.593742  -0.239631
     37       0.338921  -0.490361  -0.440552   0.171571   0.235495   0.091613
     38       0.000002  -0.000003  -0.000000   0.000002  -0.000005  -0.000002
     39       0.618407  -0.030895   0.483058   0.255270   0.088790  -0.078062
     40       0.117813  -0.115289  -0.012462   0.198059  -0.535358   0.487671
     41       0.000008  -0.000001   0.000004   0.000004   0.000003  -0.000003
     42       0.331997   0.119690   0.244474  -0.246210   0.232717  -0.435584
     43      -0.282955  -0.207426  -0.003075   0.377313   0.188922  -0.353368
     44       0.000002   0.000003   0.000002  -0.000002   0.000001  -0.000001
                 42         43         44    
      0       0.000024   0.000003   0.000039
      1       0.000018  -0.000017   0.000029
      2      -0.000000   0.000000   0.000000
      3      -0.000246   0.000243  -0.001758
      4      -0.000245   0.000136  -0.005971
      5       0.000000  -0.000000  -0.000000
      6       0.000226  -0.000021  -0.060550
      7      -0.000194   0.000058   0.064972
      8       0.000000   0.000000   0.000003
      9      -0.000084  -0.000044   0.000279
     10       0.000041  -0.000005   0.000146
     11      -0.000000  -0.000000  -0.000000
     12       0.002331   0.001211   0.000986
     13      -0.000791  -0.000955  -0.000771
     14       0.000000   0.000000  -0.000000
     15      -0.038229  -0.022551  -0.000414
     16      -0.032020  -0.020349  -0.000181
     17       0.000000   0.000000   0.000000
     18      -0.036980  -0.046917  -0.000068
     19       0.017788   0.017801  -0.000150
     20      -0.000000  -0.000000  -0.000000
     21       0.007337  -0.009081   0.000241
     22      -0.022711   0.055348   0.000144
     23       0.000000  -0.000000  -0.000000
     24      -0.043544   0.032344  -0.000300
     25      -0.034188   0.023198   0.000122
     26      -0.000000   0.000000  -0.000000
     27      -0.000337   0.000631   0.000785
     28       0.002092  -0.001479  -0.000395
     29      -0.000000   0.000000   0.000000
     30      -0.002706  -0.001029   0.710902
     31       0.002024   0.001122  -0.697618
     32       0.000000  -0.000000  -0.000029
     33       0.436554   0.257797   0.002942
     34       0.349242   0.208306   0.002215
     35      -0.000000  -0.000000  -0.000000
     36       0.427958   0.514588   0.000533
     37      -0.172763  -0.201856  -0.000288
     38       0.000004   0.000005  -0.000000
     39      -0.047160   0.099295   0.000035
     40       0.261438  -0.611317  -0.000876
     41      -0.000001   0.000003  -0.000000
     42       0.490235  -0.343515   0.001371
     43       0.394618  -0.273595   0.001226
     44       0.000001  -0.000001  -0.000000


-----------
IR SPECTRUM
-----------

 Mode   freq       eps      Int      T**2         TX        TY        TZ
       cm**-1   L/(mol*cm) km/mol    a.u.
----------------------------------------------------------------------------
  6:    116.78   0.000050    0.25  0.000134  ( 0.000001  0.000001 -0.011558)
  7:    148.35   0.000066    0.34  0.000140  ( 0.010694  0.005032 -0.000001)
  8:    193.18   0.000694    3.51  0.001122  ( 0.000008 -0.000005  0.033492)
  9:    238.28   0.000022    0.11  0.000028  (-0.000009 -0.000009 -0.005308)
 10:    295.20   0.000177    0.89  0.000187  (-0.011422 -0.007518 -0.000000)
 11:    387.17   0.000189    0.95  0.000152  ( 0.003627  0.011785  0.000001)
 12:    415.70   0.000956    4.83  0.000718  (-0.000002 -0.000003  0.026788)
 13:    477.58   0.000118    0.60  0.000077  (-0.000008  0.000002 -0.008792)
 14:    505.13   0.000341    1.72  0.000211  (-0.014286 -0.002562  0.000003)
 15:    549.92   0.000034    0.17  0.000019  (-0.001052 -0.004248  0.000002)
 16:    578.42   0.000028    0.14  0.000015  (-0.000006  0.000013  0.003871)
 17:    712.01   0.003349   16.93  0.001468  (-0.038098  0.004056 -0.000007)
 18:    720.74   0.002779   14.04  0.001203  (-0.000002  0.000016 -0.034688)
 19:    742.19   0.002107   10.65  0.000886  ( 0.025649  0.015105 -0.000003)
 20:    753.06   0.017937   90.65  0.007433  ( 0.000005 -0.000001  0.086215)
 21:    758.17   0.000056    0.28  0.000023  (-0.000013  0.000013 -0.004807)
 22:    824.90   0.004259   21.52  0.001611  (-0.022344 -0.033343  0.000003)
 23:    857.99   0.000180    0.91  0.000065  (-0.000000 -0.000005 -0.008085)
 24:    940.84   0.006231   31.49  0.002067  ( 0.045355  0.003080  0.000003)
 25:    942.47   0.000178    0.90  0.000059  (-0.000010  0.000003  0.007672)
 26:    979.06   0.000000    0.00  0.000000  (-0.000002 -0.000000  0.000382)
 27:   1043.67   0.001701    8.60  0.000509  ( 0.015601 -0.016286  0.000001)
 28:   1078.52   0.002265   11.44  0.000655  (-0.013462  0.021772 -0.000001)
 29:   1152.53   0.000204    1.03  0.000055  ( 0.006208  0.004076 -0.000001)
 30:   1172.62   0.000757    3.82  0.000201  ( 0.013984  0.002413 -0.000000)
 31:   1196.10   0.000084    0.43  0.000022  ( 0.004408 -0.001614  0.000000)
 32:   1278.31   0.003018   15.25  0.000737  (-0.018736 -0.019641  0.000000)
 33:   1340.51   0.005882   29.73  0.001369  (-0.032178 -0.018275 -0.000000)
 34:   1371.27   0.000304    1.54  0.000069  ( 0.008317  0.000206 -0.000000)
 35:   1451.57   0.002798   14.14  0.000601  (-0.000810  0.024511 -0.000001)
 36:   1483.32   0.000387    1.96  0.000081  ( 0.005761 -0.006947  0.000000)
 37:   1527.59   0.001246    6.30  0.000255  (-0.010692 -0.011841  0.000000)
 38:   1593.30   0.000432    2.19  0.000085  ( 0.009165  0.000834 -0.000000)
 39:   1628.16   0.000154    0.78  0.000029  ( 0.004583 -0.002902  0.000001)
 40:   3171.92   0.000071    0.36  0.000007  ( 0.001503  0.002164  0.000000)
 41:   3179.58   0.000337    1.70  0.000033  ( 0.000763 -0.005702  0.000000)
 42:   3187.57   0.001048    5.30  0.000103  (-0.009055 -0.004543 -0.000000)
 43:   3195.63   0.001523    7.70  0.000149  (-0.008233  0.008999 -0.000000)
 44:   3252.61   0.001823    9.21  0.000175  ( 0.006345 -0.011603 -0.000000)

* The epsilon (eps) is given for a Dirac delta lineshape.
** The dipole moment derivative (T) already includes vibrational overlap.

The first frequency considered to be a vibration is 6
The total number of vibrations considered is 39


--------------------------
THERMOCHEMISTRY AT 298.15K
--------------------------

Temperature         ... 298.15 K
Pressure            ... 1.00 atm
Total Mass          ... 213.09 AMU

Throughout the following assumptions are being made:
  (1) The electronic state is orbitally nondegenerate
  (2) There are no thermally accessible electronically excited states
  (3) Hindered rotations indicated by low frequency modes are not
      treated as such but are treated as vibrations and this may
      cause some error
  (4) All equations used are the standard statistical mechanics
      equations for an ideal gas
  (5) All vibrations are strictly harmonic

freq.     116.78  E(vib)   ...       0.44 
freq.     148.35  E(vib)   ...       0.41 
freq.     193.18  E(vib)   ...       0.36 
freq.     238.28  E(vib)   ...       0.32 
freq.     295.20  E(vib)   ...       0.27 
freq.     387.17  E(vib)   ...       0.20 
freq.     415.70  E(vib)   ...       0.18 
freq.     477.58  E(vib)   ...       0.15 
freq.     505.13  E(vib)   ...       0.14 
freq.     549.92  E(vib)   ...       0.12 
freq.     578.42  E(vib)   ...       0.11 
freq.     712.01  E(vib)   ...       0.07 
freq.     720.74  E(vib)   ...       0.07 
freq.     742.19  E(vib)   ...       0.06 
freq.     753.06  E(vib)   ...       0.06 
freq.     758.17  E(vib)   ...       0.06 
freq.     824.90  E(vib)   ...       0.04 
freq.     857.99  E(vib)   ...       0.04 
freq.     940.84  E(vib)   ...       0.03 
freq.     942.47  E(vib)   ...       0.03 
freq.     979.06  E(vib)   ...       0.03 
freq.    1043.67  E(vib)   ...       0.02 
freq.    1078.52  E(vib)   ...       0.02 
freq.    1152.53  E(vib)   ...       0.01 
freq.    1172.62  E(vib)   ...       0.01 
freq.    1196.10  E(vib)   ...       0.01 
freq.    1278.31  E(vib)   ...       0.01 
freq.    1340.51  E(vib)   ...       0.01 
freq.    1371.27  E(vib)   ...       0.01 
freq.    1451.57  E(vib)   ...       0.00 
freq.    1483.32  E(vib)   ...       0.00 
freq.    1527.59  E(vib)   ...       0.00 
freq.    1593.30  E(vib)   ...       0.00 
freq.    1628.16  E(vib)   ...       0.00 
freq.    3171.92  E(vib)   ...       0.00 
freq.    3179.58  E(vib)   ...       0.00 
freq.    3187.57  E(vib)   ...       0.00 
freq.    3195.63  E(vib)   ...       0.00 
freq.    3252.61  E(vib)   ...       0.00 

------------
INNER ENERGY
------------

The inner energy is: U= E(el) + E(ZPE) + E(vib) + E(rot) + E(trans)
    E(el)   - is the total energy from the electronic structure calculation
              = E(kin-el) + E(nuc-el) + E(el-el) + E(nuc-nuc)
    E(ZPE)  - the the zero temperature vibrational energy from the frequency calculation
    E(vib)  - the the finite temperature correction to E(ZPE) due to population
              of excited vibrational states
    E(rot)  - is the rotational thermal energy
    E(trans)- is the translational thermal energy

Summary of contributions to the inner energy U:
Electronic energy                ...  -3280.10173046 Eh
Zero point energy                ...      0.10352436 Eh      64.96 kcal/mol
Thermal vibrational correction   ...      0.00521707 Eh       3.27 kcal/mol
Thermal rotational correction    ...      0.00141627 Eh       0.89 kcal/mol
Thermal translational correction ...      0.00141627 Eh       0.89 kcal/mol
-----------------------------------------------------------------------
Total thermal energy                  -3279.99015648 Eh


Summary of corrections to the electronic energy:
(perhaps to be used in another calculation)
Total thermal correction                  0.00804961 Eh       5.05 kcal/mol
Non-thermal (ZPE) correction              0.10352436 Eh      64.96 kcal/mol
-----------------------------------------------------------------------
Total correction                          0.11157398 Eh      70.01 kcal/mol


--------
ENTHALPY
--------

The enthalpy is H = U + kB*T
                kB is Boltzmann's constant
Total free energy                 ...  -3279.99015648 Eh 
Thermal Enthalpy correction       ...      0.00094421 Eh       0.59 kcal/mol
-----------------------------------------------------------------------
Total Enthalpy                    ...  -3279.98921227 Eh


Note: Only C1 symmetry has been detected, increase convergence thresholds 
      if your molecule has a higher symmetry. Symmetry factor of 1.0 is   
      used for the rotational entropy correction. 
 

Note: Rotational entropy computed according to Herzberg 
Infrared and Raman Spectra, Chapter V,1, Van Nostrand Reinhold, 1945 
Point Group:  C1, Symmetry Number:   1  
Rotational constants in cm-1:     0.047348     0.019575     0.013849 

Vibrational entropy computed according to the QRRHO of S. Grimme
Chem.Eur.J. 2012 18 9955


-------
ENTROPY
-------

The entropy contributions are T*S = T*(S(el)+S(vib)+S(rot)+S(trans))
     S(el)   - electronic entropy
     S(vib)  - vibrational entropy
     S(rot)  - rotational entropy
     S(trans)- translational entropy
The entropies will be listed as multiplied by the temperature to get
units of energy

Electronic entropy                ...      0.00000000 Eh      0.00 kcal/mol
Vibrational entropy               ...      0.00848908 Eh      5.33 kcal/mol
Rotational entropy                ...      0.01482810 Eh      9.30 kcal/mol
Translational entropy             ...      0.01994270 Eh     12.51 kcal/mol
-----------------------------------------------------------------------
Final entropy term                ...      0.04325988 Eh     27.15 kcal/mol

In case the symmetry of your molecule has not been determined correctly
or in case you have a reason to use a different symmetry number we print 
out the resulting rotational entropy values for sn=1,12 :
 --------------------------------------------------------
|  sn= 1 | S(rot)=       0.01482810 Eh      9.30 kcal/mol|
|  sn= 2 | S(rot)=       0.01417365 Eh      8.89 kcal/mol|
|  sn= 3 | S(rot)=       0.01379081 Eh      8.65 kcal/mol|
|  sn= 4 | S(rot)=       0.01351919 Eh      8.48 kcal/mol|
|  sn= 5 | S(rot)=       0.01330850 Eh      8.35 kcal/mol|
|  sn= 6 | S(rot)=       0.01313636 Eh      8.24 kcal/mol|
|  sn= 7 | S(rot)=       0.01299081 Eh      8.15 kcal/mol|
|  sn= 8 | S(rot)=       0.01286473 Eh      8.07 kcal/mol|
|  sn= 9 | S(rot)=       0.01275353 Eh      8.00 kcal/mol|
|  sn=10 | S(rot)=       0.01265405 Eh      7.94 kcal/mol|
|  sn=11 | S(rot)=       0.01256406 Eh      7.88 kcal/mol|
|  sn=12 | S(rot)=       0.01248190 Eh      7.83 kcal/mol|
 --------------------------------------------------------


-------------------
GIBBS FREE ENERGY
-------------------

The Gibbs free energy is G = H - T*S

Total enthalpy                    ...  -3279.98921227 Eh 
Total entropy correction          ...     -0.04325988 Eh    -27.15 kcal/mol
-----------------------------------------------------------------------
Final Gibbs free energy         ...  -3280.03247215 Eh

For completeness - the Gibbs free energy minus the electronic energy
G-E(el)                           ...      0.06925830 Eh     43.46 kcal/mol


Timings for individual modules:

Sum of individual times         ...       78.809 sec (=   1.313 min)
GTO integral calculation        ...        2.787 sec (=   0.046 min)   3.5 %
SCF iterations                  ...       23.484 sec (=   0.391 min)  29.8 %
SCF Gradient evaluation         ...        5.544 sec (=   0.092 min)   7.0 %
Geometry relaxation             ...        0.143 sec (=   0.002 min)   0.2 %
Analytical frequency calculation...       46.851 sec (=   0.781 min)  59.4 %
                             ****ORCA TERMINATED NORMALLY****
TOTAL RUN TIME: 0 days 0 hours 1 minutes 20 seconds 851 msec
