Job Start Time: Thu Apr 18 14:08:54 MDT 2024
SLURM Job ID: 254466
SLURM Job Name: arbr_25_r2scan3c
SLURM Job Nodes: node18
SLURM Memory / CPU: 8000

                                 *****************
                                 * O   R   C   A *
                                 *****************

                                            #,                                       
                                            ###                                      
                                            ####                                     
                                            #####                                    
                                            ######                                   
                                           ########,                                 
                                     ,,################,,,,,                         
                               ,,#################################,,                 
                          ,,##########################################,,             
                       ,#########################################, ''#####,          
                    ,#############################################,,   '####,        
                  ,##################################################,,,,####,       
                ,###########''''           ''''###############################       
              ,#####''   ,,,,##########,,,,          '''####'''          '####       
            ,##' ,,,,###########################,,,                        '##       
           ' ,,###''''                  '''############,,,                           
         ,,##''                                '''############,,,,        ,,,,,,###''
      ,#''                                            '''#######################'''  
     '                                                          ''''####''''         
             ,#######,   #######,   ,#######,      ##                                
            ,#'     '#,  ##    ##  ,#'     '#,    #''#        ######   ,####,        
            ##       ##  ##   ,#'  ##            #'  '#       #        #'  '#        
            ##       ##  #######   ##           ,######,      #####,   #    #        
            '#,     ,#'  ##    ##  '#,     ,#' ,#      #,         ##   #,  ,#        
             '#######'   ##     ##  '#######'  #'      '#     #####' # '####'        



                  #######################################################
                  #                        -***-                        #
                  #          Department of theory and spectroscopy      #
                  #    Directorship and core code : Frank Neese         #
                  #        Max Planck Institute fuer Kohlenforschung    #
                  #                Kaiser Wilhelm Platz 1               #
                  #                 D-45470 Muelheim/Ruhr               #
                  #                      Germany                        #
                  #                                                     #
                  #                  All rights reserved                #
                  #                        -***-                        #
                  #######################################################


                         Program Version 5.0.3 -  RELEASE  -


 With contributions from (in alphabetic order):
   Daniel Aravena         : Magnetic Suceptibility
   Michael Atanasov       : Ab Initio Ligand Field Theory (pilot matlab implementation)
   Alexander A. Auer      : GIAO ZORA, VPT2 properties, NMR spectrum
   Ute Becker             : Parallelization
   Giovanni Bistoni       : ED, misc. LED, open-shell LED, HFLD
   Martin Brehm           : Molecular dynamics
   Dmytro Bykov           : SCF Hessian
   Vijay G. Chilkuri      : MRCI spin determinant printing, contributions to CSF-ICE
   Dipayan Datta          : RHF DLPNO-CCSD density
   Achintya Kumar Dutta   : EOM-CC, STEOM-CC
   Dmitry Ganyushin       : Spin-Orbit,Spin-Spin,Magnetic field MRCI
   Miquel Garcia          : C-PCM and meta-GGA Hessian, CC/C-PCM, Gaussian charge scheme
   Yang Guo               : DLPNO-NEVPT2, F12-NEVPT2, CIM, IAO-localization
   Andreas Hansen         : Spin unrestricted coupled pair/coupled cluster methods
   Benjamin Helmich-Paris : MC-RPA, TRAH-SCF, COSX integrals
   Lee Huntington         : MR-EOM, pCC
   Robert Izsak           : Overlap fitted RIJCOSX, COSX-SCS-MP3, EOM
   Marcus Kettner         : VPT2
   Christian Kollmar      : KDIIS, OOCD, Brueckner-CCSD(T), CCSD density, CASPT2, CASPT2-K
   Simone Kossmann        : Meta GGA functionals, TD-DFT gradient, OOMP2, MP2 Hessian
   Martin Krupicka        : Initial AUTO-CI
   Lucas Lang             : DCDCAS
   Marvin Lechner         : AUTO-CI (C++ implementation), FIC-MRCC
   Dagmar Lenk            : GEPOL surface, SMD
   Dimitrios Liakos       : Extrapolation schemes; Compound Job, initial MDCI parallelization
   Dimitrios Manganas     : Further ROCIS development; embedding schemes
   Dimitrios Pantazis     : SARC Basis sets
   Anastasios Papadopoulos: AUTO-CI, single reference methods and gradients
   Taras Petrenko         : DFT Hessian,TD-DFT gradient, ASA, ECA, R-Raman, ABS, FL, XAS/XES, NRVS
   Peter Pinski           : DLPNO-MP2, DLPNO-MP2 Gradient
   Christoph Reimann      : Effective Core Potentials
   Marius Retegan         : Local ZFS, SOC
   Christoph Riplinger    : Optimizer, TS searches, QM/MM, DLPNO-CCSD(T), (RO)-DLPNO pert. Triples
   Tobias Risthaus        : Range-separated hybrids, TD-DFT gradient, RPA, STAB
   Michael Roemelt        : Original ROCIS implementation
   Masaaki Saitow         : Open-shell DLPNO-CCSD energy and density
   Barbara Sandhoefer     : DKH picture change effects
   Avijit Sen             : IP-ROCIS
   Kantharuban Sivalingam : CASSCF convergence, NEVPT2, FIC-MRCI
   Bernardo de Souza      : ESD, SOC TD-DFT
   Georgi Stoychev        : AutoAux, RI-MP2 NMR, DLPNO-MP2 response
   Willem Van den Heuvel  : Paramagnetic NMR
   Boris Wezisla          : Elementary symmetry handling
   Frank Wennmohs         : Technical directorship


 We gratefully acknowledge several colleagues who have allowed us to
 interface, adapt or use parts of their codes:
   Stefan Grimme, W. Hujo, H. Kruse, P. Pracht,  : VdW corrections, initial TS optimization,
                  C. Bannwarth, S. Ehlert          DFT functionals, gCP, sTDA/sTD-DF
   Ed Valeev, F. Pavosevic, A. Kumar             : LibInt (2-el integral package), F12 methods
   Garnet Chan, S. Sharma, J. Yang, R. Olivares  : DMRG
   Ulf Ekstrom                                   : XCFun DFT Library
   Mihaly Kallay                                 : mrcc  (arbitrary order and MRCC methods)
   Jiri Pittner, Ondrej Demel                    : Mk-CCSD
   Frank Weinhold                                : gennbo (NPA and NBO analysis)
   Christopher J. Cramer and Donald G. Truhlar   : smd solvation model
   Lars Goerigk                                  : TD-DFT with DH, B97 family of functionals
   V. Asgeirsson, H. Jonsson                     : NEB implementation
   FAccTs GmbH                                   : IRC, NEB, NEB-TS, DLPNO-Multilevel, CI-OPT
                                                   MM, QMMM, 2- and 3-layer-ONIOM, Crystal-QMMM,
                                                   LR-CPCM, SF, NACMEs, symmetry and pop. for TD-DFT,
                                                   nearIR, NL-DFT gradient (VV10), updates on ESD,
                                                   ML-optimized integration grids
   S Lehtola, MJT Oliveira, MAL Marques          : LibXC Library
   Liviu Ungur et al                             : ANISO software


 Your calculation uses the libint2 library for the computation of 2-el integrals
 For citations please refer to: http://libint.valeyev.net

 Your ORCA version has been built with support for libXC version: 5.1.0
 For citations please refer to: https://tddft.org/programs/libxc/

 This ORCA versions uses:
   CBLAS   interface :  Fast vector & matrix operations
   LAPACKE interface :  Fast linear algebra routines
   SCALAPACK package :  Parallel linear algebra routines
   Shared memory     :  Shared parallel matrices
   BLAS/LAPACK       :  OpenBLAS 0.3.15  USE64BITINT DYNAMIC_ARCH NO_AFFINITY Zen SINGLE_THREADED
        Core in use  :  Zen
   Copyright (c) 2011-2014, The OpenBLAS Project


Your calculation utilizes the geometrical counterpoise correction gCP
Please cite in your paper:
H.Kruse, S. Grimme J.Chem.Phys., 136, (2012), 154101 
   

Your calculation utilizes the atom-pairwise dispersion correction
based on tight binding partial charges (D4)
Cite in your paper:
E.Caldeweyher, C.Bannwarth, S.Grimme, J.Chem.Phys., (2017), 147, 034112.
E.Caldeweyher, S.Ehlert, A.Hansen, H.Neugebauer, S.Grimme, J.Chem.Phys., (2018), in progress.
   

================================================================================

----- Orbital basis set information -----
Your calculation utilizes the basis: def2-mTZVPP
   Stefan Grimme, Andreas Hansen, Sebastian Ehlert, and Jan-Michael Mewes 
   J. Chem. Phys. 154, 000000 (2021). DOI: 10.1063/5.0040021

----- AuxJ basis set information -----
Your calculation utilizes the basis: def2-mTZVPP/J
   Stefan Grimme, Andreas Hansen, Sebastian Ehlert, and Jan-Michael Mewes 
   J. Chem. Phys. 154, 000000 (2021). DOI: 10.1063/5.0040021

================================================================================
                                        WARNINGS
                       Please study these warnings very carefully!
================================================================================

Using LibXC functional ID 497 : Re-regularized SCAN exchange by Furness et al
[ 1]  J. W. Furness, A. D. Kaplan, J. Ning, J. P. Perdew, and J. Sun, J. Phys. Chem. Lett. 11, 8208 (2020)
[ 2]  J. W. Furness, A. D. Kaplan, J. Ning, J. P. Perdew, and J. Sun, J. Phys. Chem. Lett. 11, 9248 (2020)
Using LibXC functional ID 498 : Re-regularized SCAN correlation by Furness et al
[ 1]  J. W. Furness, A. D. Kaplan, J. Ning, J. P. Perdew, and J. Sun, J. Phys. Chem. Lett. 11, 8208 (2020)
[ 2]  J. W. Furness, A. D. Kaplan, J. Ning, J. P. Perdew, and J. Sun, J. Phys. Chem. Lett. 11, 9248 (2020)
Using LibXC functional ID 497 : Re-regularized SCAN exchange by Furness et al
[ 1]  J. W. Furness, A. D. Kaplan, J. Ning, J. P. Perdew, and J. Sun, J. Phys. Chem. Lett. 11, 8208 (2020)
[ 2]  J. W. Furness, A. D. Kaplan, J. Ning, J. P. Perdew, and J. Sun, J. Phys. Chem. Lett. 11, 9248 (2020)
Using LibXC functional ID 498 : Re-regularized SCAN correlation by Furness et al
[ 1]  J. W. Furness, A. D. Kaplan, J. Ning, J. P. Perdew, and J. Sun, J. Phys. Chem. Lett. 11, 8208 (2020)
[ 2]  J. W. Furness, A. D. Kaplan, J. Ning, J. P. Perdew, and J. Sun, J. Phys. Chem. Lett. 11, 9248 (2020)

WARNING: Geometry Optimization
  ===> : Switching off AutoStart
         For restart on a previous wavefunction, please use MOREAD

INFO   : the flag for use of the SHARK integral package has been found!

================================================================================
                                       INPUT FILE
================================================================================
NAME = /tmp/254466/arbr_25_r2scan3c.inp
|  1> %maxcore 4000
|  2> %PAL NPROCS 16 END
|  3> ! r2scan-3c opt freq
|  4> 
|  5> # arbr_25_rdkit_conf_1_r2scan3ccreated by GaussianPrep
|  6> 
|  7> * xyz 0 1
|  8> C  4.130458  -1.213661  1.264208
|  9> C  4.159939  -0.366401  0.000079
| 10> C  5.372452  0.551237  0.000265
| 11> C  4.130882  -1.213708  -1.264027
| 12> O  3.044836  0.575059  -0.00013
| 13> C  1.781714  0.134861  -0.000325
| 14> O  1.428965  -1.017235  -0.000178
| 15> N  0.943527  1.220255  -0.000193
| 16> C  -0.447669  1.234573  -0.000088
| 17> C  -1.229901  0.075825  -0.000086
| 18> C  -2.597708  0.256731  0.000014
| 19> Br  -3.72753  -1.258021  0.000025
| 20> C  -3.157353  1.524901  0.000106
| 21> C  -2.276236  2.592637  0.000091
| 22> N  -0.955556  2.463424  -0.000001
| 23> H  5.04955  -1.798443  1.320473
| 24> H  3.281723  -1.892782  1.2673
| 25> H  4.080067  -0.571309  2.144555
| 26> H  6.28538  -0.044119  0.000424
| 27> H  5.368499  1.186564  -0.885582
| 28> H  5.368207  1.18659  0.886092
| 29> H  5.049995  -1.798488  -1.319963
| 30> H  3.28215  -1.892832  -1.267379
| 31> H  4.080783  -0.57139  -2.144415
| 32> H  1.369714  2.134737  -0.000172
| 33> H  -0.777797  -0.901515  -0.000161
| 34> H  -4.226223  1.674558  0.000184
| 35> H  -2.654184  3.608838  0.000161
| 36> 
| 37> *
| 38> 
| 39>                          ****END OF INPUT****
================================================================================

                       *****************************
                       * Geometry Optimization Run *
                       *****************************

Geometry optimization settings:
Update method            Update   .... BFGS
Choice of coordinates    CoordSys .... Z-matrix Internals
Initial Hessian          InHess   .... Almoef's Model

Convergence Tolerances:
Energy Change            TolE     ....  5.0000e-06 Eh
Max. Gradient            TolMAXG  ....  3.0000e-04 Eh/bohr
RMS Gradient             TolRMSG  ....  1.0000e-04 Eh/bohr
Max. Displacement        TolMAXD  ....  4.0000e-03 bohr
RMS Displacement         TolRMSD  ....  2.0000e-03 bohr
Strict Convergence                ....  False
------------------------------------------------------------------------------
                        ORCA OPTIMIZATION COORDINATE SETUP
------------------------------------------------------------------------------

The optimization will be done in new redundant internal coordinates
Making redundant internal coordinates   ...  (new redundants) done
Evaluating the initial hessian          ...  (Almloef) done
Evaluating the coordinates              ...  done
Calculating the B-matrix                .... done
Calculating the G-matrix                .... done
Diagonalizing the G-matrix              .... done
Small eigenvalue found = 4.092e-03
Small eigenvalue found = 1.665e-02
Small eigenvalue found = 1.736e-02
Small eigenvalue found = 2.813e-02
The first mode is                       ....   57
The number of degrees of freedom        ....   78

    -----------------------------------------------------------------
                    Redundant Internal Coordinates


    -----------------------------------------------------------------
         Definition                    Initial Value    Approx d2E/dq
    -----------------------------------------------------------------
      1. B(C   1,C   0)                  1.5221         0.384597   
      2. B(C   2,C   1)                  1.5206         0.386690   
      3. B(C   3,C   1)                  1.5221         0.384599   
      4. B(O   4,C   1)                  1.4594         0.433688   
      5. B(C   5,O   4)                  1.3376         0.678313   
      6. B(O   6,C   5)                  1.2049         1.104609   
      7. B(N   7,C   5)                  1.3714         0.599251   
      8. B(C   8,N   7)                  1.3913         0.556993   
      9. B(C   9,C   8)                  1.3981         0.606558   
     10. B(C  10,C   9)                  1.3797         0.648847   
     11. B(Br 11,C  10)                  1.8897         0.334958   
     12. B(C  12,C  10)                  1.3862         0.633658   
     13. B(C  13,C  12)                  1.3844         0.637898   
     14. B(N  14,C  13)                  1.3270         0.705359   
     15. B(N  14,C   8)                  1.3297         0.698437   
     16. B(H  15,C   0)                  1.0908         0.359030   
     17. B(H  16,C   0)                  1.0870         0.364092   
     18. B(H  17,C   0)                  1.0909         0.358849   
     19. B(H  18,C   2)                  1.0899         0.360230   
     20. B(H  19,C   2)                  1.0901         0.359930   
     21. B(H  20,C   2)                  1.0901         0.359930   
     22. B(H  21,C   3)                  1.0908         0.359031   
     23. B(H  22,C   3)                  1.0870         0.364092   
     24. B(H  23,C   3)                  1.0909         0.358849   
     25. B(H  24,N   7)                  1.0089         0.434434   
     26. B(H  25,C   9)                  1.0768         0.377932   
     27. B(H  26,C  12)                  1.0793         0.374542   
     28. B(H  27,C  13)                  1.0842         0.367843   
     29. A(H  15,C   0,H  16)          108.8327         0.291208   
     30. A(C   1,C   0,H  17)          110.0804         0.325686   
     31. A(C   1,C   0,H  16)          111.4235         0.326465   
     32. A(H  15,C   0,H  17)          108.2372         0.290545   
     33. A(H  16,C   0,H  17)          109.2386         0.291184   
     34. A(C   1,C   0,H  15)          108.9617         0.325713   
     35. A(C   0,C   1,C   3)          112.3039         0.366987   
     36. A(C   3,C   1,O   4)          110.1458         0.372299   
     37. A(C   0,C   1,O   4)          110.1461         0.372298   
     38. A(C   2,C   1,O   4)          102.7076         0.372646   
     39. A(C   2,C   1,C   3)          110.5644         0.367329   
     40. A(C   0,C   1,C   2)          110.5644         0.367328   
     41. A(H  18,C   2,H  19)          108.7542         0.290834   
     42. A(C   1,C   2,H  18)          109.7714         0.326183   
     43. A(H  19,C   2,H  20)          108.7012         0.290796   
     44. A(C   1,C   2,H  20)          110.4084         0.326138   
     45. A(C   1,C   2,H  19)          110.4084         0.326138   
     46. A(H  18,C   2,H  20)          108.7542         0.290834   
     47. A(H  22,C   3,H  23)          109.2385         0.291184   
     48. A(H  21,C   3,H  22)          108.8328         0.291208   
     49. A(H  21,C   3,H  23)          108.2371         0.290545   
     50. A(C   1,C   3,H  23)          110.0804         0.325686   
     51. A(C   1,C   3,H  21)          108.9616         0.325714   
     52. A(C   1,C   3,H  22)          111.4236         0.326465   
     53. A(C   1,O   4,C   5)          120.6128         0.408470   
     54. A(O   6,C   5,N   7)          125.2996         0.472839   
     55. A(O   4,C   5,N   7)          108.4634         0.432728   
     56. A(O   4,C   5,O   6)          126.2370         0.483758   
     57. A(C   5,N   7,C   8)          128.2665         0.417735   
     58. A(C   5,N   7,H  24)          117.3357         0.356840   
     59. A(C   8,N   7,H  24)          114.3978         0.352443   
     60. A(N   7,C   8,C   9)          123.4323         0.421372   
     61. A(C   9,C   8,N  14)          123.5226         0.438840   
     62. A(N   7,C   8,N  14)          113.0451         0.429331   
     63. A(C   8,C   9,C  10)          116.4878         0.435911   
     64. A(C  10,C   9,H  25)          122.3588         0.358572   
     65. A(C   8,C   9,H  25)          121.1534         0.354491   
     66. A(C   9,C  10,C  12)          121.3461         0.439360   
     67. A(C   9,C  10,Br 11)          119.1843         0.418052   
     68. A(Br 11,C  10,C  12)          119.4696         0.416292   
     69. A(C  13,C  12,H  26)          121.5597         0.356989   
     70. A(C  10,C  12,H  26)          121.7823         0.356585   
     71. A(C  10,C  12,C  13)          116.6579         0.438013   
     72. A(N  14,C  13,H  27)          115.9892         0.359792   
     73. A(C  12,C  13,H  27)          120.0686         0.355896   
     74. A(C  12,C  13,N  14)          123.9422         0.443642   
     75. A(C   8,N  14,C  13)          118.0434         0.448016   
     76. D(C   2,C   1,C   0,H  17)     60.0369         0.011775   
     77. D(O   4,C   1,C   0,H  15)   -171.3364         0.011775   
     78. D(C   2,C   1,C   0,H  15)    -58.5131         0.011775   
     79. D(C   3,C   1,C   0,H  17)   -175.9487         0.011775   
     80. D(O   4,C   1,C   0,H  16)     68.5661         0.011775   
     81. D(C   3,C   1,C   0,H  15)     65.5014         0.011775   
     82. D(O   4,C   1,C   0,H  17)    -52.7865         0.011775   
     83. D(C   3,C   1,C   0,H  16)    -54.5961         0.011775   
     84. D(C   2,C   1,C   0,H  16)   -178.6105         0.011775   
     85. D(H  19,C   2,C   1,C   3)     57.3822         0.011897   
     86. D(H  18,C   2,C   1,O   4)   -179.9995         0.011897   
     87. D(H  18,C   2,C   1,C   3)    -62.5035         0.011897   
     88. D(H  18,C   2,C   1,C   0)     62.5041         0.011897   
     89. D(H  19,C   2,C   1,O   4)    -60.1138         0.011897   
     90. D(H  20,C   2,C   1,O   4)     60.1147         0.011897   
     91. D(H  20,C   2,C   1,C   3)    177.6107         0.011897   
     92. D(H  20,C   2,C   1,C   0)    -57.3816         0.011897   
     93. D(H  19,C   2,C   1,C   0)   -177.6101         0.011897   
     94. D(H  23,C   3,C   1,C   2)    -60.0370         0.011775   
     95. D(H  23,C   3,C   1,C   0)    175.9485         0.011775   
     96. D(H  22,C   3,C   1,O   4)    -68.5664         0.011775   
     97. D(H  22,C   3,C   1,C   2)    178.6104         0.011775   
     98. D(H  22,C   3,C   1,C   0)     54.5959         0.011775   
     99. D(H  21,C   3,C   1,O   4)    171.3360         0.011775   
    100. D(H  21,C   3,C   1,C   2)     58.5128         0.011775   
    101. D(H  23,C   3,C   1,O   4)     52.7862         0.011775   
    102. D(H  21,C   3,C   1,C   0)    -65.5016         0.011775   
    103. D(C   5,O   4,C   1,C   3)     62.2080         0.014813   
    104. D(C   5,O   4,C   1,C   2)   -179.9995         0.014813   
    105. D(C   5,O   4,C   1,C   0)    -62.2069         0.014813   
    106. D(O   6,C   5,O   4,C   1)      0.0102         0.034255   
    107. D(N   7,C   5,O   4,C   1)    179.9868         0.034255   
    108. D(H  24,N   7,C   5,O   6)    179.9890         0.028931   
    109. D(H  24,N   7,C   5,O   4)      0.0122         0.028931   
    110. D(C   8,N   7,C   5,O   6)     -0.0113         0.028931   
    111. D(C   8,N   7,C   5,O   4)   -179.9882         0.028931   
    112. D(N  14,C   8,N   7,H  24)      0.0010         0.024762   
    113. D(N  14,C   8,N   7,C   5)   -179.9986         0.024762   
    114. D(C   9,C   8,N   7,H  24)   -179.9995         0.024762   
    115. D(C   9,C   8,N   7,C   5)      0.0009         0.024762   
    116. D(H  25,C   9,C   8,N  14)    179.9998         0.025393   
    117. D(H  25,C   9,C   8,N   7)      0.0004         0.025393   
    118. D(C  10,C   9,C   8,N  14)     -0.0000         0.025393   
    119. D(C  10,C   9,C   8,N   7)   -179.9995         0.025393   
    120. D(C  12,C  10,C   9,H  25)   -179.9998         0.029306   
    121. D(C  12,C  10,C   9,C   8)      0.0001         0.029306   
    122. D(Br 11,C  10,C   9,H  25)      0.0002         0.029306   
    123. D(Br 11,C  10,C   9,C   8)   -180.0000         0.029306   
    124. D(H  26,C  12,C  10,Br 11)     -0.0000         0.027860   
    125. D(H  26,C  12,C  10,C   9)    180.0000         0.027860   
    126. D(C  13,C  12,C  10,Br 11)   -179.9999         0.027860   
    127. D(C  13,C  12,C  10,C   9)      0.0001         0.027860   
    128. D(H  27,C  13,C  12,H  26)      0.0002         0.028259   
    129. D(H  27,C  13,C  12,C  10)   -179.9999         0.028259   
    130. D(N  14,C  13,C  12,H  26)    179.9999         0.028259   
    131. D(N  14,C  13,C  12,C  10)     -0.0002         0.028259   
    132. D(C   8,N  14,C  13,H  27)    180.0000         0.037313   
    133. D(C   8,N  14,C  13,C  12)      0.0002         0.037313   
    134. D(C  13,N  14,C   8,C   9)     -0.0001         0.036515   
    135. D(C  13,N  14,C   8,N   7)    179.9994         0.036515   
    -----------------------------------------------------------------

Number of atoms                         .... 28
Number of degrees of freedom            .... 135

         *************************************************************
         *                GEOMETRY OPTIMIZATION CYCLE   1            *
         *************************************************************
---------------------------------
CARTESIAN COORDINATES (ANGSTROEM)
---------------------------------
  C      4.130458   -1.213661    1.264208
  C      4.159939   -0.366401    0.000079
  C      5.372452    0.551237    0.000265
  C      4.130882   -1.213708   -1.264027
  O      3.044836    0.575059   -0.000130
  C      1.781714    0.134861   -0.000325
  O      1.428965   -1.017235   -0.000178
  N      0.943527    1.220255   -0.000193
  C     -0.447669    1.234573   -0.000088
  C     -1.229901    0.075825   -0.000086
  C     -2.597708    0.256731    0.000014
  Br    -3.727530   -1.258021    0.000025
  C     -3.157353    1.524901    0.000106
  C     -2.276236    2.592637    0.000091
  N     -0.955556    2.463424   -0.000001
  H      5.049550   -1.798443    1.320473
  H      3.281723   -1.892782    1.267300
  H      4.080067   -0.571309    2.144555
  H      6.285380   -0.044119    0.000424
  H      5.368499    1.186564   -0.885582
  H      5.368207    1.186590    0.886092
  H      5.049995   -1.798488   -1.319963
  H      3.282150   -1.892832   -1.267379
  H      4.080783   -0.571390   -2.144415
  H      1.369714    2.134737   -0.000172
  H     -0.777797   -0.901515   -0.000161
  H     -4.226223    1.674558    0.000184
  H     -2.654184    3.608838    0.000161

----------------------------
CARTESIAN COORDINATES (A.U.)
----------------------------
  NO LB      ZA    FRAG     MASS         X           Y           Z
   0 C     6.0000    0    12.011    7.805434   -2.293487    2.389007
   1 C     6.0000    0    12.011    7.861145   -0.692398    0.000149
   2 C     6.0000    0    12.011   10.152463    1.041687    0.000501
   3 C     6.0000    0    12.011    7.806236   -2.293576   -2.388665
   4 O     8.0000    0    15.999    5.753906    1.086704   -0.000246
   5 C     6.0000    0    12.011    3.366952    0.254850   -0.000614
   6 O     8.0000    0    15.999    2.700353   -1.922296   -0.000336
   7 N     7.0000    0    14.007    1.783008    2.305948   -0.000365
   8 C     6.0000    0    12.011   -0.845972    2.333005   -0.000166
   9 C     6.0000    0    12.011   -2.324176    0.143288   -0.000163
  10 C     6.0000    0    12.011   -4.908957    0.485151    0.000026
  11 Br   35.0000    0    79.900   -7.044011   -2.377315    0.000047
  12 C     6.0000    0    12.011   -5.966532    2.881645    0.000200
  13 C     6.0000    0    12.011   -4.301463    4.899374    0.000172
  14 N     7.0000    0    14.007   -1.805739    4.655197   -0.000002
  15 H     1.0000    0     1.008    9.542267   -3.398565    2.495332
  16 H     1.0000    0     1.008    6.201558   -3.576840    2.394850
  17 H     1.0000    0     1.008    7.710209   -1.079618    4.052622
  18 H     1.0000    0     1.008   11.877647   -0.083373    0.000801
  19 H     1.0000    0     1.008   10.144993    2.242281   -1.673507
  20 H     1.0000    0     1.008   10.144441    2.242330    1.674471
  21 H     1.0000    0     1.008    9.543108   -3.398650   -2.494369
  22 H     1.0000    0     1.008    6.202365   -3.576934   -2.394999
  23 H     1.0000    0     1.008    7.711562   -1.079771   -4.052357
  24 H     1.0000    0     1.008    2.588384    4.034068   -0.000325
  25 H     1.0000    0     1.008   -1.469823   -1.703616   -0.000304
  26 H     1.0000    0     1.008   -7.986404    3.164456    0.000348
  27 H     1.0000    0     1.008   -5.015681    6.819715    0.000304

--------------------------------
INTERNAL COORDINATES (ANGSTROEM)
--------------------------------
 C      0   0   0     0.000000000000     0.00000000     0.00000000
 C      1   0   0     1.522084349043     0.00000000     0.00000000
 C      2   1   0     1.520607545953   110.56440561     0.00000000
 C      2   1   3     1.522083256834   112.30390731   124.01442068
 O      2   1   3     1.459384005630   110.14609749   247.17664190
 C      5   2   1     1.337629060731   120.61279680   297.79311428
 O      6   5   2     1.204888821355   126.23699490     0.00000000
 N      6   5   2     1.371363409031   108.46338649   179.98680497
 C      8   6   5     1.391269681465   128.26649261   180.01180450
 C      9   8   6     1.398064315163   123.43230928     0.00000000
 C     10   9   8     1.379718442323   116.48776358   180.00052847
 Br    11  10   9     1.889701397922   119.18428609   180.00004042
 C     11  10   9     1.386166542443   121.34613297     0.00000000
 C     13  11  10     1.384350870845   116.65794492     0.00000000
 N     14  13  11     1.326985934452   123.94219400     0.00000000
 H      1   2   3     1.090809718610   108.96170468   301.48693374
 H      1   2   3     1.086998616986   111.42352205   181.38947944
 H      1   2   3     1.090947379663   110.08041309    60.03685680
 H      3   2   1     1.089901979630   109.77137885    62.50413979
 H      3   2   1     1.090128859607   110.40844746   182.38987923
 H      3   2   1     1.090128858697   110.40842300   302.61839312
 H      4   2   1     1.090809420231   108.96163990   294.49838668
 H      4   2   1     1.086998919551   111.42364748    54.59594949
 H      4   2   1     1.090946998469   110.08044822   175.94853856
 H      8   6   5     1.008916591069   117.33567194     0.00000000
 H     10   9   8     1.076843307098   121.15342102     0.00000000
 H     13  11  10     1.079296206161   121.78233720   179.99996882
 H     14  13  11     1.084209005683   120.06857295   180.00006714

---------------------------
INTERNAL COORDINATES (A.U.)
---------------------------
 C      0   0   0     0.000000000000     0.00000000     0.00000000
 C      1   0   0     2.876322572419     0.00000000     0.00000000
 C      2   1   0     2.873531819025   110.56440561     0.00000000
 C      2   1   3     2.876320508443   112.30390731   124.01442068
 O      2   1   3     2.757836094867   110.14609749   247.17664190
 C      5   2   1     2.527752593557   120.61279680   297.79311428
 O      6   5   2     2.276909894184   126.23699490     0.00000000
 N      6   5   2     2.591501273149   108.46338649   179.98680497
 C      8   6   5     2.629118676398   128.26649261   180.01180450
 C      9   8   6     2.641958673266   123.43230928     0.00000000
 C     10   9   8     2.607289997910   116.48776358   180.00052847
 Br    11  10   9     3.571018116961   119.18428609   180.00004042
 C     11  10   9     2.619475141222   121.34613297     0.00000000
 C     13  11  10     2.616044019153   116.65794492     0.00000000
 N     14  13  11     2.507639999680   123.94219400     0.00000000
 H      1   2   3     2.061331632392   108.96170468   301.48693374
 H      1   2   3     2.054129694055   111.42352205   181.38947944
 H      1   2   3     2.061591774082   110.08041309    60.03685680
 H      3   2   1     2.059616254319   109.77137885    62.50413979
 H      3   2   1     2.060044995340   110.40844746   182.38987923
 H      3   2   1     2.060044993621   110.40842300   302.61839312
 H      4   2   1     2.061331068538   108.96163990   294.49838668
 H      4   2   1     2.054130265819   111.42364748    54.59594949
 H      4   2   1     2.061591053730   110.08044822   175.94853856
 H      8   6   5     1.906576049090   117.33567194     0.00000000
 H     10   9   8     2.034938939561   121.15342102     0.00000000
 H     13  11  10     2.039574247024   121.78233720   179.99996882
 H     14  13  11     2.048858092673   120.06857295   180.00006714

---------------------
BASIS SET INFORMATION
---------------------
There are 5 groups of distinct atoms

 Group   1 Type C   : 11s6p1d contracted to 5s3p1d pattern {62111/411/1}
 Group   2 Type O   : 11s6p2d contracted to 5s3p2d pattern {62111/411/11}
 Group   3 Type N   : 11s6p2d contracted to 5s3p2d pattern {62111/411/11}
 Group   4 Type Br  : 17s13p7d contracted to 6s5p3d pattern {842111/64111/511}
 Group   5 Type H   : 4s1p contracted to 2s1p pattern {31/1}

Atom   0C    basis set group =>   1
Atom   1C    basis set group =>   1
Atom   2C    basis set group =>   1
Atom   3C    basis set group =>   1
Atom   4O    basis set group =>   2
Atom   5C    basis set group =>   1
Atom   6O    basis set group =>   2
Atom   7N    basis set group =>   3
Atom   8C    basis set group =>   1
Atom   9C    basis set group =>   1
Atom  10C    basis set group =>   1
Atom  11Br   basis set group =>   4
Atom  12C    basis set group =>   1
Atom  13C    basis set group =>   1
Atom  14N    basis set group =>   3
Atom  15H    basis set group =>   5
Atom  16H    basis set group =>   5
Atom  17H    basis set group =>   5
Atom  18H    basis set group =>   5
Atom  19H    basis set group =>   5
Atom  20H    basis set group =>   5
Atom  21H    basis set group =>   5
Atom  22H    basis set group =>   5
Atom  23H    basis set group =>   5
Atom  24H    basis set group =>   5
Atom  25H    basis set group =>   5
Atom  26H    basis set group =>   5
Atom  27H    basis set group =>   5
---------------------------------
AUXILIARY/J BASIS SET INFORMATION
---------------------------------
There are 5 groups of distinct atoms

 Group   1 Type C   : 8s3p3d contracted to 6s3p3d pattern {311111/111/111}
 Group   2 Type O   : 8s3p3d contracted to 6s3p3d pattern {311111/111/111}
 Group   3 Type N   : 8s3p3d contracted to 6s3p3d pattern {311111/111/111}
 Group   4 Type Br  : 19s5p5d3f1g contracted to 8s4p3d2f1g pattern {121111111/2111/311/21/1}
 Group   5 Type H   : 5s2p1d contracted to 3s1p1d pattern {311/2/1}

Atom   0C    basis set group =>   1
Atom   1C    basis set group =>   1
Atom   2C    basis set group =>   1
Atom   3C    basis set group =>   1
Atom   4O    basis set group =>   2
Atom   5C    basis set group =>   1
Atom   6O    basis set group =>   2
Atom   7N    basis set group =>   3
Atom   8C    basis set group =>   1
Atom   9C    basis set group =>   1
Atom  10C    basis set group =>   1
Atom  11Br   basis set group =>   4
Atom  12C    basis set group =>   1
Atom  13C    basis set group =>   1
Atom  14N    basis set group =>   3
Atom  15H    basis set group =>   5
Atom  16H    basis set group =>   5
Atom  17H    basis set group =>   5
Atom  18H    basis set group =>   5
Atom  19H    basis set group =>   5
Atom  20H    basis set group =>   5
Atom  21H    basis set group =>   5
Atom  22H    basis set group =>   5
Atom  23H    basis set group =>   5
Atom  24H    basis set group =>   5
Atom  25H    basis set group =>   5
Atom  26H    basis set group =>   5
Atom  27H    basis set group =>   5


           ************************************************************
           *        Program running with 16 parallel MPI-processes    *
           *              working on a common directory               *
           ************************************************************
------------------------------------------------------------------------------
                           ORCA GTO INTEGRAL CALCULATION
                           -- RI-GTO INTEGRALS CHOSEN --
------------------------------------------------------------------------------
------------------------------------------------------------------------------
                   ___                                                        
                  /   \      - P O W E R E D   B Y -                         
                 /     \                                                     
                 |  |  |   _    _      __       _____    __    __             
                 |  |  |  | |  | |    /  \     |  _  \  |  |  /  |          
                  \  \/   | |  | |   /    \    | | | |  |  | /  /          
                 / \  \   | |__| |  /  /\  \   | |_| |  |  |/  /          
                |  |  |   |  __  | /  /__\  \  |    /   |      \           
                |  |  |   | |  | | |   __   |  |    \   |  |\   \          
                \     /   | |  | | |  |  |  |  | |\  \  |  | \   \       
                 \___/    |_|  |_| |__|  |__|  |_| \__\ |__|  \__/        
                                                                              
                      - O R C A' S   B I G   F R I E N D -                    
                                      &                                       
                       - I N T E G R A L  F E E D E R -                       
                                                                              
 v1 FN, 2020, v2 2021                                                         
------------------------------------------------------------------------------


Reading SHARK input file /tmp/254466/arbr_25_r2scan3c.SHARKINP.tmp ... ok
----------------------
SHARK INTEGRAL PACKAGE
----------------------

Number of atoms                             ...     28
Number of basis functions                   ...    387
Number of shells                            ...    183
Maximum angular momentum                    ...      2
Integral batch strategy                     ... SHARK/LIBINT Hybrid
RI-J (if used) integral strategy            ... SPLIT-RIJ (Revised 2003 algorithm where possible)
Printlevel                                  ...      1
Contraction scheme used                     ... SEGMENTED contraction
Coulomb Range Separation                    ... NOT USED
Exchange Range Separation                   ... NOT USED
Finite Nucleus Model                        ... NOT USED
Auxiliary Coulomb fitting basis             ... AVAILABLE
   # of basis functions in Aux-J            ...    621
   # of shells in Aux-J                     ...    251
   Maximum angular momentum in Aux-J        ...      4
Auxiliary J/K fitting basis                 ... NOT available
Auxiliary Correlation fitting basis         ... NOT available
Auxiliary 'external' fitting basis          ... NOT available
Integral threshold                          ...     2.500000e-11
Primitive cut-off                           ...     2.500000e-12
Primitive pair pre-selection threshold      ...     2.500000e-12

Calculating pre-screening integrals         ... done (  0.0 sec) Dimension = 183
Organizing shell pair data                  ... done (  0.1 sec)
Shell pair information
Total number of shell pairs                 ...     16836
Shell pairs after pre-screening             ...     12309
Total number of primitive shell pairs       ...     64674
Primitive shell pairs kept                  ...     30455
          la=0 lb=0:   3662 shell pairs
          la=1 lb=0:   4579 shell pairs
          la=1 lb=1:   1436 shell pairs
          la=2 lb=0:   1516 shell pairs
          la=2 lb=1:    943 shell pairs
          la=2 lb=2:    173 shell pairs

Calculating one electron integrals          ... done (  0.0 sec)
Calculating RI/J V-Matrix + Cholesky decomp.... done (  0.0 sec)
Calculating Nuclear repulsion               ... done (  0.0 sec) ENN=   1280.317271184617 Eh

SHARK setup successfully completed in   0.2 seconds

Maximum memory used throughout the entire GTOINT-calculation: 24.7 MB


           ************************************************************
           *        Program running with 16 parallel MPI-processes    *
           *              working on a common directory               *
           ************************************************************
-------------------------------------------------------------------------------
                                 ORCA SCF
-------------------------------------------------------------------------------

------------
SCF SETTINGS
------------
Hamiltonian:
 Density Functional     Method          .... DFT(GTOs)
  Functional kind                       .... Exchange
  Functional name                       .... Re-regularized SCAN exchange by Furness et al
  Functional family                     .... MGGA
  Functional refs                              
    [ 0] J. W. Furness, A. D. Kaplan, J. Ning, J. P. Perdew, and J. Sun, J. Phys. Chem. Lett. 11, 8208 (2020)
    [ 1] J. W. Furness, A. D. Kaplan, J. Ning, J. P. Perdew, and J. Sun, J. Phys. Chem. Lett. 11, 9248 (2020)
  Functional external parameters         .... 8
 Parameter  0 :         c1 parameter
 Parameter  1 :         c2 parameter
 Parameter  2 :          d parameter
 Parameter  3 :         k1 parameter
 Parameter  4 :       taur parameter
 Parameter  5 :     alphar parameter
 Parameter  6 :        eta parameter
 Parameter  7 :        dp2 parameter
  Functional kind                       .... Correlation
  Functional name                       .... Re-regularized SCAN correlation by Furness et al
  Functional family                     .... MGGA
  Functional refs                              
    [ 0] J. W. Furness, A. D. Kaplan, J. Ning, J. P. Perdew, and J. Sun, J. Phys. Chem. Lett. 11, 8208 (2020)
    [ 1] J. W. Furness, A. D. Kaplan, J. Ning, J. P. Perdew, and J. Sun, J. Phys. Chem. Lett. 11, 9248 (2020)
  Functional external parameters         .... 0
 Gradients option       PostSCFGGA      .... off
   Density functional embedding theory  .... OFF
 RI-approximation to the Coulomb term is turned on
   Number of AuxJ basis functions       .... 621


General Settings:
 Integral files         IntName         .... /tmp/254466/arbr_25_r2scan3c
 Hartree-Fock type      HFTyp           .... RHF
 Total Charge           Charge          ....    0
 Multiplicity           Mult            ....    1
 Number of Electrons    NEL             ....  138
 Basis Dimension        Dim             ....  387
 Nuclear Repulsion      ENuc            ....   1280.3172711846 Eh

Convergence Acceleration:
 DIIS                   CNVDIIS         .... on
   Start iteration      DIISMaxIt       ....    12
   Startup error        DIISStart       ....  0.200000
   # of expansion vecs  DIISMaxEq       ....     5
   Bias factor          DIISBfac        ....   1.050
   Max. coefficient     DIISMaxC        ....  10.000
 Trust-Rad. Augm. Hess. CNVTRAH         .... auto
   Auto Start mean grad. ratio tolernc. ....  1.125000
   Auto Start start iteration           ....    20
   Auto Start num. interpolation iter.  ....    10
   Max. Number of Micro iterations      ....    16
   Max. Number of Macro iterations      .... Maxiter - #DIIS iter
   Number of Davidson start vectors     ....     2
   Converg. threshold I  (grad. norm)   ....   1.000e-05
   Converg. threshold II (energy diff.) ....   1.000e-08
   Grad. Scal. Fac. for Micro threshold ....   0.100
   Minimum threshold for Micro iter.    ....   0.010
   NR start threshold (gradient norm)   ....   0.001
   Initial trust radius                 ....   0.400
   Minimum AH scaling param. (alpha)    ....   1.000
   Maximum AH scaling param. (alpha)    .... 1000.000
   Orbital update algorithm             .... Taylor
   White noise on init. David. guess    .... on
   Maximum white noise                  ....   0.010
   Quad. conv. algorithm                .... NR
   COSX micro iterations for RIJONX calc.... off
 SOSCF                  CNVSOSCF        .... on
   Start iteration      SOSCFMaxIt      ....   150
   Startup grad/error   SOSCFStart      ....  0.003300
 Level Shifting         CNVShift        .... on
   Level shift para.    LevelShift      ....    0.2500
   Turn off err/grad.   ShiftErr        ....    0.0010
 Zerner damping         CNVZerner       .... off
 Static damping         CNVDamp         .... on
   Fraction old density DampFac         ....    0.7000
   Max. Damping (<1)    DampMax         ....    0.9800
   Min. Damping (>=0)   DampMin         ....    0.0000
   Turn off err/grad.   DampErr         ....    0.1000
 Fernandez-Rico         CNVRico         .... off

SCF Procedure:
 Maximum # iterations   MaxIter         ....   125
 SCF integral mode      SCFMode         .... Direct
   Integral package                     .... SHARK and LIBINT hybrid scheme
 Reset frequency        DirectResetFreq ....    20
 Integral Threshold     Thresh          ....  2.500e-11 Eh
 Primitive CutOff       TCut            ....  2.500e-12 Eh

Convergence Tolerance:
 Convergence Check Mode ConvCheckMode   .... Total+1el-Energy
 Convergence forced     ConvForced      .... 0
 Energy Change          TolE            ....  1.000e-08 Eh
 1-El. energy change                    ....  1.000e-05 Eh
 Orbital Gradient       TolG            ....  1.000e-05
 Orbital Rotation angle TolX            ....  1.000e-05
 DIIS Error             TolErr          ....  5.000e-07


Diagonalization of the overlap matrix:
Smallest eigenvalue                        ... 4.260e-05
Time for diagonalization                   ...    0.015 sec
Threshold for overlap eigenvalues          ... 1.000e-08
Number of eigenvalues below threshold      ... 0
Time for construction of square roots      ...    0.010 sec
Total time needed                          ...    0.026 sec

Time for model grid setup =    0.117 sec

------------------------------
INITIAL GUESS: MODEL POTENTIAL
------------------------------
Loading Hartree-Fock densities                     ... done
Calculating cut-offs                               ... done
Initializing the effective Hamiltonian             ... done
Setting up the integral package (SHARK)            ... done
Starting the Coulomb interaction                   ... done (   0.0 sec)
Reading the grid                                   ... done
Mapping shells                                     ... done
Starting the XC term evaluation                    ... done (   0.0 sec)
  promolecular density results
     # of electrons  =    137.993307296
     EX              =   -173.733325790
     EC              =     -5.183016513
     EX+EC           =   -178.916342303
Transforming the Hamiltonian                       ... done (   0.0 sec)
Diagonalizing the Hamiltonian                      ... done (   0.0 sec)
Back transforming the eigenvectors                 ... done (   0.0 sec)
Now organizing SCF variables                       ... done
                      ------------------
                      INITIAL GUESS DONE (   0.2 sec)
                      ------------------
-------------------
DFT GRID GENERATION
-------------------

General Integration Accuracy     IntAcc      ... 4.388
Radial Grid Type                 RadialGrid  ... OptM3 with GC (2021)
Angular Grid (max. ang.)         AngularGrid ... 4 (Lebedev-302)
Angular grid pruning method      GridPruning ... 4 (adaptive)
Weight generation scheme         WeightScheme... Becke
Basis function cutoff            BFCut       ... 1.0000e-11
Integration weight cutoff        WCut        ... 1.0000e-14
Angular grids for H and He will be reduced by one unit
Partially contracted basis set               ... off
Rotationally invariant grid construction     ... off

Total number of grid points                  ...   137364
Total number of batches                      ...     2159
Average number of points per batch           ...       63
Average number of grid points per atom       ...     4906
Time for grid setup =    0.628 sec

--------------
SCF ITERATIONS
--------------
ITER       Energy         Delta-E        Max-DP      RMS-DP      [F,P]     Damp
               ***  Starting incremental Fock matrix formation  ***
  0  -3222.4708029785   0.000000000000 0.09063872  0.00153333  0.2827128 0.7000
  1  -3222.6802137379  -0.209410759353 0.09800955  0.00128407  0.1032986 0.7000
                               ***Turning on DIIS***
  2  -3222.7544968178  -0.074283079961 0.13029090  0.00198701  0.0386347 0.0000
  3  -3222.8676151171  -0.113118299255 0.12130396  0.00116619  0.0522084 0.0000
  4  -3222.8990151530  -0.031400035905 0.04867507  0.00045844  0.0196717 0.0000
  5  -3222.9011403796  -0.002125226565 0.01879137  0.00017340  0.0101067 0.0000
                      *** Initiating the SOSCF procedure ***
                           *** Shutting down DIIS ***
                      *** Re-Reading the Fockian *** 
                      *** Removing any level shift *** 
ITER      Energy       Delta-E        Grad      Rot      Max-DP    RMS-DP
  6  -3222.90135973  -0.0002193534  0.000650  0.000650  0.007116  0.000065
               *** Restarting incremental Fock matrix formation ***
  7  -3222.90137463  -0.0000148992  0.000268  0.001084  0.002558  0.000031
  8  -3222.90136622   0.0000084138  0.000667  0.001109  0.001681  0.000020
  9  -3222.90137927  -0.0000130555  0.000110  0.000593  0.000608  0.000008
 10  -3222.90137843   0.0000008444  0.000171  0.000235  0.000318  0.000004
 11  -3222.90137963  -0.0000012022  0.000028  0.000099  0.000204  0.000003
 12  -3222.90137958   0.0000000514  0.000049  0.000067  0.000081  0.000001
 13  -3222.90137966  -0.0000000779  0.000010  0.000058  0.000078  0.000001
 14  -3222.90137966  -0.0000000050  0.000018  0.000037  0.000051  0.000001
 15  -3222.90137967  -0.0000000042  0.000003  0.000004  0.000038  0.000000
 16  -3222.90137965   0.0000000173  0.000003  0.000003  0.000019  0.000000
                  ***Gradient check signals convergence***
              ***Rediagonalizing the Fockian in SOSCF/NRSCF***

               *****************************************************
               *                     SUCCESS                       *
               *           SCF CONVERGED AFTER  17 CYCLES          *
               *****************************************************


----------------
TOTAL SCF ENERGY
----------------

Total Energy       :        -3222.90137965 Eh          -87699.60510 eV

Components:
Nuclear Repulsion  :         1280.31727118 Eh           34839.20414 eV
Electronic Energy  :        -4503.21865083 Eh         -122538.80924 eV
One Electron Energy:        -7009.16295376 Eh         -190729.02045 eV
Two Electron Energy:         2505.94430293 Eh           68190.21121 eV

Virial components:
Potential Energy   :        -6439.75027512 Eh         -175234.51374 eV
Kinetic Energy     :         3216.84889547 Eh           87534.90863 eV
Virial Ratio       :            2.00188149


DFT components:
N(Alpha)           :       69.000063048223 electrons
N(Beta)            :       69.000063048223 electrons
N(Total)           :      138.000126096446 electrons
E(X)               :     -176.229510700911 Eh       
E(C)               :       -5.095054851205 Eh       
E(XC)              :     -181.324565552116 Eh       
DFET-embed. en.    :        0.000000000000 Eh       

---------------
SCF CONVERGENCE
---------------

  Last Energy change         ...    2.7931e-09  Tolerance :   1.0000e-08
  Last MAX-Density change    ...    3.3354e-05  Tolerance :   1.0000e-07
  Last RMS-Density change    ...    3.0786e-07  Tolerance :   5.0000e-09
  Last Orbital Gradient      ...    7.4907e-07  Tolerance :   1.0000e-05
  Last Orbital Rotation      ...    1.6655e-06  Tolerance :   1.0000e-05

             **** THE GBW FILE WAS UPDATED (/tmp/254466/arbr_25_r2scan3c.gbw) ****
             **** DENSITY /tmp/254466/arbr_25_r2scan3c.scfp WAS UPDATED ****
             **** ENERGY FILE WAS UPDATED (/tmp/254466/arbr_25_r2scan3c.en.tmp) ****
             **** THE GBW FILE WAS UPDATED (/tmp/254466/arbr_25_r2scan3c.gbw) ****
             **** DENSITY /tmp/254466/arbr_25_r2scan3c.scfp WAS UPDATED ****
----------------
ORBITAL ENERGIES
----------------

  NO   OCC          E(Eh)            E(eV) 
   0   2.0000    -482.236491    -13122.3220 
   1   2.0000     -62.307814     -1695.4818 
   2   2.0000     -56.089108     -1526.2622 
   3   2.0000     -56.085134     -1526.1541 
   4   2.0000     -56.085094     -1526.1530 
   5   2.0000     -18.999074      -516.9911 
   6   2.0000     -18.934378      -515.2306 
   7   2.0000     -14.211546      -386.7158 
   8   2.0000     -14.165601      -385.4656 
   9   2.0000     -10.189000      -277.2568 
  10   2.0000     -10.126821      -275.5648 
  11   2.0000     -10.112700      -275.1806 
  12   2.0000     -10.112065      -275.1633 
  13   2.0000     -10.082070      -274.3471 
  14   2.0000     -10.051597      -273.5179 
  15   2.0000     -10.051403      -273.5126 
  16   2.0000     -10.030808      -272.9522 
  17   2.0000     -10.024953      -272.7928 
  18   2.0000     -10.024950      -272.7928 
  19   2.0000      -8.639814      -235.1013 
  20   2.0000      -6.447602      -175.4482 
  21   2.0000      -6.433788      -175.0723 
  22   2.0000      -6.433053      -175.0523 
  23   2.0000      -2.545131       -69.2565 
  24   2.0000      -2.541950       -69.1700 
  25   2.0000      -2.541427       -69.1557 
  26   2.0000      -2.530862       -68.8683 
  27   2.0000      -2.530860       -68.8682 
  28   2.0000      -1.085231       -29.5306 
  29   2.0000      -0.995785       -27.0967 
  30   2.0000      -0.957530       -26.0557 
  31   2.0000      -0.895909       -24.3789 
  32   2.0000      -0.820561       -22.3286 
  33   2.0000      -0.789952       -21.4957 
  34   2.0000      -0.740638       -20.1538 
  35   2.0000      -0.732968       -19.9451 
  36   2.0000      -0.670218       -18.2376 
  37   2.0000      -0.668064       -18.1789 
  38   2.0000      -0.652202       -17.7473 
  39   2.0000      -0.612731       -16.6733 
  40   2.0000      -0.582212       -15.8428 
  41   2.0000      -0.550420       -14.9777 
  42   2.0000      -0.505705       -13.7609 
  43   2.0000      -0.487395       -13.2627 
  44   2.0000      -0.476413       -12.9639 
  45   2.0000      -0.465106       -12.6562 
  46   2.0000      -0.457258       -12.4426 
  47   2.0000      -0.440189       -11.9782 
  48   2.0000      -0.424446       -11.5498 
  49   2.0000      -0.423935       -11.5359 
  50   2.0000      -0.417971       -11.3736 
  51   2.0000      -0.400833       -10.9072 
  52   2.0000      -0.390571       -10.6280 
  53   2.0000      -0.378218       -10.2918 
  54   2.0000      -0.369970       -10.0674 
  55   2.0000      -0.365937        -9.9577 
  56   2.0000      -0.365229        -9.9384 
  57   2.0000      -0.344033        -9.3616 
  58   2.0000      -0.336576        -9.1587 
  59   2.0000      -0.335027        -9.1166 
  60   2.0000      -0.325617        -8.8605 
  61   2.0000      -0.315088        -8.5740 
  62   2.0000      -0.296585        -8.0705 
  63   2.0000      -0.278526        -7.5791 
  64   2.0000      -0.272247        -7.4082 
  65   2.0000      -0.251928        -6.8553 
  66   2.0000      -0.249114        -6.7787 
  67   2.0000      -0.248828        -6.7710 
  68   2.0000      -0.225174        -6.1273 
  69   0.0000      -0.063584        -1.7302 
  70   0.0000      -0.049619        -1.3502 
  71   0.0000      -0.025332        -0.6893 
  72   0.0000       0.021789         0.5929 
  73   0.0000       0.058079         1.5804 
  74   0.0000       0.078672         2.1408 
  75   0.0000       0.087391         2.3780 
  76   0.0000       0.104322         2.8388 
  77   0.0000       0.105380         2.8675 
  78   0.0000       0.107805         2.9335 
  79   0.0000       0.124773         3.3952 
  80   0.0000       0.128750         3.5035 
  81   0.0000       0.132600         3.6082 
  82   0.0000       0.134068         3.6482 
  83   0.0000       0.143563         3.9065 
  84   0.0000       0.144576         3.9341 
  85   0.0000       0.147228         4.0063 
  86   0.0000       0.147554         4.0151 
  87   0.0000       0.160195         4.3591 
  88   0.0000       0.166282         4.5248 
  89   0.0000       0.170906         4.6506 
  90   0.0000       0.177171         4.8211 
  91   0.0000       0.182571         4.9680 
  92   0.0000       0.189081         5.1452 
  93   0.0000       0.195116         5.3094 
  94   0.0000       0.198957         5.4139 
  95   0.0000       0.202152         5.5008 
  96   0.0000       0.206090         5.6080 
  97   0.0000       0.210575         5.7300 
  98   0.0000       0.216800         5.8994 
  99   0.0000       0.229041         6.2325 
 100   0.0000       0.237560         6.4643 
 101   0.0000       0.239233         6.5099 
 102   0.0000       0.243977         6.6389 
 103   0.0000       0.247096         6.7238 
 104   0.0000       0.250498         6.8164 
 105   0.0000       0.254283         6.9194 
 106   0.0000       0.264007         7.1840 
 107   0.0000       0.272310         7.4099 
 108   0.0000       0.272874         7.4253 
 109   0.0000       0.279358         7.6017 
 110   0.0000       0.299214         8.1420 
 111   0.0000       0.300163         8.1679 
 112   0.0000       0.301841         8.2135 
 113   0.0000       0.304941         8.2979 
 114   0.0000       0.315830         8.5942 
 115   0.0000       0.318220         8.6592 
 116   0.0000       0.321359         8.7446 
 117   0.0000       0.330822         9.0021 
 118   0.0000       0.334322         9.0974 
 119   0.0000       0.340349         9.2614 
 120   0.0000       0.341848         9.3022 
 121   0.0000       0.359806         9.7908 
 122   0.0000       0.362510         9.8644 
 123   0.0000       0.372959        10.1487 
 124   0.0000       0.388037        10.5590 
 125   0.0000       0.398000        10.8301 
 126   0.0000       0.420275        11.4363 
 127   0.0000       0.422089        11.4856 
 128   0.0000       0.428075        11.6485 
 129   0.0000       0.440075        11.9751 
 130   0.0000       0.456626        12.4254 
 131   0.0000       0.458701        12.4819 
 132   0.0000       0.465211        12.6590 
 133   0.0000       0.480088        13.0639 
 134   0.0000       0.484907        13.1950 
 135   0.0000       0.486237        13.2312 
 136   0.0000       0.501237        13.6394 
 137   0.0000       0.504544        13.7293 
 138   0.0000       0.509105        13.8534 
 139   0.0000       0.518862        14.1190 
 140   0.0000       0.539351        14.6765 
 141   0.0000       0.548228        14.9180 
 142   0.0000       0.551225        14.9996 
 143   0.0000       0.567900        15.4533 
 144   0.0000       0.574615        15.6361 
 145   0.0000       0.577532        15.7154 
 146   0.0000       0.595129        16.1943 
 147   0.0000       0.606066        16.4919 
 148   0.0000       0.608507        16.5583 
 149   0.0000       0.615925        16.7602 
 150   0.0000       0.623181        16.9576 
 151   0.0000       0.633049        17.2262 
 152   0.0000       0.634130        17.2556 
 153   0.0000       0.651341        17.7239 
 154   0.0000       0.657768        17.8988 
 155   0.0000       0.671834        18.2815 
 156   0.0000       0.678042        18.4505 
 157   0.0000       0.679612        18.4932 
 158   0.0000       0.688926        18.7466 
 159   0.0000       0.692956        18.8563 
 160   0.0000       0.712982        19.4012 
 161   0.0000       0.721681        19.6379 
 162   0.0000       0.735913        20.0252 
 163   0.0000       0.738911        20.1068 
 164   0.0000       0.758422        20.6377 
 165   0.0000       0.767524        20.8854 
 166   0.0000       0.784767        21.3546 
 167   0.0000       0.788920        21.4676 
 168   0.0000       0.811034        22.0694 
 169   0.0000       0.819865        22.3097 
 170   0.0000       0.826116        22.4798 
 171   0.0000       0.829040        22.5593 
 172   0.0000       0.869721        23.6663 
 173   0.0000       0.884281        24.0625 
 174   0.0000       0.890370        24.2282 
 175   0.0000       0.930006        25.3067 
 176   0.0000       0.967035        26.3144 
 177   0.0000       0.974680        26.5224 
 178   0.0000       1.012003        27.5380 
 179   0.0000       1.036013        28.1913 
 180   0.0000       1.063182        28.9306 
 181   0.0000       1.064349        28.9624 
 182   0.0000       1.076541        29.2942 
 183   0.0000       1.095310        29.8049 
 184   0.0000       1.105954        30.0945 
 185   0.0000       1.108920        30.1752 
 186   0.0000       1.112741        30.2792 
 187   0.0000       1.116974        30.3944 
 188   0.0000       1.136334        30.9212 
 189   0.0000       1.140540        31.0357 
 190   0.0000       1.162412        31.6308 
 191   0.0000       1.183453        32.2034 
 192   0.0000       1.188526        32.3414 
 193   0.0000       1.224923        33.3319 
 194   0.0000       1.251310        34.0499 
 195   0.0000       1.273875        34.6639 
 196   0.0000       1.292603        35.1735 
 197   0.0000       1.298899        35.3449 
 198   0.0000       1.311537        35.6887 
 199   0.0000       1.319920        35.9169 
 200   0.0000       1.330578        36.2069 
 201   0.0000       1.334067        36.3018 
 202   0.0000       1.343264        36.5521 
 203   0.0000       1.353465        36.8296 
 204   0.0000       1.361953        37.0606 
 205   0.0000       1.365973        37.1700 
 206   0.0000       1.369628        37.2695 
 207   0.0000       1.378886        37.5214 
 208   0.0000       1.388979        37.7960 
 209   0.0000       1.398971        38.0679 
 210   0.0000       1.411420        38.4067 
 211   0.0000       1.412202        38.4280 
 212   0.0000       1.429066        38.8869 
 213   0.0000       1.433830        39.0165 
 214   0.0000       1.443131        39.2696 
 215   0.0000       1.456504        39.6335 
 216   0.0000       1.460870        39.7523 
 217   0.0000       1.476095        40.1666 
 218   0.0000       1.481306        40.3084 
 219   0.0000       1.482068        40.3291 
 220   0.0000       1.501384        40.8547 
 221   0.0000       1.501950        40.8701 
 222   0.0000       1.510412        41.1004 
 223   0.0000       1.526873        41.5483 
 224   0.0000       1.537658        41.8418 
 225   0.0000       1.547709        42.1153 
 226   0.0000       1.549817        42.1727 
 227   0.0000       1.575596        42.8741 
 228   0.0000       1.595999        43.4293 
 229   0.0000       1.617509        44.0147 
 230   0.0000       1.662554        45.2404 
 231   0.0000       1.680090        45.7176 
 232   0.0000       1.689193        45.9653 
 233   0.0000       1.705962        46.4216 
 234   0.0000       1.716817        46.7170 
 235   0.0000       1.718950        46.7750 
 236   0.0000       1.730633        47.0929 
 237   0.0000       1.734578        47.2003 
 238   0.0000       1.771659        48.2093 
 239   0.0000       1.777064        48.3564 
 240   0.0000       1.800235        48.9869 
 241   0.0000       1.808657        49.2160 
 242   0.0000       1.819873        49.5213 
 243   0.0000       1.837649        50.0050 
 244   0.0000       1.844395        50.1885 
 245   0.0000       1.867856        50.8269 
 246   0.0000       1.888091        51.3776 
 247   0.0000       1.897210        51.6257 
 248   0.0000       1.906199        51.8703 
 249   0.0000       1.927906        52.4610 
 250   0.0000       1.931955        52.5712 
 251   0.0000       1.932008        52.5726 
 252   0.0000       1.971228        53.6399 
 253   0.0000       1.986629        54.0589 
 254   0.0000       2.017275        54.8928 
 255   0.0000       2.059075        56.0303 
 256   0.0000       2.070594        56.3437 
 257   0.0000       2.076473        56.5037 
 258   0.0000       2.089734        56.8646 
 259   0.0000       2.092237        56.9327 
 260   0.0000       2.101556        57.1863 
 261   0.0000       2.114794        57.5465 
 262   0.0000       2.125331        57.8332 
 263   0.0000       2.125462        57.8367 
 264   0.0000       2.127978        57.9052 
 265   0.0000       2.184493        59.4431 
 266   0.0000       2.201844        59.9152 
 267   0.0000       2.226603        60.5889 
 268   0.0000       2.246319        61.1255 
 269   0.0000       2.249753        61.2189 
 270   0.0000       2.265817        61.6560 
 271   0.0000       2.288972        62.2861 
 272   0.0000       2.289915        62.3117 
 273   0.0000       2.297687        62.5232 
 274   0.0000       2.306891        62.7737 
 275   0.0000       2.309672        62.8494 
 276   0.0000       2.312591        62.9288 
 277   0.0000       2.318829        63.0985 
 278   0.0000       2.327156        63.3251 
 279   0.0000       2.338845        63.6432 
 280   0.0000       2.358881        64.1884 
 281   0.0000       2.361234        64.2524 
 282   0.0000       2.364557        64.3429 
 283   0.0000       2.377059        64.6831 
 284   0.0000       2.384336        64.8811 
 285   0.0000       2.406987        65.4975 
 286   0.0000       2.415464        65.7281 
 287   0.0000       2.419614        65.8410 
 288   0.0000       2.430455        66.1360 
 289   0.0000       2.456676        66.8496 
 290   0.0000       2.491844        67.8065 
 291   0.0000       2.493403        67.8489 
 292   0.0000       2.518669        68.5365 
 293   0.0000       2.534047        68.9549 
 294   0.0000       2.536843        69.0310 
 295   0.0000       2.543307        69.2069 
 296   0.0000       2.558565        69.6221 
 297   0.0000       2.569570        69.9215 
 298   0.0000       2.575143        70.0732 
 299   0.0000       2.593880        70.5831 
 300   0.0000       2.638901        71.8081 
 301   0.0000       2.644404        71.9579 
 302   0.0000       2.662077        72.4388 
 303   0.0000       2.672881        72.7328 
 304   0.0000       2.673554        72.7511 
 305   0.0000       2.680207        72.9322 
 306   0.0000       2.687536        73.1316 
 307   0.0000       2.722289        74.0773 
 308   0.0000       2.730000        74.2871 
 309   0.0000       2.733653        74.3865 
 310   0.0000       2.740158        74.5635 
 311   0.0000       2.770811        75.3976 
 312   0.0000       2.782068        75.7039 
 313   0.0000       2.783108        75.7322 
 314   0.0000       2.787289        75.8460 
 315   0.0000       2.787925        75.8633 
 316   0.0000       2.789692        75.9114 
 317   0.0000       2.800254        76.1988 
 318   0.0000       2.801601        76.2354 
 319   0.0000       2.812023        76.5190 
 320   0.0000       2.832736        77.0827 
 321   0.0000       2.873127        78.1818 
 322   0.0000       2.877650        78.3048 
 323   0.0000       2.899395        78.8965 
 324   0.0000       2.904526        79.0362 
 325   0.0000       2.925516        79.6073 
 326   0.0000       2.932163        79.7882 
 327   0.0000       2.939223        79.9803 
 328   0.0000       2.943518        80.0972 
 329   0.0000       2.960696        80.5646 
 330   0.0000       2.998635        81.5970 
 331   0.0000       3.004438        81.7549 
 332   0.0000       3.009782        81.9003 
 333   0.0000       3.010223        81.9123 
 334   0.0000       3.048721        82.9599 
 335   0.0000       3.076841        83.7251 
 336   0.0000       3.109234        84.6066 
 337   0.0000       3.113305        84.7173 
 338   0.0000       3.134194        85.2858 
 339   0.0000       3.171270        86.2946 
 340   0.0000       3.183492        86.6272 
 341   0.0000       3.190566        86.8197 
 342   0.0000       3.210525        87.3628 
 343   0.0000       3.226033        87.7848 
 344   0.0000       3.291684        89.5713 
 345   0.0000       3.293767        89.6280 
 346   0.0000       3.343486        90.9809 
 347   0.0000       3.374467        91.8239 
 348   0.0000       3.383019        92.0566 
 349   0.0000       3.416365        92.9640 
 350   0.0000       3.465695        94.3063 
 351   0.0000       3.496253        95.1379 
 352   0.0000       3.524820        95.9152 
 353   0.0000       3.535966        96.2185 
 354   0.0000       3.546388        96.5021 
 355   0.0000       3.558098        96.8208 
 356   0.0000       3.571382        97.1822 
 357   0.0000       3.579068        97.3914 
 358   0.0000       3.586201        97.5855 
 359   0.0000       3.604704        98.0890 
 360   0.0000       3.608922        98.2038 
 361   0.0000       3.643531        99.1455 
 362   0.0000       3.661171        99.6255 
 363   0.0000       3.712823       101.0310 
 364   0.0000       3.829492       104.2058 
 365   0.0000       3.896204       106.0211 
 366   0.0000       4.078157       110.9723 
 367   0.0000       4.087702       111.2320 
 368   0.0000       4.167465       113.4025 
 369   0.0000       4.292221       116.7973 
 370   0.0000       4.440901       120.8430 
 371   0.0000       4.516761       122.9073 
 372   0.0000       7.498753       204.0514 
 373   0.0000      21.564687       586.8050 
 374   0.0000      21.978351       598.0613 
 375   0.0000      22.003181       598.7370 
 376   0.0000      22.045383       599.8854 
 377   0.0000      22.083507       600.9228 
 378   0.0000      22.092899       601.1783 
 379   0.0000      22.202053       604.1486 
 380   0.0000      22.223995       604.7456 
 381   0.0000      22.289633       606.5317 
 382   0.0000      22.531256       613.1066 
 383   0.0000      31.937141       869.0538 
 384   0.0000      32.115564       873.9089 
 385   0.0000      43.833906      1192.7812 
 386   0.0000      44.053163      1198.7475 

                    ********************************
                    * MULLIKEN POPULATION ANALYSIS *
                    ********************************

-----------------------
MULLIKEN ATOMIC CHARGES
-----------------------
   0 C :   -0.518767
   1 C :    0.145071
   2 C :   -0.439131
   3 C :   -0.518791
   4 O :   -0.160348
   5 C :    0.407346
   6 O :   -0.502673
   7 N :    0.001757
   8 C :   -0.109599
   9 C :   -0.128239
  10 C :    0.050693
  11 Br:   -0.105761
  12 C :   -0.150804
  13 C :   -0.063101
  14 N :   -0.208253
  15 H :    0.156492
  16 H :    0.194133
  17 H :    0.161346
  18 H :    0.157824
  19 H :    0.157907
  20 H :    0.157907
  21 H :    0.156493
  22 H :    0.194131
  23 H :    0.161352
  24 H :    0.275487
  25 H :    0.220930
  26 H :    0.166696
  27 H :    0.139901
Sum of atomic charges:   -0.0000000

--------------------------------
MULLIKEN REDUCED ORBITAL CHARGES
--------------------------------
  0 C s       :     3.347336  s :     3.347336
      pz      :     0.972312  p :     3.144403
      px      :     1.112943
      py      :     1.059147
      dz2     :     0.007577  d :     0.027029
      dxz     :     0.001222
      dyz     :     0.008628
      dx2y2   :     0.002151
      dxy     :     0.007451
  1 C s       :     3.079586  s :     3.079586
      pz      :     0.995417  p :     2.700235
      px      :     0.830576
      py      :     0.874243
      dz2     :     0.016087  d :     0.075108
      dxz     :     0.009690
      dyz     :     0.017453
      dx2y2   :     0.010316
      dxy     :     0.021561
  2 C s       :     3.323926  s :     3.323926
      pz      :     1.104815  p :     3.087718
      px      :     0.961584
      py      :     1.021320
      dz2     :     0.005521  d :     0.027486
      dxz     :     0.001519
      dyz     :     0.008519
      dx2y2   :     0.003309
      dxy     :     0.008617
  3 C s       :     3.347346  s :     3.347346
      pz      :     0.972317  p :     3.144416
      px      :     1.112954
      py      :     1.059145
      dz2     :     0.007577  d :     0.027029
      dxz     :     0.001222
      dyz     :     0.008628
      dx2y2   :     0.002151
      dxy     :     0.007451
  4 O s       :     3.704664  s :     3.704664
      pz      :     1.766718  p :     4.428219
      px      :     1.081058
      py      :     1.580442
      dz2     :     0.001976  d :     0.027465
      dxz     :     0.004457
      dyz     :     0.005411
      dx2y2   :     0.003198
      dxy     :     0.012423
  5 C s       :     2.987385  s :     2.987385
      pz      :     0.795052  p :     2.455335
      px      :     0.812736
      py      :     0.847547
      dz2     :     0.006502  d :     0.149934
      dxz     :     0.018331
      dyz     :     0.029033
      dx2y2   :     0.040698
      dxy     :     0.055370
  6 O s       :     3.845683  s :     3.845683
      pz      :     1.514516  p :     4.622423
      px      :     1.757921
      py      :     1.349986
      dz2     :     0.007087  d :     0.034567
      dxz     :     0.003000
      dyz     :     0.007966
      dx2y2   :     0.012922
      dxy     :     0.003591
  7 N s       :     3.248819  s :     3.248819
      pz      :     1.637469  p :     3.645020
      px      :     0.943192
      py      :     1.064360
      dz2     :     0.007810  d :     0.104403
      dxz     :     0.018853
      dyz     :     0.007039
      dx2y2   :     0.041301
      dxy     :     0.029399
  8 C s       :     3.201069  s :     3.201069
      pz      :     0.897716  p :     2.825900
      px      :     0.916988
      py      :     1.011195
      dz2     :     0.005037  d :     0.082630
      dxz     :     0.014325
      dyz     :     0.010318
      dx2y2   :     0.031365
      dxy     :     0.021586
  9 C s       :     3.139191  s :     3.139191
      pz      :     1.030548  p :     2.952939
      px      :     0.814161
      py      :     1.108230
      dz2     :     0.003414  d :     0.036110
      dxz     :     0.005208
      dyz     :     0.003203
      dx2y2   :     0.011688
      dxy     :     0.012597
 10 C s       :     3.219780  s :     3.219780
      pz      :     0.991293  p :     2.677640
      px      :     0.886389
      py      :     0.799958
      dz2     :     0.003471  d :     0.051887
      dxz     :     0.008121
      dyz     :     0.007234
      dx2y2   :     0.016213
      dxy     :     0.016848
 11 Brs       :     7.978477  s :     7.978477
      pz      :     5.924963  p :    17.080035
      px      :     5.685098
      py      :     5.469974
      dz2     :     2.006087  d :    10.047249
      dxz     :     2.005274
      dyz     :     2.009058
      dx2y2   :     2.009208
      dxy     :     2.017623
 12 C s       :     3.137818  s :     3.137818
      pz      :     1.040409  p :     2.975935
      px      :     1.039994
      py      :     0.895532
      dz2     :     0.003393  d :     0.037052
      dxz     :     0.002815
      dyz     :     0.005594
      dx2y2   :     0.012609
      dxy     :     0.012641
 13 C s       :     3.216832  s :     3.216832
      pz      :     0.907558  p :     2.788955
      px      :     0.897596
      py      :     0.983801
      dz2     :     0.003881  d :     0.057314
      dxz     :     0.010538
      dyz     :     0.003091
      dx2y2   :     0.018610
      dxy     :     0.021194
 14 N s       :     3.461735  s :     3.461735
      pz      :     1.221127  p :     3.669886
      px      :     1.119916
      py      :     1.328842
      dz2     :     0.006209  d :     0.076632
      dxz     :     0.012042
      dyz     :     0.014185
      dx2y2   :     0.026895
      dxy     :     0.017301
 15 H s       :     0.825349  s :     0.825349
      pz      :     0.003602  p :     0.018159
      px      :     0.008650
      py      :     0.005907
 16 H s       :     0.787297  s :     0.787297
      pz      :     0.003393  p :     0.018570
      px      :     0.008796
      py      :     0.006381
 17 H s       :     0.820724  s :     0.820724
      pz      :     0.008377  p :     0.017929
      px      :     0.003691
      py      :     0.005861
 18 H s       :     0.824120  s :     0.824120
      pz      :     0.003736  p :     0.018056
      px      :     0.008846
      py      :     0.005473
 19 H s       :     0.824111  s :     0.824111
      pz      :     0.008391  p :     0.017982
      px      :     0.003419
      py      :     0.006172
 20 H s       :     0.824110  s :     0.824110
      pz      :     0.008391  p :     0.017982
      px      :     0.003419
      py      :     0.006172
 21 H s       :     0.825348  s :     0.825348
      pz      :     0.003601  p :     0.018159
      px      :     0.008650
      py      :     0.005907
 22 H s       :     0.787299  s :     0.787299
      pz      :     0.003393  p :     0.018570
      px      :     0.008796
      py      :     0.006381
 23 H s       :     0.820718  s :     0.820718
      pz      :     0.008377  p :     0.017929
      px      :     0.003691
      py      :     0.005861
 24 H s       :     0.692586  s :     0.692586
      pz      :     0.008966  p :     0.031927
      px      :     0.006178
      py      :     0.016783
 25 H s       :     0.757806  s :     0.757806
      pz      :     0.004105  p :     0.021265
      px      :     0.005819
      py      :     0.011341
 26 H s       :     0.813485  s :     0.813485
      pz      :     0.004382  p :     0.019819
      px      :     0.012310
      py      :     0.003128
 27 H s       :     0.841164  s :     0.841164
      pz      :     0.003652  p :     0.018934
      px      :     0.003763
      py      :     0.011519


                     *******************************
                     * LOEWDIN POPULATION ANALYSIS *
                     *******************************

----------------------
LOEWDIN ATOMIC CHARGES
----------------------
   0 C :   -0.369640
   1 C :    0.087653
   2 C :   -0.361374
   3 C :   -0.369642
   4 O :   -0.550419
   5 C :    0.473762
   6 O :   -0.425003
   7 N :   -0.460786
   8 C :    0.326093
   9 C :   -0.127389
  10 C :   -0.195082
  11 Br:    0.219864
  12 C :   -0.183807
  13 C :    0.103714
  14 N :   -0.571434
  15 H :    0.163198
  16 H :    0.181760
  17 H :    0.166225
  18 H :    0.163244
  19 H :    0.166639
  20 H :    0.166639
  21 H :    0.163199
  22 H :    0.181754
  23 H :    0.166224
  24 H :    0.301293
  25 H :    0.213595
  26 H :    0.180571
  27 H :    0.189151

-------------------------------
LOEWDIN REDUCED ORBITAL CHARGES
-------------------------------
  0 C s       :     2.961750  s :     2.961750
      pz      :     1.073746  p :     3.346052
      px      :     1.153019
      py      :     1.119287
      dz2     :     0.017319  d :     0.061839
      dxz     :     0.002280
      dyz     :     0.019414
      dx2y2   :     0.004689
      dxy     :     0.018137
  1 C s       :     2.807955  s :     2.807955
      pz      :     1.071857  p :     2.953956
      px      :     0.899185
      py      :     0.982914
      dz2     :     0.031098  d :     0.150436
      dxz     :     0.015969
      dyz     :     0.036871
      dx2y2   :     0.020113
      dxy     :     0.046385
  2 C s       :     2.962719  s :     2.962719
      pz      :     1.154857  p :     3.336217
      px      :     1.066010
      py      :     1.115350
      dz2     :     0.012838  d :     0.062438
      dxz     :     0.002597
      dyz     :     0.020234
      dx2y2   :     0.006851
      dxy     :     0.019918
  3 C s       :     2.961750  s :     2.961750
      pz      :     1.073755  p :     3.346053
      px      :     1.153016
      py      :     1.119282
      dz2     :     0.017320  d :     0.061839
      dxz     :     0.002279
      dyz     :     0.019414
      dx2y2   :     0.004690
      dxy     :     0.018137
  4 O s       :     3.443858  s :     3.443858
      pz      :     1.729365  p :     4.622085
      px      :     1.285427
      py      :     1.607293
      dz2     :     0.064130  d :     0.484476
      dxz     :     0.085375
      dyz     :     0.058089
      dx2y2   :     0.134275
      dxy     :     0.142607
  5 C s       :     2.653578  s :     2.653578
      pz      :     0.725460  p :     2.553936
      px      :     0.858367
      py      :     0.970108
      dz2     :     0.019477  d :     0.318724
      dxz     :     0.034137
      dyz     :     0.052943
      dx2y2   :     0.091214
      dxy     :     0.120953
  6 O s       :     3.532829  s :     3.532829
      pz      :     1.488620  p :     4.658637
      px      :     1.696211
      py      :     1.473805
      dz2     :     0.029157  d :     0.233537
      dxz     :     0.021178
      dyz     :     0.045759
      dx2y2   :     0.073488
      dxy     :     0.063955
  7 N s       :     3.074227  s :     3.074227
      pz      :     1.557530  p :     3.903599
      px      :     1.162794
      py      :     1.183275
      dz2     :     0.061092  d :     0.482960
      dxz     :     0.089100
      dyz     :     0.036428
      dx2y2   :     0.149867
      dxy     :     0.146473
  8 C s       :     2.718482  s :     2.718482
      pz      :     0.829881  p :     2.779756
      px      :     0.919731
      py      :     1.030144
      dz2     :     0.011434  d :     0.175669
      dxz     :     0.026669
      dyz     :     0.019036
[...]
     31       0.000359   0.000000   0.000010  -0.003958   0.000547   0.000058
     32      -0.000000   0.000002   0.000000  -0.000001  -0.000001  -0.000000
     33      -0.000002   0.000000   0.000021   0.000039   0.000013   0.000005
     34      -0.000000   0.000000  -0.000008   0.000053   0.000030   0.000006
     35       0.000000  -0.000014   0.000000   0.000000   0.000000   0.000000
     36      -0.006387  -0.000001  -0.000046  -0.086781   0.000239   0.000210
     37       0.003633   0.000001   0.000020   0.012889   0.000518  -0.000133
     38      -0.000001   0.000011  -0.000000  -0.000022   0.000000   0.000000
     39       0.027067   0.000004   0.000181  -0.000835  -0.000413   0.000054
     40      -0.081824  -0.000011  -0.000526   0.011156   0.000758   0.000109
     41      -0.000020   0.000022  -0.000000   0.000004   0.000000   0.000000
     42       0.000735  -0.000000  -0.000007   0.000639  -0.000223   0.000058
     43      -0.000003   0.000000   0.000019  -0.000356   0.000387  -0.000196
     44       0.000000   0.000020  -0.000000   0.000000   0.000000   0.000000
     45      -0.000036  -0.154307   0.166395   0.000045  -0.000158  -0.000255
     46       0.000087   0.105576  -0.113787  -0.000039   0.000055   0.000296
     47       0.000052  -0.006500   0.006793   0.000011  -0.000011  -0.000134
     48      -0.003306  -0.493813   0.502227  -0.000017   0.000386   0.000203
     49      -0.002575  -0.399753   0.407377  -0.000025   0.000159  -0.000100
     50       0.000001   0.000173  -0.002658   0.000001   0.000103   0.000091
     51       0.000117   0.020324  -0.019232   0.000009  -0.000030   0.000075
     52      -0.001128  -0.127701   0.124800  -0.000022  -0.000158  -0.000038
     53      -0.001606  -0.176933   0.172444  -0.000029  -0.000176   0.000009
     54       0.001266   0.000044   0.009124   0.000051  -0.000050  -0.000090
     55      -0.000787  -0.000020  -0.004863  -0.000027   0.000045  -0.000105
     56      -0.000001   0.000999  -0.000014   0.000000  -0.000000   0.000000
     57      -0.000040   0.000082   0.000278   0.000009  -0.000005  -0.000049
     58      -0.000275   0.007511   0.001685  -0.000016  -0.000063  -0.000108
     59       0.000416  -0.009282  -0.000523   0.000009   0.000089   0.000410
     60      -0.000041  -0.000086   0.000280   0.000009  -0.000005  -0.000049
     61      -0.000274  -0.007449   0.001859  -0.000016  -0.000063  -0.000108
     62      -0.000414  -0.009223   0.000740  -0.000010  -0.000090  -0.000411
     63      -0.000058   0.157272   0.163632   0.000045  -0.000158  -0.000255
     64       0.000102  -0.107626  -0.111920  -0.000039   0.000055   0.000296
     65      -0.000051  -0.006768  -0.006831  -0.000011   0.000011   0.000134
     66      -0.003383   0.502788   0.493336  -0.000017   0.000394   0.000206
     67      -0.002635   0.406847   0.399999  -0.000025   0.000165  -0.000099
     68       0.000003  -0.000387   0.002062  -0.000001  -0.000103  -0.000092
     69       0.000121  -0.020836  -0.019024   0.000009  -0.000030   0.000075
     70      -0.001149   0.129994   0.122550  -0.000022  -0.000156  -0.000038
     71       0.001635  -0.180130  -0.169348   0.000029   0.000174  -0.000010
     72      -0.000844  -0.000001  -0.000090   0.000808  -0.000633   0.430540
     73       0.000449  -0.000001   0.000129   0.000755   0.000670   0.899639
     74       0.000000   0.000044   0.000000  -0.000001   0.000001   0.000474
     75      -0.003937   0.000004   0.000277  -0.002762  -0.407423   0.000111
     76       0.007102  -0.000008  -0.000164   0.005327   0.908955  -0.000939
     77       0.000000  -0.000017   0.000000   0.000002   0.000180   0.000000
     78       0.100542   0.000014   0.000688   0.980705  -0.007293  -0.000843
     79      -0.019448  -0.000003  -0.000131  -0.143709   0.001582   0.000088
     80       0.000024   0.000001   0.000000   0.000245  -0.000001  -0.000001
     81      -0.338219  -0.000046  -0.002184   0.029792   0.002589  -0.000217
     82       0.931408   0.000126   0.005967  -0.093813  -0.006845   0.000047
     83       0.000215   0.000028   0.000001  -0.000023  -0.000003   0.000000


-----------
IR SPECTRUM
-----------

 Mode   freq       eps      Int      T**2         TX        TY        TZ
       cm**-1   L/(mol*cm) km/mol    a.u.
----------------------------------------------------------------------------
  6:     27.24   0.000047    0.24  0.000538  (-0.000015 -0.000045  0.023190)
  7:     34.27   0.000251    1.27  0.002286  ( 0.000022  0.000030 -0.047808)
  8:     65.56   0.000059    0.30  0.000281  (-0.004341  0.016184  0.000070)
  9:     75.71   0.000372    1.88  0.001535  ( 0.000033 -0.000005 -0.039177)
 10:    108.48   0.000114    0.58  0.000329  ( 0.000129 -0.000029  0.018141)
 11:    155.73   0.000277    1.40  0.000554  (-0.023224 -0.003862 -0.000013)
 12:    165.53   0.000038    0.19  0.000072  ( 0.000018 -0.000019  0.008463)
 13:    205.25   0.000095    0.48  0.000145  ( 0.000093 -0.000043  0.012029)
 14:    224.39   0.000157    0.79  0.000218  (-0.000077  0.000029  0.014781)
 15:    237.39   0.000668    3.38  0.000879  ( 0.027809 -0.010264  0.000019)
 16:    256.18   0.000210    1.06  0.000256  ( 0.015716 -0.002973  0.000012)
 17:    279.80   0.000786    3.97  0.000876  (-0.028594  0.007666 -0.000070)
 18:    281.14   0.000017    0.09  0.000019  (-0.000520  0.000139  0.004297)
 19:    310.11   0.000664    3.36  0.000669  (-0.019245 -0.017268 -0.000005)
 20:    338.60   0.003306   16.71  0.003047  (-0.055093  0.003382 -0.000069)
 21:    358.58   0.000270    1.36  0.000235  ( 0.000346 -0.000043 -0.015324)
 22:    390.82   0.000165    0.83  0.000132  (-0.008078 -0.008164  0.000007)
 23:    438.04   0.000132    0.67  0.000094  (-0.007967  0.005505 -0.000001)
 24:    445.05   0.002684   13.56  0.001882  ( 0.000033 -0.000009 -0.043383)
 25:    463.43   0.000402    2.03  0.000271  ( 0.000283 -0.000013 -0.016450)
 26:    466.18   0.000774    3.91  0.000518  ( 0.022722 -0.001366  0.000221)
 27:    590.43   0.000357    1.80  0.000189  ( 0.000017 -0.000013 -0.013731)
 28:    619.98   0.013751   69.49  0.006922  ( 0.000025  0.000014 -0.083197)
 29:    626.38   0.000721    3.64  0.000359  (-0.001322 -0.018905 -0.000085)
 30:    691.22   0.008883   44.89  0.004010  (-0.041357 -0.047958 -0.000030)
 31:    744.32   0.000063    0.32  0.000026  (-0.000016  0.000006 -0.005140)
 32:    759.25   0.001820    9.20  0.000748  ( 0.000045  0.000017 -0.027347)
 33:    774.65   0.002781   14.06  0.001120  ( 0.033422 -0.001846  0.000007)
 34:    781.56   0.001532    7.74  0.000612  ( 0.015441  0.019319  0.000020)
 35:    809.50   0.006116   30.91  0.002358  ( 0.000001  0.000004  0.048556)
 36:    859.04   0.015137   76.49  0.005499  (-0.073999  0.004787 -0.000022)
 37:    883.19   0.002296   11.60  0.000811  (-0.000027  0.000005  0.028484)
 38:    926.95   0.000026    0.13  0.000009  ( 0.000078  0.000059 -0.002947)
 39:    928.48   0.000382    1.93  0.000128  (-0.008067 -0.007947 -0.000016)
 40:    935.89   0.003964   20.03  0.001322  (-0.021726 -0.029153 -0.000018)
 41:    962.50   0.000017    0.09  0.000005  ( 0.000000 -0.000015  0.002344)
 42:    965.80   0.000083    0.42  0.000027  ( 0.000002 -0.000027 -0.005185)
 43:    999.14   0.006835   34.54  0.002135  (-0.044931  0.010768 -0.000006)
 44:   1049.14   0.002003   10.12  0.000596  ( 0.017164 -0.017350 -0.000207)
 45:   1049.43   0.000087    0.44  0.000026  (-0.000649  0.000696 -0.004997)
 46:   1073.98   0.011146   56.33  0.003239  ( 0.053407 -0.019657 -0.000002)
 47:   1101.18   0.008325   42.07  0.002359  ( 0.048122  0.006605  0.000011)
 48:   1130.58   0.003595   18.17  0.000992  ( 0.031095 -0.005044  0.000005)
 49:   1171.91   0.172560  872.05  0.045950  ( 0.208614 -0.049297  0.000006)
 50:   1228.21   0.013648   68.97  0.003468  ( 0.058717 -0.004462  0.000006)
 51:   1267.76   0.003277   16.56  0.000807  (-0.000015 -0.000051  0.028401)
 52:   1272.28   0.008572   43.32  0.002103  ( 0.038269  0.025260  0.000045)
 53:   1280.35   0.002114   10.68  0.000515  ( 0.021897  0.005982  0.000019)
 54:   1302.06   0.031864  161.03  0.007637  ( 0.084605 -0.021884  0.000010)
 55:   1328.86   0.002039   10.30  0.000479  (-0.017832 -0.012681 -0.000010)
 56:   1387.07   0.005641   28.51  0.001269  ( 0.000003 -0.000427  0.035622)
 57:   1389.55   0.005432   27.45  0.001220  (-0.001149  0.034906  0.000436)
 58:   1417.06   0.008043   40.64  0.001771  (-0.037927  0.018240  0.000059)
 59:   1436.32   0.041482  209.63  0.009013  (-0.079560  0.051796 -0.000010)
 60:   1457.33   0.000066    0.33  0.000014  ( 0.000039 -0.000006 -0.003746)
 61:   1469.01   0.004137   20.90  0.000879  (-0.024474  0.016726  0.000006)
 62:   1478.08   0.000059    0.30  0.000013  (-0.002089 -0.002860 -0.000012)
 63:   1479.65   0.000097    0.49  0.000020  ( 0.000008  0.000035 -0.004519)
 64:   1487.45   0.003282   16.59  0.000689  (-0.012084  0.023292  0.000042)
 65:   1495.18   0.000468    2.37  0.000098  ( 0.000093 -0.000070  0.009885)
 66:   1518.07   0.001365    6.90  0.000281  ( 0.005157  0.015939  0.000017)
 67:   1538.27   0.154384  780.19  0.031319  ( 0.175519 -0.022639  0.000036)
 68:   1593.98   0.030837  155.84  0.006037  (-0.030025  0.071663  0.000018)
 69:   1609.61   0.047575  240.42  0.009224  ( 0.094540  0.016906  0.000036)
 70:   1778.07   0.038759  195.87  0.006803  ( 0.016361  0.080839  0.000041)
 71:   3023.42   0.001788    9.04  0.000185  (-0.005881 -0.012247  0.000000)
 72:   3025.11   0.003952   19.97  0.000408  ( 0.000018 -0.000007 -0.020191)
 73:   3030.89   0.003580   18.09  0.000369  ( 0.019012 -0.002667 -0.000007)
 74:   3106.03   0.000851    4.30  0.000085  ( 0.000023 -0.000024 -0.009246)
 75:   3107.97   0.002606   13.17  0.000262  (-0.012773  0.009924 -0.000019)
 76:   3117.86   0.003377   17.06  0.000338  (-0.000015  0.000004 -0.018384)
 77:   3121.44   0.005080   25.67  0.000508  (-0.015119  0.016710  0.000007)
 78:   3143.65   0.003174   16.04  0.000315  ( 0.010763 -0.014116 -0.000002)
 79:   3144.35   0.000027    0.14  0.000003  (-0.000042 -0.000079  0.001626)
 80:   3147.06   0.001676    8.47  0.000166  (-0.009750 -0.008433 -0.000016)
 81:   3215.01   0.000126    0.64  0.000012  ( 0.002052  0.002838  0.000002)
 82:   3246.67   0.003681   18.60  0.000354  (-0.014167  0.012374  0.000001)
 83:   3609.20   0.011529   58.26  0.000997  ( 0.013168  0.028695  0.000015)

* The epsilon (eps) is given for a Dirac delta lineshape.
** The dipole moment derivative (T) already includes vibrational overlap.

The first frequency considered to be a vibration is 6
The total number of vibrations considered is 78


--------------------------
THERMOCHEMISTRY AT 298.15K
--------------------------

Temperature         ... 298.15 K
Pressure            ... 1.00 atm
Total Mass          ... 273.13 AMU

Throughout the following assumptions are being made:
  (1) The electronic state is orbitally nondegenerate
  (2) There are no thermally accessible electronically excited states
  (3) Hindered rotations indicated by low frequency modes are not
      treated as such but are treated as vibrations and this may
      cause some error
  (4) All equations used are the standard statistical mechanics
      equations for an ideal gas
  (5) All vibrations are strictly harmonic

freq.      27.24  E(vib)   ...       0.55 
freq.      34.27  E(vib)   ...       0.54 
freq.      65.56  E(vib)   ...       0.50 
freq.      75.71  E(vib)   ...       0.49 
freq.     108.48  E(vib)   ...       0.45 
freq.     155.73  E(vib)   ...       0.40 
freq.     165.53  E(vib)   ...       0.39 
freq.     205.25  E(vib)   ...       0.35 
freq.     224.39  E(vib)   ...       0.33 
freq.     237.39  E(vib)   ...       0.32 
freq.     256.18  E(vib)   ...       0.30 
freq.     279.80  E(vib)   ...       0.28 
freq.     281.14  E(vib)   ...       0.28 
freq.     310.11  E(vib)   ...       0.26 
freq.     338.60  E(vib)   ...       0.23 
freq.     358.58  E(vib)   ...       0.22 
freq.     390.82  E(vib)   ...       0.20 
freq.     438.04  E(vib)   ...       0.17 
freq.     445.05  E(vib)   ...       0.17 
freq.     463.43  E(vib)   ...       0.16 
freq.     466.18  E(vib)   ...       0.16 
freq.     590.43  E(vib)   ...       0.10 
freq.     619.98  E(vib)   ...       0.09 
freq.     626.38  E(vib)   ...       0.09 
freq.     691.22  E(vib)   ...       0.07 
freq.     744.32  E(vib)   ...       0.06 
freq.     759.25  E(vib)   ...       0.06 
freq.     774.65  E(vib)   ...       0.05 
freq.     781.56  E(vib)   ...       0.05 
freq.     809.50  E(vib)   ...       0.05 
freq.     859.04  E(vib)   ...       0.04 
freq.     883.19  E(vib)   ...       0.04 
freq.     926.95  E(vib)   ...       0.03 
freq.     928.48  E(vib)   ...       0.03 
freq.     935.89  E(vib)   ...       0.03 
freq.     962.50  E(vib)   ...       0.03 
freq.     965.80  E(vib)   ...       0.03 
freq.     999.14  E(vib)   ...       0.02 
freq.    1049.14  E(vib)   ...       0.02 
freq.    1049.43  E(vib)   ...       0.02 
freq.    1073.98  E(vib)   ...       0.02 
freq.    1101.18  E(vib)   ...       0.02 
freq.    1130.58  E(vib)   ...       0.01 
freq.    1171.91  E(vib)   ...       0.01 
freq.    1228.21  E(vib)   ...       0.01 
freq.    1267.76  E(vib)   ...       0.01 
freq.    1272.28  E(vib)   ...       0.01 
freq.    1280.35  E(vib)   ...       0.01 
freq.    1302.06  E(vib)   ...       0.01 
freq.    1328.86  E(vib)   ...       0.01 
freq.    1387.07  E(vib)   ...       0.00 
freq.    1389.55  E(vib)   ...       0.00 
freq.    1417.06  E(vib)   ...       0.00 
freq.    1436.32  E(vib)   ...       0.00 
freq.    1457.33  E(vib)   ...       0.00 
freq.    1469.01  E(vib)   ...       0.00 
freq.    1478.08  E(vib)   ...       0.00 
freq.    1479.65  E(vib)   ...       0.00 
freq.    1487.45  E(vib)   ...       0.00 
freq.    1495.18  E(vib)   ...       0.00 
freq.    1518.07  E(vib)   ...       0.00 
freq.    1538.27  E(vib)   ...       0.00 
freq.    1593.98  E(vib)   ...       0.00 
freq.    1609.61  E(vib)   ...       0.00 
freq.    1778.07  E(vib)   ...       0.00 
freq.    3023.42  E(vib)   ...       0.00 
freq.    3025.11  E(vib)   ...       0.00 
freq.    3030.89  E(vib)   ...       0.00 
freq.    3106.03  E(vib)   ...       0.00 
freq.    3107.97  E(vib)   ...       0.00 
freq.    3117.86  E(vib)   ...       0.00 
freq.    3121.44  E(vib)   ...       0.00 
freq.    3143.65  E(vib)   ...       0.00 
freq.    3144.35  E(vib)   ...       0.00 
freq.    3147.06  E(vib)   ...       0.00 
freq.    3215.01  E(vib)   ...       0.00 
freq.    3246.67  E(vib)   ...       0.00 
freq.    3609.20  E(vib)   ...       0.00 

------------
INNER ENERGY
------------

The inner energy is: U= E(el) + E(ZPE) + E(vib) + E(rot) + E(trans)
    E(el)   - is the total energy from the electronic structure calculation
              = E(kin-el) + E(nuc-el) + E(el-el) + E(nuc-nuc)
    E(ZPE)  - the the zero temperature vibrational energy from the frequency calculation
    E(vib)  - the the finite temperature correction to E(ZPE) due to population
              of excited vibrational states
    E(rot)  - is the rotational thermal energy
    E(trans)- is the translational thermal energy

Summary of contributions to the inner energy U:
Electronic energy                ...  -3222.89289561 Eh
Zero point energy                ...      0.22101619 Eh     138.69 kcal/mol
Thermal vibrational correction   ...      0.01245327 Eh       7.81 kcal/mol
Thermal rotational correction    ...      0.00141627 Eh       0.89 kcal/mol
Thermal translational correction ...      0.00141627 Eh       0.89 kcal/mol
-----------------------------------------------------------------------
Total thermal energy                  -3222.65659361 Eh


Summary of corrections to the electronic energy:
(perhaps to be used in another calculation)
Total thermal correction                  0.01528582 Eh       9.59 kcal/mol
Non-thermal (ZPE) correction              0.22101619 Eh     138.69 kcal/mol
-----------------------------------------------------------------------
Total correction                          0.23630201 Eh     148.28 kcal/mol


--------
ENTHALPY
--------

The enthalpy is H = U + kB*T
                kB is Boltzmann's constant
Total free energy                 ...  -3222.65659361 Eh 
Thermal Enthalpy correction       ...      0.00094421 Eh       0.59 kcal/mol
-----------------------------------------------------------------------
Total Enthalpy                    ...  -3222.65564940 Eh


Note: Only C1 symmetry has been detected, increase convergence thresholds 
      if your molecule has a higher symmetry. Symmetry factor of 1.0 is   
      used for the rotational entropy correction. 
 

Note: Rotational entropy computed according to Herzberg 
Infrared and Raman Spectra, Chapter V,1, Van Nostrand Reinhold, 1945 
Point Group:  C1, Symmetry Number:   1  
Rotational constants in cm-1:     0.032498     0.005798     0.005088 

Vibrational entropy computed according to the QRRHO of S. Grimme
Chem.Eur.J. 2012 18 9955


-------
ENTROPY
-------

The entropy contributions are T*S = T*(S(el)+S(vib)+S(rot)+S(trans))
     S(el)   - electronic entropy
     S(vib)  - vibrational entropy
     S(rot)  - rotational entropy
     S(trans)- translational entropy
The entropies will be listed as multiplied by the temperature to get
units of energy

Electronic entropy                ...      0.00000000 Eh      0.00 kcal/mol
Vibrational entropy               ...      0.02185071 Eh     13.71 kcal/mol
Rotational entropy                ...      0.01605291 Eh     10.07 kcal/mol
Translational entropy             ...      0.02029426 Eh     12.73 kcal/mol
-----------------------------------------------------------------------
Final entropy term                ...      0.05819789 Eh     36.52 kcal/mol

In case the symmetry of your molecule has not been determined correctly
or in case you have a reason to use a different symmetry number we print 
out the resulting rotational entropy values for sn=1,12 :
 --------------------------------------------------------
|  sn= 1 | S(rot)=       0.01605291 Eh     10.07 kcal/mol|
|  sn= 2 | S(rot)=       0.01539846 Eh      9.66 kcal/mol|
|  sn= 3 | S(rot)=       0.01501562 Eh      9.42 kcal/mol|
|  sn= 4 | S(rot)=       0.01474400 Eh      9.25 kcal/mol|
|  sn= 5 | S(rot)=       0.01453331 Eh      9.12 kcal/mol|
|  sn= 6 | S(rot)=       0.01436117 Eh      9.01 kcal/mol|
|  sn= 7 | S(rot)=       0.01421562 Eh      8.92 kcal/mol|
|  sn= 8 | S(rot)=       0.01408954 Eh      8.84 kcal/mol|
|  sn= 9 | S(rot)=       0.01397833 Eh      8.77 kcal/mol|
|  sn=10 | S(rot)=       0.01387886 Eh      8.71 kcal/mol|
|  sn=11 | S(rot)=       0.01378887 Eh      8.65 kcal/mol|
|  sn=12 | S(rot)=       0.01370671 Eh      8.60 kcal/mol|
 --------------------------------------------------------


-------------------
GIBBS FREE ENERGY
-------------------

The Gibbs free energy is G = H - T*S

Total enthalpy                    ...  -3222.65564940 Eh 
Total entropy correction          ...     -0.05819789 Eh    -36.52 kcal/mol
-----------------------------------------------------------------------
Final Gibbs free energy         ...  -3222.71384728 Eh

For completeness - the Gibbs free energy minus the electronic energy
G-E(el)                           ...      0.17904833 Eh    112.35 kcal/mol


Timings for individual modules:

Sum of individual times         ...      188.062 sec (=   3.134 min)
GTO integral calculation        ...        3.019 sec (=   0.050 min)   1.6 %
SCF iterations                  ...       33.994 sec (=   0.567 min)  18.1 %
SCF Gradient evaluation         ...        8.455 sec (=   0.141 min)   4.5 %
Geometry relaxation             ...        0.203 sec (=   0.003 min)   0.1 %
Analytical frequency calculation...      142.391 sec (=   2.373 min)  75.7 %
                             ****ORCA TERMINATED NORMALLY****
TOTAL RUN TIME: 0 days 0 hours 3 minutes 10 seconds 207 msec
