Job Start Time: Thu Apr 18 14:08:49 MDT 2024
SLURM Job ID: 254465
SLURM Job Name: arbr_24_r2scan3c
SLURM Job Nodes: node19
SLURM Memory / CPU: 8000

                                 *****************
                                 * O   R   C   A *
                                 *****************

                                            #,                                       
                                            ###                                      
                                            ####                                     
                                            #####                                    
                                            ######                                   
                                           ########,                                 
                                     ,,################,,,,,                         
                               ,,#################################,,                 
                          ,,##########################################,,             
                       ,#########################################, ''#####,          
                    ,#############################################,,   '####,        
                  ,##################################################,,,,####,       
                ,###########''''           ''''###############################       
              ,#####''   ,,,,##########,,,,          '''####'''          '####       
            ,##' ,,,,###########################,,,                        '##       
           ' ,,###''''                  '''############,,,                           
         ,,##''                                '''############,,,,        ,,,,,,###''
      ,#''                                            '''#######################'''  
     '                                                          ''''####''''         
             ,#######,   #######,   ,#######,      ##                                
            ,#'     '#,  ##    ##  ,#'     '#,    #''#        ######   ,####,        
            ##       ##  ##   ,#'  ##            #'  '#       #        #'  '#        
            ##       ##  #######   ##           ,######,      #####,   #    #        
            '#,     ,#'  ##    ##  '#,     ,#' ,#      #,         ##   #,  ,#        
             '#######'   ##     ##  '#######'  #'      '#     #####' # '####'        



                  #######################################################
                  #                        -***-                        #
                  #          Department of theory and spectroscopy      #
                  #    Directorship and core code : Frank Neese         #
                  #        Max Planck Institute fuer Kohlenforschung    #
                  #                Kaiser Wilhelm Platz 1               #
                  #                 D-45470 Muelheim/Ruhr               #
                  #                      Germany                        #
                  #                                                     #
                  #                  All rights reserved                #
                  #                        -***-                        #
                  #######################################################


                         Program Version 5.0.3 -  RELEASE  -


 With contributions from (in alphabetic order):
   Daniel Aravena         : Magnetic Suceptibility
   Michael Atanasov       : Ab Initio Ligand Field Theory (pilot matlab implementation)
   Alexander A. Auer      : GIAO ZORA, VPT2 properties, NMR spectrum
   Ute Becker             : Parallelization
   Giovanni Bistoni       : ED, misc. LED, open-shell LED, HFLD
   Martin Brehm           : Molecular dynamics
   Dmytro Bykov           : SCF Hessian
   Vijay G. Chilkuri      : MRCI spin determinant printing, contributions to CSF-ICE
   Dipayan Datta          : RHF DLPNO-CCSD density
   Achintya Kumar Dutta   : EOM-CC, STEOM-CC
   Dmitry Ganyushin       : Spin-Orbit,Spin-Spin,Magnetic field MRCI
   Miquel Garcia          : C-PCM and meta-GGA Hessian, CC/C-PCM, Gaussian charge scheme
   Yang Guo               : DLPNO-NEVPT2, F12-NEVPT2, CIM, IAO-localization
   Andreas Hansen         : Spin unrestricted coupled pair/coupled cluster methods
   Benjamin Helmich-Paris : MC-RPA, TRAH-SCF, COSX integrals
   Lee Huntington         : MR-EOM, pCC
   Robert Izsak           : Overlap fitted RIJCOSX, COSX-SCS-MP3, EOM
   Marcus Kettner         : VPT2
   Christian Kollmar      : KDIIS, OOCD, Brueckner-CCSD(T), CCSD density, CASPT2, CASPT2-K
   Simone Kossmann        : Meta GGA functionals, TD-DFT gradient, OOMP2, MP2 Hessian
   Martin Krupicka        : Initial AUTO-CI
   Lucas Lang             : DCDCAS
   Marvin Lechner         : AUTO-CI (C++ implementation), FIC-MRCC
   Dagmar Lenk            : GEPOL surface, SMD
   Dimitrios Liakos       : Extrapolation schemes; Compound Job, initial MDCI parallelization
   Dimitrios Manganas     : Further ROCIS development; embedding schemes
   Dimitrios Pantazis     : SARC Basis sets
   Anastasios Papadopoulos: AUTO-CI, single reference methods and gradients
   Taras Petrenko         : DFT Hessian,TD-DFT gradient, ASA, ECA, R-Raman, ABS, FL, XAS/XES, NRVS
   Peter Pinski           : DLPNO-MP2, DLPNO-MP2 Gradient
   Christoph Reimann      : Effective Core Potentials
   Marius Retegan         : Local ZFS, SOC
   Christoph Riplinger    : Optimizer, TS searches, QM/MM, DLPNO-CCSD(T), (RO)-DLPNO pert. Triples
   Tobias Risthaus        : Range-separated hybrids, TD-DFT gradient, RPA, STAB
   Michael Roemelt        : Original ROCIS implementation
   Masaaki Saitow         : Open-shell DLPNO-CCSD energy and density
   Barbara Sandhoefer     : DKH picture change effects
   Avijit Sen             : IP-ROCIS
   Kantharuban Sivalingam : CASSCF convergence, NEVPT2, FIC-MRCI
   Bernardo de Souza      : ESD, SOC TD-DFT
   Georgi Stoychev        : AutoAux, RI-MP2 NMR, DLPNO-MP2 response
   Willem Van den Heuvel  : Paramagnetic NMR
   Boris Wezisla          : Elementary symmetry handling
   Frank Wennmohs         : Technical directorship


 We gratefully acknowledge several colleagues who have allowed us to
 interface, adapt or use parts of their codes:
   Stefan Grimme, W. Hujo, H. Kruse, P. Pracht,  : VdW corrections, initial TS optimization,
                  C. Bannwarth, S. Ehlert          DFT functionals, gCP, sTDA/sTD-DF
   Ed Valeev, F. Pavosevic, A. Kumar             : LibInt (2-el integral package), F12 methods
   Garnet Chan, S. Sharma, J. Yang, R. Olivares  : DMRG
   Ulf Ekstrom                                   : XCFun DFT Library
   Mihaly Kallay                                 : mrcc  (arbitrary order and MRCC methods)
   Jiri Pittner, Ondrej Demel                    : Mk-CCSD
   Frank Weinhold                                : gennbo (NPA and NBO analysis)
   Christopher J. Cramer and Donald G. Truhlar   : smd solvation model
   Lars Goerigk                                  : TD-DFT with DH, B97 family of functionals
   V. Asgeirsson, H. Jonsson                     : NEB implementation
   FAccTs GmbH                                   : IRC, NEB, NEB-TS, DLPNO-Multilevel, CI-OPT
                                                   MM, QMMM, 2- and 3-layer-ONIOM, Crystal-QMMM,
                                                   LR-CPCM, SF, NACMEs, symmetry and pop. for TD-DFT,
                                                   nearIR, NL-DFT gradient (VV10), updates on ESD,
                                                   ML-optimized integration grids
   S Lehtola, MJT Oliveira, MAL Marques          : LibXC Library
   Liviu Ungur et al                             : ANISO software


 Your calculation uses the libint2 library for the computation of 2-el integrals
 For citations please refer to: http://libint.valeyev.net

 Your ORCA version has been built with support for libXC version: 5.1.0
 For citations please refer to: https://tddft.org/programs/libxc/

 This ORCA versions uses:
   CBLAS   interface :  Fast vector & matrix operations
   LAPACKE interface :  Fast linear algebra routines
   SCALAPACK package :  Parallel linear algebra routines
   Shared memory     :  Shared parallel matrices
   BLAS/LAPACK       :  OpenBLAS 0.3.15  USE64BITINT DYNAMIC_ARCH NO_AFFINITY Zen SINGLE_THREADED
        Core in use  :  Zen
   Copyright (c) 2011-2014, The OpenBLAS Project


Your calculation utilizes the geometrical counterpoise correction gCP
Please cite in your paper:
H.Kruse, S. Grimme J.Chem.Phys., 136, (2012), 154101 
   

Your calculation utilizes the atom-pairwise dispersion correction
based on tight binding partial charges (D4)
Cite in your paper:
E.Caldeweyher, C.Bannwarth, S.Grimme, J.Chem.Phys., (2017), 147, 034112.
E.Caldeweyher, S.Ehlert, A.Hansen, H.Neugebauer, S.Grimme, J.Chem.Phys., (2018), in progress.
   

================================================================================

----- Orbital basis set information -----
Your calculation utilizes the basis: def2-mTZVPP
   Stefan Grimme, Andreas Hansen, Sebastian Ehlert, and Jan-Michael Mewes 
   J. Chem. Phys. 154, 000000 (2021). DOI: 10.1063/5.0040021

----- AuxJ basis set information -----
Your calculation utilizes the basis: def2-mTZVPP/J
   Stefan Grimme, Andreas Hansen, Sebastian Ehlert, and Jan-Michael Mewes 
   J. Chem. Phys. 154, 000000 (2021). DOI: 10.1063/5.0040021

================================================================================
                                        WARNINGS
                       Please study these warnings very carefully!
================================================================================

Using LibXC functional ID 497 : Re-regularized SCAN exchange by Furness et al
[ 1]  J. W. Furness, A. D. Kaplan, J. Ning, J. P. Perdew, and J. Sun, J. Phys. Chem. Lett. 11, 8208 (2020)
[ 2]  J. W. Furness, A. D. Kaplan, J. Ning, J. P. Perdew, and J. Sun, J. Phys. Chem. Lett. 11, 9248 (2020)
Using LibXC functional ID 498 : Re-regularized SCAN correlation by Furness et al
[ 1]  J. W. Furness, A. D. Kaplan, J. Ning, J. P. Perdew, and J. Sun, J. Phys. Chem. Lett. 11, 8208 (2020)
[ 2]  J. W. Furness, A. D. Kaplan, J. Ning, J. P. Perdew, and J. Sun, J. Phys. Chem. Lett. 11, 9248 (2020)
Using LibXC functional ID 497 : Re-regularized SCAN exchange by Furness et al
[ 1]  J. W. Furness, A. D. Kaplan, J. Ning, J. P. Perdew, and J. Sun, J. Phys. Chem. Lett. 11, 8208 (2020)
[ 2]  J. W. Furness, A. D. Kaplan, J. Ning, J. P. Perdew, and J. Sun, J. Phys. Chem. Lett. 11, 9248 (2020)
Using LibXC functional ID 498 : Re-regularized SCAN correlation by Furness et al
[ 1]  J. W. Furness, A. D. Kaplan, J. Ning, J. P. Perdew, and J. Sun, J. Phys. Chem. Lett. 11, 8208 (2020)
[ 2]  J. W. Furness, A. D. Kaplan, J. Ning, J. P. Perdew, and J. Sun, J. Phys. Chem. Lett. 11, 9248 (2020)

WARNING: Geometry Optimization
  ===> : Switching off AutoStart
         For restart on a previous wavefunction, please use MOREAD

INFO   : the flag for use of the SHARK integral package has been found!

================================================================================
                                       INPUT FILE
================================================================================
NAME = /tmp/254465/arbr_24_r2scan3c.inp
|  1> %maxcore 4000
|  2> %PAL NPROCS 16 END
|  3> ! r2scan-3c opt freq
|  4> 
|  5> # arbr_24_rdkit_conf_1_r2scan3ccreated by GaussianPrep
|  6> 
|  7> * xyz 0 1
|  8> Br  2.602615  -0.180028  -0.000001
|  9> C  0.735549  0.098613  0.000007
| 10> C  0.265214  1.450258  0.000014
| 11> C  -1.061478  1.69326  0.000012
| 12> N  -1.933002  0.634493  0.000003
| 13> C  -3.296672  0.542796  -0.000056
| 14> N  -3.656585  -0.709399  0.000065
| 15> N  -2.546691  -1.488538  -0.000024
| 16> C  -1.508192  -0.683813  -0.000004
| 17> C  -0.113945  -0.954902  -0.000003
| 18> H  0.966913  2.269823  0.000008
| 19> H  -1.495231  2.682352  0.000001
| 20> H  -3.951616  1.397271  -0.000067
| 21> H  0.219486  -1.981616  -0.000012
| 22> 
| 23> *
| 24> 
| 25>                          ****END OF INPUT****
================================================================================

                       *****************************
                       * Geometry Optimization Run *
                       *****************************

Geometry optimization settings:
Update method            Update   .... BFGS
Choice of coordinates    CoordSys .... Z-matrix Internals
Initial Hessian          InHess   .... Almoef's Model

Convergence Tolerances:
Energy Change            TolE     ....  5.0000e-06 Eh
Max. Gradient            TolMAXG  ....  3.0000e-04 Eh/bohr
RMS Gradient             TolRMSG  ....  1.0000e-04 Eh/bohr
Max. Displacement        TolMAXD  ....  4.0000e-03 bohr
RMS Displacement         TolRMSD  ....  2.0000e-03 bohr
Strict Convergence                ....  False
------------------------------------------------------------------------------
                        ORCA OPTIMIZATION COORDINATE SETUP
------------------------------------------------------------------------------

The optimization will be done in new redundant internal coordinates
Making redundant internal coordinates   ...  (new redundants) done
Evaluating the initial hessian          ...  (Almloef) done
Evaluating the coordinates              ...  done
Calculating the B-matrix                .... done
Calculating the G-matrix                .... done
Diagonalizing the G-matrix              .... done
The first mode is                       ....   35
The number of degrees of freedom        ....   36

    -----------------------------------------------------------------
                    Redundant Internal Coordinates


    -----------------------------------------------------------------
         Definition                    Initial Value    Approx d2E/dq
    -----------------------------------------------------------------
      1. B(C   1,Br  0)                  1.8877         0.337376   
      2. B(C   2,C   1)                  1.4311         0.537160   
      3. B(C   3,C   2)                  1.3488         0.726992   
      4. B(N   4,C   3)                  1.3713         0.599328   
      5. B(C   5,N   4)                  1.3667         0.609495   
      6. B(N   6,C   5)                  1.3029         0.770636   
      7. B(N   7,N   6)                  1.3561         0.567738   
      8. B(C   8,N   7)                  1.3138         0.740376   
      9. B(C   8,N   4)                  1.3851         0.569843   
     10. B(C   9,C   8)                  1.4204         0.558864   
     11. B(C   9,C   1)                  1.3533         0.714866   
     12. B(H  10,C   2)                  1.0789         0.375060   
     13. B(H  11,C   3)                  1.0800         0.373546   
     14. B(H  12,C   5)                  1.0766         0.378263   
     15. B(H  13,C   9)                  1.0795         0.374263   
     16. A(C   2,C   1,C   9)          121.9328         0.433984   
     17. A(Br  0,C   1,C   9)          120.3925         0.425896   
     18. A(Br  0,C   1,C   2)          117.6747         0.404793   
     19. A(C   1,C   2,H  10)          120.2439         0.346844   
     20. A(C   3,C   2,H  10)          120.1902         0.365124   
     21. A(C   1,C   2,C   3)          119.5659         0.435300   
     22. A(C   2,C   3,N   4)          119.0800         0.441070   
     23. A(N   4,C   3,H  11)          116.8613         0.350900   
     24. A(C   2,C   3,H  11)          124.0587         0.364871   
     25. A(C   3,N   4,C   8)          122.6795         0.419446   
     26. A(C   3,N   4,C   5)          133.3064         0.424515   
     27. A(C   5,N   4,C   8)          104.0140         0.420706   
     28. A(N   4,C   5,N   6)          109.8829         0.444161   
     29. A(N   6,C   5,H  12)          126.4943         0.367024   
     30. A(N   4,C   5,H  12)          123.6228         0.352647   
     31. A(C   5,N   6,N   7)          109.0326         0.435568   
     32. A(N   6,N   7,C   8)          107.1595         0.432440   
     33. A(N   7,C   8,C   9)          131.2252         0.436977   
     34. A(N   4,C   8,C   9)          118.8639         0.416957   
     35. A(N   4,C   8,N   7)          109.9109         0.435637   
     36. A(C   1,C   9,C   8)          117.8777         0.437091   
     37. A(C   8,C   9,H  13)          118.9945         0.349041   
     38. A(C   1,C   9,H  13)          123.1278         0.363942   
     39. D(C   3,C   2,C   1,C   9)      0.0001         0.019709   
     40. D(H  10,C   2,C   1,Br  0)      0.0004         0.019709   
     41. D(H  10,C   2,C   1,C   9)   -179.9991         0.019709   
     42. D(C   3,C   2,C   1,Br  0)    179.9996         0.019709   
     43. D(N   4,C   3,C   2,C   1)     -0.0000         0.037472   
     44. D(H  11,C   3,C   2,C   1)   -179.9990         0.037472   
     45. D(N   4,C   3,C   2,H  10)    179.9992         0.037472   
     46. D(H  11,C   3,C   2,H  10)      0.0002         0.037472   
     47. D(C   8,N   4,C   3,H  11)    179.9991         0.028939   
     48. D(C   8,N   4,C   3,C   2)      0.0000         0.028939   
     49. D(C   5,N   4,C   3,H  11)      0.0022         0.028939   
     50. D(C   5,N   4,C   3,C   2)   -179.9968         0.028939   
     51. D(H  12,C   5,N   4,C   3)     -0.0028         0.030002   
     52. D(N   6,C   5,N   4,C   8)      0.0075         0.030002   
     53. D(N   6,C   5,N   4,C   3)   -179.9953         0.030002   
     54. D(H  12,C   5,N   4,C   8)    180.0000         0.030002   
     55. D(N   7,N   6,C   5,H  12)    179.9974         0.045376   
     56. D(N   7,N   6,C   5,N   4)     -0.0104         0.045376   
     57. D(C   8,N   7,N   6,C   5)      0.0090         0.024294   
     58. D(C   9,C   8,N   7,N   6)    179.9965         0.041517   
     59. D(N   4,C   8,N   7,N   6)     -0.0042         0.041517   
     60. D(C   9,C   8,N   4,C   5)    179.9976         0.025987   
     61. D(C   9,C   8,N   4,C   3)     -0.0001         0.025987   
     62. D(N   7,C   8,N   4,C   5)     -0.0018         0.025987   
     63. D(N   7,C   8,N   4,C   3)   -179.9994         0.025987   
     64. D(C   1,C   9,C   8,N   4)      0.0001         0.021391   
     65. D(H  13,C   9,C   1,C   2)    179.9998         0.036123   
     66. D(H  13,C   9,C   1,Br  0)      0.0002         0.036123   
     67. D(C   8,C   9,C   1,C   2)     -0.0001         0.036123   
     68. D(C   1,C   9,C   8,N   7)    179.9993         0.021391   
     69. D(C   8,C   9,C   1,Br  0)   -179.9996         0.036123   
     70. D(H  13,C   9,C   8,N   7)     -0.0006         0.021391   
     71. D(H  13,C   9,C   8,N   4)   -179.9998         0.021391   
    -----------------------------------------------------------------

Number of atoms                         .... 14
Number of degrees of freedom            .... 71

         *************************************************************
         *                GEOMETRY OPTIMIZATION CYCLE   1            *
         *************************************************************
---------------------------------
CARTESIAN COORDINATES (ANGSTROEM)
---------------------------------
  Br     2.602615   -0.180028   -0.000001
  C      0.735549    0.098613    0.000007
  C      0.265214    1.450258    0.000014
  C     -1.061478    1.693260    0.000012
  N     -1.933002    0.634493    0.000003
  C     -3.296672    0.542796   -0.000056
  N     -3.656585   -0.709399    0.000065
  N     -2.546691   -1.488538   -0.000024
  C     -1.508192   -0.683813   -0.000004
  C     -0.113945   -0.954902   -0.000003
  H      0.966913    2.269823    0.000008
  H     -1.495231    2.682352    0.000001
  H     -3.951616    1.397271   -0.000067
  H      0.219486   -1.981616   -0.000012

----------------------------
CARTESIAN COORDINATES (A.U.)
----------------------------
  NO LB      ZA    FRAG     MASS         X           Y           Z
   0 Br   35.0000    0    79.900    4.918230   -0.340204   -0.000002
   1 C     6.0000    0    12.011    1.389986    0.186352    0.000013
   2 C     6.0000    0    12.011    0.501182    2.740590    0.000026
   3 C     6.0000    0    12.011   -2.005903    3.199798    0.000023
   4 N     7.0000    0    14.007   -3.652844    1.199018    0.000006
   5 C     6.0000    0    12.011   -6.229807    1.025736   -0.000106
   6 N     7.0000    0    14.007   -6.909944   -1.340570    0.000123
   7 N     7.0000    0    14.007   -4.812549   -2.812929   -0.000045
   8 C     6.0000    0    12.011   -2.850070   -1.292219   -0.000008
   9 C     6.0000    0    12.011   -0.215325   -1.804503   -0.000006
  10 H     1.0000    0     1.008    1.827201    4.289344    0.000015
  11 H     1.0000    0     1.008   -2.825577    5.068911    0.000002
  12 H     1.0000    0     1.008   -7.467472    2.640460   -0.000127
  13 H     1.0000    0     1.008    0.414768   -3.744712   -0.000023

--------------------------------
INTERNAL COORDINATES (ANGSTROEM)
--------------------------------
 Br     0   0   0     0.000000000000     0.00000000     0.00000000
 C      1   0   0     1.887743694282     0.00000000     0.00000000
 C      2   1   0     1.431139133103   117.67465659     0.00000000
 C      3   2   1     1.348763001743   119.56594223   179.99961614
 N      4   3   2     1.371328422715   119.08004004     0.00000000
 C      5   4   3     1.366749506014   133.30644000   180.00315636
 N      6   5   4     1.302892819934   109.88294775   180.00473833
 N      7   6   5     1.356068685752   109.03261660     0.00000000
 C      8   7   6     1.313796977857   107.15953960     0.00000000
 C      2   1   3     1.353341757045   120.39253444   179.99955588
 H      3   2   1     1.078919958042   120.24388797     0.00000000
 H      4   3   2     1.080020670911   124.05866970   180.00101735
 H      6   5   4     1.076605391442   123.62275852     0.00000000
 H     10   2   1     1.079498897470   123.12779991     0.00000000

---------------------------
INTERNAL COORDINATES (A.U.)
---------------------------
 Br     0   0   0     0.000000000000     0.00000000     0.00000000
 C      1   0   0     3.567318593230     0.00000000     0.00000000
 C      2   1   0     2.704461021102   117.67465659     0.00000000
 C      3   2   1     2.548792692861   119.56594223   179.99961614
 N      4   3   2     2.591435158594   119.08004004     0.00000000
 C      5   4   3     2.582782260039   133.30644000   180.00315636
 N      6   5   4     2.462110611527   109.88294775   180.00473833
 N      7   6   5     2.562598434858   109.03261660     0.00000000
 C      8   7   6     2.482716483723   107.15953960     0.00000000
 C      2   1   3     2.557445286414   120.39253444   179.99955588
 H      3   2   1     2.038863241122   120.24388797     0.00000000
 H      4   3   2     2.040943286995   124.05866970   180.00101735
 H      6   5   4     2.034489344128   123.62275852     0.00000000
 H     10   2   1     2.039957278087   123.12779991     0.00000000

---------------------
BASIS SET INFORMATION
---------------------
There are 4 groups of distinct atoms

 Group   1 Type Br  : 17s13p7d contracted to 6s5p3d pattern {842111/64111/511}
 Group   2 Type C   : 11s6p1d contracted to 5s3p1d pattern {62111/411/1}
 Group   3 Type N   : 11s6p2d contracted to 5s3p2d pattern {62111/411/11}
 Group   4 Type H   : 4s1p contracted to 2s1p pattern {31/1}

Atom   0Br   basis set group =>   1
Atom   1C    basis set group =>   2
Atom   2C    basis set group =>   2
Atom   3C    basis set group =>   2
Atom   4N    basis set group =>   3
Atom   5C    basis set group =>   2
Atom   6N    basis set group =>   3
Atom   7N    basis set group =>   3
Atom   8C    basis set group =>   2
Atom   9C    basis set group =>   2
Atom  10H    basis set group =>   4
Atom  11H    basis set group =>   4
Atom  12H    basis set group =>   4
Atom  13H    basis set group =>   4
---------------------------------
AUXILIARY/J BASIS SET INFORMATION
---------------------------------
There are 4 groups of distinct atoms

 Group   1 Type Br  : 19s5p5d3f1g contracted to 8s4p3d2f1g pattern {121111111/2111/311/21/1}
 Group   2 Type C   : 8s3p3d contracted to 6s3p3d pattern {311111/111/111}
 Group   3 Type N   : 8s3p3d contracted to 6s3p3d pattern {311111/111/111}
 Group   4 Type H   : 5s2p1d contracted to 3s1p1d pattern {311/2/1}

Atom   0Br   basis set group =>   1
Atom   1C    basis set group =>   2
Atom   2C    basis set group =>   2
Atom   3C    basis set group =>   2
Atom   4N    basis set group =>   3
Atom   5C    basis set group =>   2
Atom   6N    basis set group =>   3
Atom   7N    basis set group =>   3
Atom   8C    basis set group =>   2
Atom   9C    basis set group =>   2
Atom  10H    basis set group =>   4
Atom  11H    basis set group =>   4
Atom  12H    basis set group =>   4
Atom  13H    basis set group =>   4


           ************************************************************
           *        Program running with 16 parallel MPI-processes    *
           *              working on a common directory               *
           ************************************************************
------------------------------------------------------------------------------
                           ORCA GTO INTEGRAL CALCULATION
                           -- RI-GTO INTEGRALS CHOSEN --
------------------------------------------------------------------------------
------------------------------------------------------------------------------
                   ___                                                        
                  /   \      - P O W E R E D   B Y -                         
                 /     \                                                     
                 |  |  |   _    _      __       _____    __    __             
                 |  |  |  | |  | |    /  \     |  _  \  |  |  /  |          
                  \  \/   | |  | |   /    \    | | | |  |  | /  /          
                 / \  \   | |__| |  /  /\  \   | |_| |  |  |/  /          
                |  |  |   |  __  | /  /__\  \  |    /   |      \           
                |  |  |   | |  | | |   __   |  |    \   |  |\   \          
                \     /   | |  | | |  |  |  |  | |\  \  |  | \   \       
                 \___/    |_|  |_| |__|  |__|  |_| \__\ |__|  \__/        
                                                                              
                      - O R C A' S   B I G   F R I E N D -                    
                                      &                                       
                       - I N T E G R A L  F E E D E R -                       
                                                                              
 v1 FN, 2020, v2 2021                                                         
------------------------------------------------------------------------------


Reading SHARK input file /tmp/254465/arbr_24_r2scan3c.SHARKINP.tmp ... ok
----------------------
SHARK INTEGRAL PACKAGE
----------------------

Number of atoms                             ...     14
Number of basis functions                   ...    242
Number of shells                            ...    110
Maximum angular momentum                    ...      2
Integral batch strategy                     ... SHARK/LIBINT Hybrid
RI-J (if used) integral strategy            ... SPLIT-RIJ (Revised 2003 algorithm where possible)
Printlevel                                  ...      1
Contraction scheme used                     ... SEGMENTED contraction
Coulomb Range Separation                    ... NOT USED
Exchange Range Separation                   ... NOT USED
Finite Nucleus Model                        ... NOT USED
Auxiliary Coulomb fitting basis             ... AVAILABLE
   # of basis functions in Aux-J            ...    372
   # of shells in Aux-J                     ...    146
   Maximum angular momentum in Aux-J        ...      4
Auxiliary J/K fitting basis                 ... NOT available
Auxiliary Correlation fitting basis         ... NOT available
Auxiliary 'external' fitting basis          ... NOT available
Integral threshold                          ...     2.500000e-11
Primitive cut-off                           ...     2.500000e-12
Primitive pair pre-selection threshold      ...     2.500000e-12

Calculating pre-screening integrals         ... done (  0.0 sec) Dimension = 110
Organizing shell pair data                  ... done (  0.0 sec)
Shell pair information
Total number of shell pairs                 ...      6105
Shell pairs after pre-screening             ...      5343
Total number of primitive shell pairs       ...     25029
Primitive shell pairs kept                  ...     14836
          la=0 lb=0:   1467 shell pairs
          la=1 lb=0:   1893 shell pairs
          la=1 lb=1:    617 shell pairs
          la=2 lb=0:    762 shell pairs
          la=2 lb=1:    495 shell pairs
          la=2 lb=2:    109 shell pairs

Calculating one electron integrals          ... done (  0.0 sec)
Calculating RI/J V-Matrix + Cholesky decomp.... done (  0.0 sec)
Calculating Nuclear repulsion               ... done (  0.0 sec) ENN=    702.605846725759 Eh

SHARK setup successfully completed in   0.1 seconds

Maximum memory used throughout the entire GTOINT-calculation: 18.4 MB


           ************************************************************
           *        Program running with 16 parallel MPI-processes    *
           *              working on a common directory               *
           ************************************************************
-------------------------------------------------------------------------------
                                 ORCA SCF
-------------------------------------------------------------------------------

------------
SCF SETTINGS
------------
Hamiltonian:
 Density Functional     Method          .... DFT(GTOs)
  Functional kind                       .... Exchange
  Functional name                       .... Re-regularized SCAN exchange by Furness et al
  Functional family                     .... MGGA
  Functional refs                              
    [ 0] J. W. Furness, A. D. Kaplan, J. Ning, J. P. Perdew, and J. Sun, J. Phys. Chem. Lett. 11, 8208 (2020)
    [ 1] J. W. Furness, A. D. Kaplan, J. Ning, J. P. Perdew, and J. Sun, J. Phys. Chem. Lett. 11, 9248 (2020)
  Functional external parameters         .... 8
 Parameter  0 :         c1 parameter
 Parameter  1 :         c2 parameter
 Parameter  2 :          d parameter
 Parameter  3 :         k1 parameter
 Parameter  4 :       taur parameter
 Parameter  5 :     alphar parameter
 Parameter  6 :        eta parameter
 Parameter  7 :        dp2 parameter
  Functional kind                       .... Correlation
  Functional name                       .... Re-regularized SCAN correlation by Furness et al
  Functional family                     .... MGGA
  Functional refs                              
    [ 0] J. W. Furness, A. D. Kaplan, J. Ning, J. P. Perdew, and J. Sun, J. Phys. Chem. Lett. 11, 8208 (2020)
    [ 1] J. W. Furness, A. D. Kaplan, J. Ning, J. P. Perdew, and J. Sun, J. Phys. Chem. Lett. 11, 9248 (2020)
  Functional external parameters         .... 0
 Gradients option       PostSCFGGA      .... off
   Density functional embedding theory  .... OFF
 RI-approximation to the Coulomb term is turned on
   Number of AuxJ basis functions       .... 372


General Settings:
 Integral files         IntName         .... /tmp/254465/arbr_24_r2scan3c
 Hartree-Fock type      HFTyp           .... RHF
 Total Charge           Charge          ....    0
 Multiplicity           Mult            ....    1
 Number of Electrons    NEL             ....   96
 Basis Dimension        Dim             ....  242
 Nuclear Repulsion      ENuc            ....    702.6058467258 Eh

Convergence Acceleration:
 DIIS                   CNVDIIS         .... on
   Start iteration      DIISMaxIt       ....    12
   Startup error        DIISStart       ....  0.200000
   # of expansion vecs  DIISMaxEq       ....     5
   Bias factor          DIISBfac        ....   1.050
   Max. coefficient     DIISMaxC        ....  10.000
 Trust-Rad. Augm. Hess. CNVTRAH         .... auto
   Auto Start mean grad. ratio tolernc. ....  1.125000
   Auto Start start iteration           ....    20
   Auto Start num. interpolation iter.  ....    10
   Max. Number of Micro iterations      ....    16
   Max. Number of Macro iterations      .... Maxiter - #DIIS iter
   Number of Davidson start vectors     ....     2
   Converg. threshold I  (grad. norm)   ....   1.000e-05
   Converg. threshold II (energy diff.) ....   1.000e-08
   Grad. Scal. Fac. for Micro threshold ....   0.100
   Minimum threshold for Micro iter.    ....   0.010
   NR start threshold (gradient norm)   ....   0.001
   Initial trust radius                 ....   0.400
   Minimum AH scaling param. (alpha)    ....   1.000
   Maximum AH scaling param. (alpha)    .... 1000.000
   Orbital update algorithm             .... Taylor
   White noise on init. David. guess    .... on
   Maximum white noise                  ....   0.010
   Quad. conv. algorithm                .... NR
   COSX micro iterations for RIJONX calc.... off
 SOSCF                  CNVSOSCF        .... on
   Start iteration      SOSCFMaxIt      ....   150
   Startup grad/error   SOSCFStart      ....  0.003300
 Level Shifting         CNVShift        .... on
   Level shift para.    LevelShift      ....    0.2500
   Turn off err/grad.   ShiftErr        ....    0.0010
 Zerner damping         CNVZerner       .... off
 Static damping         CNVDamp         .... on
   Fraction old density DampFac         ....    0.7000
   Max. Damping (<1)    DampMax         ....    0.9800
   Min. Damping (>=0)   DampMin         ....    0.0000
   Turn off err/grad.   DampErr         ....    0.1000
 Fernandez-Rico         CNVRico         .... off

SCF Procedure:
 Maximum # iterations   MaxIter         ....   125
 SCF integral mode      SCFMode         .... Direct
   Integral package                     .... SHARK and LIBINT hybrid scheme
 Reset frequency        DirectResetFreq ....    20
 Integral Threshold     Thresh          ....  2.500e-11 Eh
 Primitive CutOff       TCut            ....  2.500e-12 Eh

Convergence Tolerance:
 Convergence Check Mode ConvCheckMode   .... Total+1el-Energy
 Convergence forced     ConvForced      .... 0
 Energy Change          TolE            ....  1.000e-08 Eh
 1-El. energy change                    ....  1.000e-05 Eh
 Orbital Gradient       TolG            ....  1.000e-05
 Orbital Rotation angle TolX            ....  1.000e-05
 DIIS Error             TolErr          ....  5.000e-07


Diagonalization of the overlap matrix:
Smallest eigenvalue                        ... 4.654e-05
Time for diagonalization                   ...    0.005 sec
Threshold for overlap eigenvalues          ... 1.000e-08
Number of eigenvalues below threshold      ... 0
Time for construction of square roots      ...    0.003 sec
Total time needed                          ...    0.010 sec

Time for model grid setup =    0.066 sec

------------------------------
INITIAL GUESS: MODEL POTENTIAL
------------------------------
Loading Hartree-Fock densities                     ... done
Calculating cut-offs                               ... done
Initializing the effective Hamiltonian             ... done
Setting up the integral package (SHARK)            ... done
Starting the Coulomb interaction                   ... done (   0.0 sec)
Reading the grid                                   ... done
Mapping shells                                     ... done
Starting the XC term evaluation                    ... done (   0.0 sec)
  promolecular density results
     # of electrons  =     95.995134391
     EX              =   -140.814633874
     EC              =     -3.791496814
     EX+EC           =   -144.606130689
Transforming the Hamiltonian                       ... done (   0.0 sec)
Diagonalizing the Hamiltonian                      ... done (   0.0 sec)
Back transforming the eigenvectors                 ... done (   0.0 sec)
Now organizing SCF variables                       ... done
                      ------------------
                      INITIAL GUESS DONE (   0.2 sec)
                      ------------------
-------------------
DFT GRID GENERATION
-------------------

General Integration Accuracy     IntAcc      ... 4.388
Radial Grid Type                 RadialGrid  ... OptM3 with GC (2021)
Angular Grid (max. ang.)         AngularGrid ... 4 (Lebedev-302)
Angular grid pruning method      GridPruning ... 4 (adaptive)
Weight generation scheme         WeightScheme... Becke
Basis function cutoff            BFCut       ... 1.0000e-11
Integration weight cutoff        WCut        ... 1.0000e-14
Angular grids for H and He will be reduced by one unit
Partially contracted basis set               ... off
Rotationally invariant grid construction     ... off

Total number of grid points                  ...    78308
Total number of batches                      ...     1229
Average number of points per batch           ...       63
Average number of grid points per atom       ...     5593
Time for grid setup =    0.369 sec

--------------
SCF ITERATIONS
--------------
ITER       Energy         Delta-E        Max-DP      RMS-DP      [F,P]     Damp
               ***  Starting incremental Fock matrix formation  ***
  0  -2969.1433158911   0.000000000000 0.04627425  0.00158658  0.1792036 0.7000
  1  -2969.2318917864  -0.088575895282 0.03768640  0.00125080  0.0711269 0.7000
                               ***Turning on DIIS***
  2  -2969.2628746839  -0.030982897533 0.05778692  0.00201308  0.0353259 0.0000
  3  -2969.3102363900  -0.047361706075 0.04312028  0.00128824  0.0415859 0.0000
  4  -2969.3238507800  -0.013614390017 0.01790002  0.00048308  0.0181118 0.0000
                      *** Initiating the SOSCF procedure ***
                           *** Shutting down DIIS ***
                      *** Re-Reading the Fockian *** 
                      *** Removing any level shift *** 
ITER      Energy       Delta-E        Grad      Rot      Max-DP    RMS-DP
  5  -2969.32538375  -0.0015329670  0.000787  0.000787  0.007545  0.000158
               *** Restarting incremental Fock matrix formation ***
  6  -2969.32545819  -0.0000744421  0.000442  0.003385  0.003204  0.000084
  7  -2969.32543894   0.0000192477  0.000950  0.001227  0.001427  0.000040
  8  -2969.32547014  -0.0000312019  0.000165  0.001392  0.000730  0.000022
  9  -2969.32546783   0.0000023100  0.000362  0.000885  0.000422  0.000012
 10  -2969.32547097  -0.0000031325  0.000057  0.000182  0.000400  0.000008
 11  -2969.32547069   0.0000002803  0.000102  0.000142  0.000188  0.000004
 12  -2969.32547109  -0.0000004039  0.000021  0.000059  0.000121  0.000002
 13  -2969.32547108   0.0000000080  0.000021  0.000043  0.000059  0.000001
 14  -2969.32547109  -0.0000000086  0.000007  0.000009  0.000033  0.000001
 15  -2969.32547109   0.0000000048  0.000009  0.000006  0.000029  0.000000
                  ***Gradient check signals convergence***
              ***Rediagonalizing the Fockian in SOSCF/NRSCF***

               *****************************************************
               *                     SUCCESS                       *
               *           SCF CONVERGED AFTER  16 CYCLES          *
               *****************************************************


----------------
TOTAL SCF ENERGY
----------------

Total Energy       :        -2969.32547108 Eh          -80799.45383 eV

Components:
Nuclear Repulsion  :          702.60584673 Eh           19118.87707 eV
Electronic Energy  :        -3671.93131781 Eh          -99918.33091 eV
One Electron Energy:        -5512.07042922 Eh         -149991.06178 eV
Two Electron Energy:         1840.13911141 Eh           50072.73087 eV

Virial components:
Potential Energy   :        -5933.71219358 Eh         -161464.51748 eV
Kinetic Energy     :         2964.38672250 Eh           80665.06365 eV
Virial Ratio       :            2.00166603


DFT components:
N(Alpha)           :       47.999977119133 electrons
N(Beta)            :       47.999977119133 electrons
N(Total)           :       95.999954238265 electrons
E(X)               :     -142.221284623149 Eh       
E(C)               :       -3.759144783346 Eh       
E(XC)              :     -145.980429406495 Eh       
DFET-embed. en.    :        0.000000000000 Eh       

---------------
SCF CONVERGENCE
---------------

  Last Energy change         ...    1.7994e-09  Tolerance :   1.0000e-08
  Last MAX-Density change    ...    3.8950e-05  Tolerance :   1.0000e-07
  Last RMS-Density change    ...    6.9217e-07  Tolerance :   5.0000e-09
  Last Orbital Gradient      ...    1.9635e-06  Tolerance :   1.0000e-05
  Last Orbital Rotation      ...    4.8304e-06  Tolerance :   1.0000e-05

             **** THE GBW FILE WAS UPDATED (/tmp/254465/arbr_24_r2scan3c.gbw) ****
             **** DENSITY /tmp/254465/arbr_24_r2scan3c.scfp WAS UPDATED ****
             **** ENERGY FILE WAS UPDATED (/tmp/254465/arbr_24_r2scan3c.en.tmp) ****
             **** THE GBW FILE WAS UPDATED (/tmp/254465/arbr_24_r2scan3c.gbw) ****
             **** DENSITY /tmp/254465/arbr_24_r2scan3c.scfp WAS UPDATED ****
----------------
ORBITAL ENERGIES
----------------

  NO   OCC          E(Eh)            E(eV) 
   0   2.0000    -482.250282    -13122.6973 
   1   2.0000     -62.321571     -1695.8562 
   2   2.0000     -56.102829     -1526.6356 
   3   2.0000     -56.098902     -1526.5287 
   4   2.0000     -56.098876     -1526.5280 
   5   2.0000     -14.268970      -388.2784 
   6   2.0000     -14.187623      -386.0648 
   7   2.0000     -14.176379      -385.7589 
   8   2.0000     -10.127369      -275.5797 
   9   2.0000     -10.121417      -275.4177 
  10   2.0000     -10.116942      -275.2960 
  11   2.0000     -10.105186      -274.9761 
  12   2.0000     -10.082558      -274.3603 
  13   2.0000     -10.079156      -274.2678 
  14   2.0000      -8.653563      -235.4754 
  15   2.0000      -6.461533      -175.8272 
  16   2.0000      -6.447336      -175.4409 
  17   2.0000      -6.446806      -175.4265 
  18   2.0000      -2.558972       -69.6332 
  19   2.0000      -2.555682       -69.5436 
  20   2.0000      -2.555316       -69.5337 
  21   2.0000      -2.544479       -69.2388 
  22   2.0000      -2.544465       -69.2384 
  23   2.0000      -1.058988       -28.8165 
  24   2.0000      -0.940830       -25.6013 
  25   2.0000      -0.852791       -23.2056 
  26   2.0000      -0.801604       -21.8127 
  27   2.0000      -0.773932       -21.0598 
  28   2.0000      -0.734497       -19.9867 
  29   2.0000      -0.657760       -17.8985 
  30   2.0000      -0.621692       -16.9171 
  31   2.0000      -0.608532       -16.5590 
  32   2.0000      -0.539629       -14.6840 
  33   2.0000      -0.499442       -13.5905 
  34   2.0000      -0.481734       -13.1086 
  35   2.0000      -0.471033       -12.8175 
  36   2.0000      -0.463899       -12.6233 
  37   2.0000      -0.445489       -12.1224 
  38   2.0000      -0.398365       -10.8401 
  39   2.0000      -0.374490       -10.1904 
  40   2.0000      -0.374012       -10.1774 
  41   2.0000      -0.342062        -9.3080 
  42   2.0000      -0.298546        -8.1238 
  43   2.0000      -0.291165        -7.9230 
  44   2.0000      -0.286023        -7.7831 
  45   2.0000      -0.267433        -7.2772 
  46   2.0000      -0.234136        -6.3712 
  47   2.0000      -0.223157        -6.0724 
  48   0.0000      -0.092883        -2.5275 
  49   0.0000      -0.050037        -1.3616 
  50   0.0000      -0.040599        -1.1048 
  51   0.0000      -0.002693        -0.0733 
  52   0.0000       0.062354         1.6967 
  53   0.0000       0.073355         1.9961 
  54   0.0000       0.075144         2.0448 
  55   0.0000       0.095606         2.6016 
  56   0.0000       0.112428         3.0593 
  57   0.0000       0.118919         3.2360 
  58   0.0000       0.125284         3.4091 
  59   0.0000       0.138542         3.7699 
  60   0.0000       0.149188         4.0596 
  61   0.0000       0.167103         4.5471 
  62   0.0000       0.173022         4.7082 
  63   0.0000       0.182525         4.9668 
  64   0.0000       0.191383         5.2078 
  65   0.0000       0.214177         5.8280 
  66   0.0000       0.215554         5.8655 
  67   0.0000       0.221668         6.0319 
  68   0.0000       0.238278         6.4839 
  69   0.0000       0.238594         6.4925 
  70   0.0000       0.251050         6.8314 
  71   0.0000       0.256338         6.9753 
  72   0.0000       0.268088         7.2950 
  73   0.0000       0.269999         7.3470 
  74   0.0000       0.289678         7.8825 
  75   0.0000       0.292210         7.9514 
  76   0.0000       0.307221         8.3599 
  77   0.0000       0.314684         8.5630 
  78   0.0000       0.340574         9.2675 
  79   0.0000       0.350834         9.5467 
  80   0.0000       0.354659         9.6508 
  81   0.0000       0.363614         9.8944 
  82   0.0000       0.380754        10.3608 
  83   0.0000       0.392313        10.6754 
  84   0.0000       0.404298        11.0015 
  85   0.0000       0.422542        11.4980 
  86   0.0000       0.431834        11.7508 
  87   0.0000       0.447567        12.1789 
  88   0.0000       0.453514        12.3407 
  89   0.0000       0.456650        12.4261 
  90   0.0000       0.490636        13.3509 
  91   0.0000       0.494487        13.4557 
  92   0.0000       0.503376        13.6976 
  93   0.0000       0.521665        14.1952 
  94   0.0000       0.523597        14.2478 
  95   0.0000       0.537903        14.6371 
  96   0.0000       0.541194        14.7266 
  97   0.0000       0.542657        14.7665 
  98   0.0000       0.573328        15.6011 
  99   0.0000       0.579146        15.7594 
 100   0.0000       0.580412        15.7938 
 101   0.0000       0.583363        15.8741 
 102   0.0000       0.593960        16.1625 
 103   0.0000       0.619870        16.8675 
 104   0.0000       0.625110        17.0101 
 105   0.0000       0.631457        17.1828 
 106   0.0000       0.643578        17.5126 
 107   0.0000       0.661210        17.9924 
 108   0.0000       0.684122        18.6159 
 109   0.0000       0.700937        19.0735 
 110   0.0000       0.716753        19.5038 
 111   0.0000       0.775006        21.0890 
 112   0.0000       0.787316        21.4240 
 113   0.0000       0.794809        21.6278 
 114   0.0000       0.833170        22.6717 
 115   0.0000       0.841717        22.9043 
 116   0.0000       0.858773        23.3684 
 117   0.0000       0.875479        23.8230 
 118   0.0000       0.902293        24.5526 
 119   0.0000       0.927727        25.2447 
 120   0.0000       0.972767        26.4703 
 121   0.0000       0.999641        27.2016 
 122   0.0000       1.013721        27.5848 
 123   0.0000       1.030285        28.0355 
 124   0.0000       1.056837        28.7580 
 125   0.0000       1.111311        30.2403 
 126   0.0000       1.133607        30.8470 
 127   0.0000       1.173794        31.9406 
 128   0.0000       1.221172        33.2298 
 129   0.0000       1.250404        34.0252 
 130   0.0000       1.268368        34.5140 
 131   0.0000       1.316401        35.8211 
 132   0.0000       1.317639        35.8548 
 133   0.0000       1.338811        36.4309 
 134   0.0000       1.350882        36.7594 
 135   0.0000       1.379996        37.5516 
 136   0.0000       1.392771        37.8992 
 137   0.0000       1.401140        38.1270 
 138   0.0000       1.417045        38.5598 
 139   0.0000       1.430744        38.9325 
 140   0.0000       1.446655        39.3655 
 141   0.0000       1.447585        39.3908 
 142   0.0000       1.462542        39.7978 
 143   0.0000       1.489202        40.5232 
 144   0.0000       1.493248        40.6333 
 145   0.0000       1.504898        40.9504 
 146   0.0000       1.530065        41.6352 
 147   0.0000       1.534597        41.7585 
 148   0.0000       1.587734        43.2044 
 149   0.0000       1.616832        43.9962 
 150   0.0000       1.638460        44.5848 
 151   0.0000       1.663811        45.2746 
 152   0.0000       1.692837        46.0644 
 153   0.0000       1.703905        46.3656 
 154   0.0000       1.740619        47.3647 
 155   0.0000       1.767021        48.0831 
 156   0.0000       1.773615        48.2625 
 157   0.0000       1.784822        48.5675 
 158   0.0000       1.808634        49.2154 
 159   0.0000       1.870570        50.9008 
 160   0.0000       1.870898        50.9097 
 161   0.0000       1.912884        52.0522 
 162   0.0000       1.969841        53.6021 
 163   0.0000       2.001364        54.4599 
 164   0.0000       2.023563        55.0639 
 165   0.0000       2.055056        55.9209 
 166   0.0000       2.081699        56.6459 
 167   0.0000       2.087061        56.7918 
 168   0.0000       2.100138        57.1477 
 169   0.0000       2.119886        57.6850 
 170   0.0000       2.136886        58.1476 
 171   0.0000       2.165349        58.9221 
 172   0.0000       2.199658        59.8557 
 173   0.0000       2.218211        60.3606 
 174   0.0000       2.247233        61.1503 
 175   0.0000       2.258019        61.4438 
 176   0.0000       2.274625        61.8957 
 177   0.0000       2.292868        62.3921 
 178   0.0000       2.296663        62.4954 
 179   0.0000       2.315463        63.0069 
 180   0.0000       2.317814        63.0709 
 181   0.0000       2.333332        63.4932 
 182   0.0000       2.347689        63.8839 
 183   0.0000       2.381703        64.8094 
 184   0.0000       2.397568        65.2411 
 185   0.0000       2.402349        65.3713 
 186   0.0000       2.416753        65.7632 
 187   0.0000       2.423524        65.9474 
 188   0.0000       2.462317        67.0031 
 189   0.0000       2.485250        67.6271 
 190   0.0000       2.506088        68.1941 
 191   0.0000       2.519957        68.5715 
 192   0.0000       2.531315        68.8806 
 193   0.0000       2.549956        69.3878 
 194   0.0000       2.584195        70.3195 
 195   0.0000       2.593908        70.5838 
 196   0.0000       2.616939        71.2105 
 197   0.0000       2.667694        72.5916 
 198   0.0000       2.673649        72.7537 
 199   0.0000       2.693769        73.3012 
 200   0.0000       2.722973        74.0959 
 201   0.0000       2.753363        74.9228 
 202   0.0000       2.775524        75.5258 
 203   0.0000       2.780627        75.6647 
 204   0.0000       2.812822        76.5408 
 205   0.0000       2.835904        77.1689 
 206   0.0000       2.842807        77.3567 
 207   0.0000       2.850985        77.5792 
 208   0.0000       2.889394        78.6244 
 209   0.0000       2.924173        79.5708 
 210   0.0000       2.943799        80.1049 
 211   0.0000       2.966054        80.7104 
 212   0.0000       2.994344        81.4802 
 213   0.0000       3.029485        82.4365 
 214   0.0000       3.033905        82.5567 
 215   0.0000       3.115818        84.7857 
 216   0.0000       3.139705        85.4357 
 217   0.0000       3.142997        85.5253 
 218   0.0000       3.178053        86.4792 
 219   0.0000       3.262844        88.7865 
 220   0.0000       3.299288        89.7782 
 221   0.0000       3.346820        91.0716 
 222   0.0000       3.455863        94.0388 
 223   0.0000       3.517943        95.7281 
 224   0.0000       3.618360        98.4606 
 225   0.0000       3.769775       102.5808 
 226   0.0000       3.786995       103.0494 
 227   0.0000       3.944945       107.3474 
 228   0.0000       3.973370       108.1209 
 229   0.0000       4.013970       109.2257 
 230   0.0000       4.082874       111.1006 
 231   0.0000       4.535487       123.4169 
 232   0.0000       7.469293       203.2498 
 233   0.0000      21.603847       587.8706 
 234   0.0000      21.911959       596.2547 
 235   0.0000      22.075523       600.7055 
 236   0.0000      22.164174       603.1178 
 237   0.0000      22.219134       604.6134 
 238   0.0000      22.252212       605.5135 
 239   0.0000      31.830586       866.1543 
 240   0.0000      31.936352       869.0323 
 241   0.0000      32.051313       872.1606 

                    ********************************
                    * MULLIKEN POPULATION ANALYSIS *
                    ********************************

-----------------------
MULLIKEN ATOMIC CHARGES
-----------------------
   0 Br:   -0.091956
   1 C :    0.085924
   2 C :   -0.162379
   3 C :   -0.137094
   4 N :    0.252296
   5 C :   -0.060903
   6 N :   -0.200809
   7 N :   -0.129440
   8 C :    0.098775
   9 C :   -0.300482
  10 H :    0.171462
  11 H :    0.144425
  12 H :    0.145408
  13 H :    0.184772
Sum of atomic charges:   -0.0000000

--------------------------------
MULLIKEN REDUCED ORBITAL CHARGES
--------------------------------
  0 Brs       :     7.979394  s :     7.979394
      pz      :     5.928264  p :    17.063970
      px      :     5.201443
      py      :     5.934263
      dz2     :     2.006104  d :    10.048591
      dxz     :     2.015019
      dyz     :     2.000533
      dx2y2   :     2.017806
      dxy     :     2.009129
  1 C s       :     3.124579  s :     3.124579
      pz      :     1.040497  p :     2.739036
      px      :     0.754159
      py      :     0.944380
      dz2     :     0.003511  d :     0.050461
      dxz     :     0.006927
      dyz     :     0.007669
      dx2y2   :     0.016785
      dxy     :     0.015569
  2 C s       :     3.154721  s :     3.154721
      pz      :     1.026533  p :     2.970023
      px      :     0.993894
      py      :     0.949596
      dz2     :     0.003429  d :     0.037635
      dxz     :     0.005857
      dyz     :     0.004118
      dx2y2   :     0.012405
      dxy     :     0.011826
  3 C s       :     3.244987  s :     3.244987
      pz      :     0.990386  p :     2.840592
      px      :     0.912702
      py      :     0.937504
      dz2     :     0.004130  d :     0.051515
      dxz     :     0.010013
      dyz     :     0.004315
      dx2y2   :     0.012456
      dxy     :     0.020601
  4 N s       :     3.145822  s :     3.145822
      pz      :     1.453585  p :     3.361733
      px      :     0.973150
      py      :     0.934998
      dz2     :     0.010599  d :     0.240150
      dxz     :     0.039406
      dyz     :     0.022187
      dx2y2   :     0.083071
      dxy     :     0.084887
  5 C s       :     3.237632  s :     3.237632
      pz      :     1.019497  p :     2.757581
      px      :     0.826719
      py      :     0.911365
      dz2     :     0.004778  d :     0.065690
      dxz     :     0.008728
      dyz     :     0.008130
      dx2y2   :     0.025166
      dxy     :     0.018887
  6 N s       :     3.588630  s :     3.588630
      pz      :     1.121981  p :     3.540187
      px      :     1.348449
      py      :     1.069757
      dz2     :     0.005677  d :     0.071991
      dxz     :     0.022143
      dyz     :     0.020579
      dx2y2   :     0.006561
      dxy     :     0.017031
  7 N s       :     3.476406  s :     3.476406
      pz      :     1.208999  p :     3.581840
      px      :     0.909118
      py      :     1.463723
      dz2     :     0.005969  d :     0.071194
      dxz     :     0.020353
      dyz     :     0.018228
      dx2y2   :    -0.002800
      dxy     :     0.029445
  8 C s       :     3.087758  s :     3.087758
      pz      :     0.953808  p :     2.734340
      px      :     0.870335
      py      :     0.910196
      dz2     :     0.005243  d :     0.079126
      dxz     :     0.011599
      dyz     :     0.011092
      dx2y2   :     0.029323
      dxy     :     0.021869
  9 C s       :     3.270715  s :     3.270715
      pz      :     0.991703  p :     2.991830
      px      :     0.984444
      py      :     1.015683
      dz2     :     0.003469  d :     0.037936
      dxz     :     0.006417
      dyz     :     0.003909
      dx2y2   :     0.013232
      dxy     :     0.010910
 10 H s       :     0.808670  s :     0.808670
      pz      :     0.004317  p :     0.019868
      px      :     0.007148
      py      :     0.008403
 11 H s       :     0.835470  s :     0.835470
      pz      :     0.004331  p :     0.020105
      px      :     0.003957
      py      :     0.011818
 12 H s       :     0.833860  s :     0.833860
      pz      :     0.004877  p :     0.020731
      px      :     0.006923
      py      :     0.008931
 13 H s       :     0.795500  s :     0.795500
      pz      :     0.003999  p :     0.019728
      px      :     0.003855
      py      :     0.011874


                     *******************************
                     * LOEWDIN POPULATION ANALYSIS *
                     *******************************

----------------------
LOEWDIN ATOMIC CHARGES
----------------------
   0 Br:    0.227395
   1 C :   -0.225428
   2 C :   -0.150010
   3 C :    0.128467
   4 N :   -0.616617
   5 C :    0.281459
   6 N :   -0.334618
   7 N :   -0.340745
   8 C :    0.327609
   9 C :   -0.091997
  10 H :    0.187051
  11 H :    0.201213
  12 H :    0.208679
  13 H :    0.197543

-------------------------------
LOEWDIN REDUCED ORBITAL CHARGES
-------------------------------
  0 Brs       :     7.664239  s :     7.664239
      pz      :     5.905340  p :    17.038622
      px      :     5.224481
      py      :     5.908801
      dz2     :     2.009998  d :    10.069744
      dxz     :     2.018385
      dyz     :     2.000555
      dx2y2   :     2.028682
      dxy     :     2.012124
  1 C s       :     2.925330  s :     2.925330
      pz      :     1.031410  p :     3.198845
      px      :     1.035640
      py      :     1.131795
      dz2     :     0.006741  d :     0.101252
      dxz     :     0.011347
      dyz     :     0.013629
      dx2y2   :     0.035911
      dxy     :     0.033624
  2 C s       :     2.897578  s :     2.897578
      pz      :     1.010017  p :     3.172743
      px      :     1.088378
      py      :     1.074348
      dz2     :     0.005859  d :     0.079689
      dxz     :     0.009839
      dyz     :     0.007482
      dx2y2   :     0.027394
      dxy     :     0.029115
  3 C s       :     2.811042  s :     2.811042
      pz      :     0.927690  p :     2.947903
      px      :     1.023896
      py      :     0.996317
      dz2     :     0.008419  d :     0.112587
      dxz     :     0.019249
      dyz     :     0.007386
      dx2y2   :     0.032715
      dxy     :     0.044818
  4 N s       :     3.052158  s :     3.052158
      pz      :     1.385055  p :     3.802047
      px      :     1.211511
      py      :     1.205480
      dz2     :     0.077575  d :     0.762413
      dxz     :     0.141998
      dyz     :     0.104702
      dx2y2   :     0.226145
      dxy     :     0.211992
  5 C s       :     2.764169  s :     2.764169
      pz      :     0.897474  p :     2.810502
      px      :     0.893791
      py      :     1.019237
      dz2     :     0.011169  d :     0.143871
      dxz     :     0.016620
      dyz     :     0.013101
      dx2y2   :     0.058059
      dxy     :     0.044922
  6 N s       :     3.186965  s :     3.186965
      pz      :     1.061344  p :     3.597099
      px      :     1.375660
      py      :     1.160095
      dz2     :     0.053608  d :     0.550554
      dxz     :     0.056728
      dyz     :     0.117586
      dx2y2   :     0.164054
      dxy     :     0.158577
  7 N s       :     3.181026  s :     3.181026
      pz      :     1.140108  p :     3.635217
      px      :     1.076987
      py      :     1.418122
      dz2     :     0.053097  d :     0.524502
      dxz     :     0.114843
      dyz     :     0.039334
      dx2y2   :     0.173395
      dxy     :     0.143833
  8 C s       :     2.712709  s :     2.712709
      pz      :     0.870074  p :     2.792222
      px      :     1.015671
      py      :     0.906477
      dz2     :     0.012325  d :     0.167460
      dxz     :     0.019916
      dyz     :     0.021888
      dx2y2   :     0.065278
      dxy     :     0.048053
  9 C s       :     2.891166  s :     2.891166
      pz      :     0.980991  p :     3.121867
      px      :     1.034256
      py      :     1.106620
      dz2     :     0.005829  d :     0.078964
      dxz     :     0.011370
      dyz     :     0.006133
      dx2y2   :     0.028996
      dxy     :     0.026637
 10 H s       :     0.766693  s :     0.766693
      pz      :     0.009704  p :     0.046256
      px      :     0.016283
      py      :     0.020269
 11 H s       :     0.755712  s :     0.755712
      pz      :     0.009263  p :     0.043076
      px      :     0.009502
      py      :     0.024311
 12 H s       :     0.748903  s :     0.748903
      pz      :     0.010447  p :     0.042418
      px      :     0.013878
      py      :     0.018092
 13 H s       :     0.756199  s :     0.756199
      pz      :     0.008991  p :     0.046258
      px      :     0.008248
      py      :     0.029019


                      *****************************
                      * MAYER POPULATION ANALYSIS *
                      *****************************

  NA   - Mulliken gross atomic population
  ZA   - Total nuclear charge
  QA   - Mulliken gross atomic charge
  VA   - Mayer's total valence
  BVA  - Mayer's bonded valence
  FA   - Mayer's free valence

  ATOM       NA         ZA         QA         VA         BVA        FA
  0 Br    35.0920    35.0000    -0.0920     1.1450     1.1450     0.0000
  1 C      5.9141     6.0000     0.0859     3.8470     3.8470    -0.0000
  2 C      6.1624     6.0000    -0.1624     3.7512     3.7512    -0.0000
  3 C      6.1371     6.0000    -0.1371     3.9044     3.9044    -0.0000
  4 N      6.7477     7.0000     0.2523     3.7483     3.7483    -0.0000
  5 C      6.0609     6.0000    -0.0609     3.8758     3.8758    -0.0000
  6 N      7.2008     7.0000    -0.2008     3.0038     3.0038     0.0000
  7 N      7.1294     7.0000    -0.1294     3.0449     3.0449    -0.0000
  8 C      5.9012     6.0000     0.0988     4.1540     4.1540    -0.0000
  9 C      6.3005     6.0000    -0.3005     3.8207     3.8207    -0.0000
 10 H      0.8285     1.0000     0.1715     0.9639     0.9639    -0.0000
 11 H      0.8556     1.0000     0.1444     0.9741     0.9741     0.0000
 12 H      0.8546     1.0000     0.1454     0.9771     0.9771    -0.0000
 13 H      0.8152     1.0000     0.1848     0.9618     0.9618    -0.0000

  Mayer bond orders larger than 0.100000
B(  0-Br,  1-C ) :   1.0183 B(  1-C ,  2-C ) :   1.1767 B(  1-C ,  9-C ) :   1.5775 
B(  2-C ,  3-C ) :   1.5946 B(  2-C , 10-H ) :   0.9274 B(  3-C ,  4-N ) :   1.2074 
B(  3-C , 11-H ) :   0.9394 B(  4-N ,  5-C ) :   1.1464 B(  4-N ,  8-C ) :   1.2330 
B(  5-C ,  6-N ) :   1.5485 B(  5-C , 12-H ) :   0.9671 B(  6-N ,  7-N ) :   1.2150 
B(  7-N ,  8-C ) :   1.5858 B(  8-C ,  9-C ) :   1.1732 B(  9-C , 13-H ) :   0.9067 


-------
TIMINGS
-------

Total SCF time: 0 days 0 hours 0 min 4 sec 

Total time                  ....       4.496 sec
Sum of individual times     ....       3.948 sec  ( 87.8%)

Fock matrix formation       ....       3.052 sec  ( 67.9%)
  Split-RI-J                ....       0.551 sec  ( 18.1% of F)
  XC integration            ....       2.255 sec  ( 73.9% of F)
    Basis function eval.    ....       0.277 sec  ( 12.3% of XC)
    Density eval.           ....       0.580 sec  ( 25.7% of XC)
    XC-Functional eval.     ....       0.227 sec  ( 10.1% of XC)
    XC-Potential eval.      ....       0.732 sec  ( 32.4% of XC)
Diagonalization             ....       0.056 sec  (  1.2%)
Density matrix formation    ....       0.008 sec  (  0.2%)
Population analysis         ....       0.009 sec  (  0.2%)
Initial guess               ....       0.178 sec  (  4.0%)
Orbital Transformation      ....       0.000 sec  (  0.0%)
Orbital Orthonormalization  ....       0.000 sec  (  0.0%)
DIIS solution               ....       0.130 sec  (  2.9%)
SOSCF solution              ....       0.080 sec  (  1.8%)
Grid generation             ....       0.435 sec  (  9.7%)

Maximum memory used throughout the entire SCF-calculation: 28.9 MB


-------------------------------------------------------------------------------
                          DFT DISPERSION CORRECTION                            
                                                                               
                                 DFTD4 V2.5                                    
-------------------------------------------------------------------------------
The R2SCAN3C composite method is recognized
Using three-body term ABC
Active option DFTDOPT                   ...         5   

Starting D4
-------------------------   ----------------
Dispersion correction           -0.005860610
-------------------------   ----------------

------------------   -----------------
gCP correction             0.013054056
------------------   -----------------

-------------------------   --------------------
FINAL SINGLE POINT ENERGY     -2969.318277637630
-------------------------   --------------------



           ************************************************************
           *        Program running with 16 parallel MPI-processes    *
           *              working on a common directory               *
           ************************************************************
------------------------------------------------------------------------------
                         ORCA SCF GRADIENT CALCULATION
------------------------------------------------------------------------------

Gradient of the Kohn-Sham DFT energy:
Kohn-Sham wavefunction type      ... RKS
Hartree-Fock exchange scaling    ...    0.000
Number of operators              ...    1
Number of atoms                  ...   14
Basis set dimensions             ...  242
Integral neglect threshold       ... 2.5e-11
Integral primitive cutoff        ... 2.5e-12
SHARK Integral package           ... ON

Nuc. rep. gradient       (SHARK) ... done (  0.0 sec)
HCore & Overlap gradient (SHARK) ... done (  0.0 sec)
RI-J gradient            (SHARK) ... done (  0.2 sec)
Exchange-correlation gradient    ... done
Dispersion correction            ... Starting D4
Starting D4
Starting D4
Starting D4
Starting D4
Starting D4
Starting D4
Starting D4
Starting D4
Starting D4
Starting D4
Starting D4


------------------- 
Dispersion Gradient 
------------------- 
   1  :    0.000213945   -0.000029677   -0.000000000
   2  :    0.000102688    0.000004175    0.000000001
   3  :    0.000063712    0.000064351    0.000000001
   4  :   -0.000004848    0.000096538    0.000000001
   5  :   -0.000044147    0.000041877   -0.000000000
   6  :   -0.000157675    0.000059686   -0.000000004
   7  :   -0.000125856   -0.000026154    0.000000003
   8  :   -0.000074905   -0.000056449   -0.000000001
   9  :   -0.000112512    0.000011775   -0.000000000
  10  :    0.000050888   -0.000054784   -0.000000000
  11  :    0.000028182    0.000037357    0.000000000
  12  :   -0.000008348    0.000052318    0.000000000
  13  :   -0.000043236    0.000016926   -0.000000001
  14  :    0.000023835   -0.000047341   -0.000000000

  |G| =    0.001654196

done
gCP correction                   ... Starting D4
Starting D4
Starting D4
Starting D4
done

------------------
CARTESIAN GRADIENT
------------------

   1   Br  :   -0.006208460    0.000880940   -0.000000327
   2   C   :    0.000439981   -0.010072861    0.000000377
   3   C   :   -0.006814951    0.005126172    0.000000078
   4   C   :    0.005589696   -0.001534427    0.000002771
   5   N   :   -0.002755472   -0.008825828    0.000008807
   6   C   :    0.001563172   -0.009395794   -0.000019104
   7   N   :    0.009873764    0.007746245    0.000023429
   8   N   :    0.003195361    0.014225790   -0.000016221
   9   C   :   -0.016338107    0.002497757    0.000001802
  10   C   :    0.010561842    0.004791697    0.000000960
  11   H   :   -0.001561054   -0.002091340   -0.000000861
  12   H   :    0.000677710   -0.002961985   -0.000000369
  13   H   :    0.002207075   -0.002826469   -0.000001346
  14   H   :   -0.000518836    0.002610704    0.000000003

Difference to translation invariance:
           :   -0.0000882779    0.0001705989   -0.0000000014

Difference to rotation invariance:
           :   -0.0000001758    0.0000000311   -0.0006908646

Norm of the cartesian gradient     ...    0.0351747604
RMS gradient                       ...    0.0054275834
MAX gradient                       ...    0.0163381073

-------
TIMINGS
-------

Total SCF gradient time            ...        0.683 sec

One electron gradient       ....       0.019 sec  (  2.8%)
RI-J Coulomb gradient       ....       0.194 sec  ( 28.4%)
XC gradient                 ....       0.318 sec  ( 46.6%)

Maximum memory used throughout the entire SCFGRAD-calculation: 31.5 MB
------------------------------------------------------------------------------
                         ORCA GEOMETRY RELAXATION STEP
------------------------------------------------------------------------------

Reading the OPT-File                    .... done
Getting information on internals        .... done
Copying old internal coords+grads       .... done
Making the new internal coordinates     .... (new redundants).... done
Validating the new internal coordinates .... (new redundants).... done
Calculating the B-matrix                .... done
Calculating the G,G- and P matrices     .... done
Transforming gradient to internals      .... done
Projecting the internal gradient        .... done
Number of atoms                         ....  14
Number of internal coordinates          ....  71
Current Energy                          .... -2969.318277638 Eh
Current gradient norm                   ....     0.035174760 Eh/bohr
Maximum allowed component of the step   ....  0.300
Current trust radius                    ....  0.300
Evaluating the initial hessian          ....  (Almloef) done
Projecting the Hessian                  .... done
Forming the augmented Hessian           .... done
Diagonalizing the augmented Hessian     .... done
Last element of RFO vector              ....  0.998815427
Lowest eigenvalues of augmented Hessian:
 -0.001390560  0.024176312  0.025735355  0.027587959  0.028251928
Length of the computed step             ....  0.048717166
The final length of the internal step   ....  0.048717166
Converting the step to cartesian space:
 Initial RMS(Int)=    0.0057816639
Transforming coordinates:
 Iter   0:  RMS(Cart)=    0.0098708362 RMS(Int)=    2.7900526629
 Iter   1:  RMS(Cart)=    0.0000086574 RMS(Int)=    0.7456768839
 Iter   2:  RMS(Cart)=    0.0000000427 RMS(Int)=    0.0000000263
done
Storing new coordinates                 .... done

                                .--------------------.
          ----------------------|Geometry convergence|-------------------------
          Item                value                   Tolerance       Converged
          ---------------------------------------------------------------------
          RMS gradient        0.0035044130            0.0001000000      NO
          MAX gradient        0.0135774616            0.0003000000      NO
          RMS step            0.0057816639            0.0020000000      NO
          MAX step            0.0189151773            0.0040000000      NO
          ........................................................
          Max(Bonds)      0.0100      Max(Angles)    0.17
          Max(Dihed)        0.02      Max(Improp)    0.00
          ---------------------------------------------------------------------

The optimization has not yet converged - more geometry cycles are needed


    ---------------------------------------------------------------------------
                         Redundant Internal Coordinates
                            (Angstroem and degrees)

        Definition                    Value    dE/dq     Step     New-Value
    ----------------------------------------------------------------------------
     1. B(C   1,Br  0)                1.8877 -0.006263  0.0098    1.8975   
     2. B(C   2,C   1)                1.4311  0.001190 -0.0011    1.4300   
     3. B(C   3,C   2)                1.3488 -0.007992  0.0059    1.3546   
     4. B(N   4,C   3)                1.3713 -0.002919  0.0026    1.3739   
     5. B(C   5,N   4)                1.3667 -0.007459  0.0064    1.3731   
     6. B(N   6,C   5)                1.3029 -0.013577  0.0094    1.3123   
     7. B(N   7,N   6)                1.3561 -0.008185  0.0078    1.3638   
     8. B(C   8,N   7)                1.3138 -0.012893  0.0092    1.3230   
     9. B(C   8,N   4)                1.3851 -0.011037  0.0100    1.3951   
    10. B(C   9,C   8)                1.4204  0.003782 -0.0037    1.4167   
    11. B(C   9,C   1)                1.3533 -0.010339  0.0076    1.3610   
    12. B(H  10,C   2)                1.0789 -0.002608  0.0037    1.0826   
    13. B(H  11,C   3)                1.0800 -0.002997  0.0042    1.0843   
    14. B(H  12,C   5)                1.0766 -0.003604  0.0050    1.0816   
    15. B(H  13,C   9)                1.0795 -0.002631  0.0037    1.0832   
    16. A(C   2,C   1,C   9)          121.93 -0.000518    0.07    122.01   
    17. A(Br  0,C   1,C   9)          120.39  0.000178   -0.02    120.37   
    18. A(Br  0,C   1,C   2)          117.67  0.000340   -0.05    117.63   
    19. A(C   1,C   2,H  10)          120.24 -0.000043    0.00    120.24   
    20. A(C   3,C   2,H  10)          120.19  0.000322   -0.06    120.13   
    21. A(C   1,C   2,C   3)          119.57 -0.000279    0.06    119.62   
    22. A(C   2,C   3,N   4)          119.08  0.000909   -0.12    118.96   
    23. A(N   4,C   3,H  11)          116.86 -0.001041    0.15    117.01   
    24. A(C   2,C   3,H  11)          124.06  0.000132   -0.04    124.02   
    25. A(C   3,N   4,C   8)          122.68  0.000308   -0.04    122.64   
    26. A(C   3,N   4,C   5)          133.31 -0.000431    0.09    133.39   
    27. A(C   5,N   4,C   8)          104.01  0.000123   -0.05    103.96   
    28. A(N   4,C   5,N   6)          109.88 -0.000196    0.02    109.90   
    29. A(N   6,C   5,H  12)          126.49  0.000121   -0.01    126.48   
    30. A(N   4,C   5,H  12)          123.62  0.000075   -0.01    123.62   
    31. A(C   5,N   6,N   7)          109.03 -0.000596    0.11    109.14   
    32. A(N   6,N   7,C   8)          107.16  0.001443   -0.17    106.99   
    33. A(N   7,C   8,C   9)          131.23  0.000792   -0.08    131.15   
    34. A(N   4,C   8,C   9)          118.86 -0.000017   -0.01    118.85   
    35. A(N   4,C   8,N   7)          109.91 -0.000775    0.09    110.00   
    36. A(C   1,C   9,C   8)          117.88 -0.000403    0.04    117.92   
    37. A(C   8,C   9,H  13)          118.99  0.000530   -0.07    118.92   
    38. A(C   1,C   9,H  13)          123.13 -0.000128    0.03    123.16   
    39. D(C   3,C   2,C   1,C   9)      0.00  0.000000    0.00      0.00   
    40. D(H  10,C   2,C   1,Br  0)      0.00  0.000000   -0.00     -0.00   
    41. D(H  10,C   2,C   1,C   9)   -180.00  0.000001   -0.00   -180.00   
    42. D(C   3,C   2,C   1,Br  0)    180.00 -0.000001    0.00    180.00   
    43. D(N   4,C   3,C   2,C   1)     -0.00 -0.000000    0.00      0.00   
    44. D(H  11,C   3,C   2,C   1)   -180.00  0.000001   -0.00   -180.00   
    45. D(N   4,C   3,C   2,H  10)    180.00 -0.000001    0.00    180.00   
    46. D(H  11,C   3,C   2,H  10)      0.00  0.000000   -0.00     -0.00   
    47. D(C   8,N   4,C   3,H  11)    180.00 -0.000001    0.00    180.00   
    48. D(C   8,N   4,C   3,C   2)      0.00  0.000000   -0.00     -0.00   
    49. D(C   5,N   4,C   3,H  11)      0.00  0.000001   -0.00     -0.00   
    50. D(C   5,N   4,C   3,C   2)   -180.00  0.000002   -0.00   -180.00   
    51. D(H  12,C   5,N   4,C   3)     -0.00 -0.000002    0.00      0.00   
    52. D(N   6,C   5,N   4,C   8)      0.01  0.000008   -0.01     -0.00   
    53. D(N   6,C   5,N   4,C   3)   -180.00  0.000006   -0.01   -180.00   
    54. D(H  12,C   5,N   4,C   8)    180.00  0.000000    0.00    180.00   
    55. D(N   7,N   6,C   5,H  12)    180.00 -0.000003    0.00    180.00   
    56. D(N   7,N   6,C   5,N   4)     -0.01 -0.000011    0.02      0.01   
    57. D(C   8,N   7,N   6,C   5)      0.01  0.000010   -0.02     -0.01   
    58. D(C   9,C   8,N   7,N   6)    180.00 -0.000004    0.01    180.00   
    59. D(N   4,C   8,N   7,N   6)     -0.00 -0.000005    0.01      0.00   
    60. D(C   9,C   8,N   4,C   5)    180.00 -0.000002    0.00    180.00   
    61. D(C   9,C   8,N   4,C   3)     -0.00 -0.000000    0.00      0.00   
    62. D(N   7,C   8,N   4,C   5)     -0.00 -0.000001    0.00      0.00   
    63. D(N   7,C   8,N   4,C   3)   -180.00  0.000000   -0.00   -180.00   
    64. D(C   1,C   9,C   8,N   4)      0.00  0.000000   -0.00     -0.00   
    65. D(H  13,C   9,C   1,C   2)    180.00 -0.000000    0.00    180.00   
    66. D(H  13,C   9,C   1,Br  0)      0.00  0.000000   -0.00     -0.00   
    67. D(C   8,C   9,C   1,C   2)     -0.00 -0.000000    0.00      0.00   
    68. D(C   1,C   9,C   8,N   7)    180.00 -0.000001    0.00    180.00   
    69. D(C   8,C   9,C   1,Br  0)   -180.00  0.000000   -0.00   -180.00   
    70. D(H  13,C   9,C   8,N   7)     -0.00 -0.000000    0.00      0.00   
    71. D(H  13,C   9,C   8,N   4)   -180.00  0.000000   -0.00   -180.00   
    ----------------------------------------------------------------------------

         *************************************************************
         *                GEOMETRY OPTIMIZATION CYCLE   2            *
         *************************************************************
---------------------------------
CARTESIAN COORDINATES (ANGSTROEM)
---------------------------------
  Br     2.615770   -0.179549    0.000022
  C      0.739118    0.101137   -0.000001
  C      0.270717    1.452296   -0.000011
  C     -1.061221    1.699223   -0.000014
  N     -1.934488    0.638550   -0.000005
  C     -3.304388    0.544526    0.000013
  N     -3.665540   -0.717061   -0.000078
  N     -2.549978   -1.501635    0.000001
  C     -1.505919   -0.689062   -0.000004
  C     -0.115059   -0.958406    0.000005
  H      0.975755    2.273828   -0.000006
  H     -1.493913    2.693395   -0.000011
  H     -3.963493    1.402141    0.000017
  H      0.219003   -1.988812    0.000016

----------------------------
CARTESIAN COORDINATES (A.U.)
----------------------------
  NO LB      ZA    FRAG     MASS         X           Y           Z
   0 Br   35.0000    0    79.900    4.943089   -0.339299    0.000042
   1 C     6.0000    0    12.011    1.396731    0.191122   -0.000001
   2 C     6.0000    0    12.011    0.511581    2.744441   -0.000021
   3 C     6.0000    0    12.011   -2.005417    3.211066   -0.000027
   4 N     7.0000    0    14.007   -3.655653    1.206684   -0.000010
   5 C     6.0000    0    12.011   -6.244388    1.029006    0.000025
   6 N     7.0000    0    14.007   -6.926867   -1.355048   -0.000148
   7 N     7.0000    0    14.007   -4.818760   -2.837678    0.000002
   8 C     6.0000    0    12.011   -2.845775   -1.302139   -0.000008
   9 C     6.0000    0    12.011   -0.217429   -1.811125    0.000009
  10 H     1.0000    0     1.008    1.843909    4.296912   -0.000012
  11 H     1.0000    0     1.008   -2.823086    5.089778   -0.000021
  12 H     1.0000    0     1.008   -7.489916    2.649662    0.000033
  13 H     1.0000    0     1.008    0.413856   -3.758310    0.000031

--------------------------------
INTERNAL COORDINATES (ANGSTROEM)
--------------------------------
 Br     0   0   0     0.000000000000     0.00000000     0.00000000
 C      1   0   0     1.897526194432     0.00000000     0.00000000
[...]
     10      -0.116087   0.046684   0.019416   0.065663   0.008581  -0.002954
     11      -0.000007  -0.000002   0.000004   0.000001   0.000001   0.000001
     12      -0.148666  -0.021382  -0.006058   0.027855  -0.114565   0.031045
     13       0.100442  -0.019759  -0.006795  -0.080763  -0.000480  -0.044135
     14      -0.000001  -0.000002   0.000000  -0.000001   0.000002  -0.000001
     15      -0.196012  -0.047730   0.028455  -0.072488  -0.005597  -0.055595
     16       0.224046   0.076037  -0.029011   0.012737   0.099325   0.016983
     17      -0.000014  -0.000003   0.000002  -0.000003   0.000004  -0.000001
     18       0.272978  -0.068896   0.261528   0.029248   0.051827  -0.003306
     19       0.129975   0.099954  -0.098934   0.030478  -0.140905   0.001338
     20       0.000019  -0.000003   0.000012   0.000003  -0.000005   0.000000
     21       0.039975   0.141442  -0.291339  -0.003373  -0.043838  -0.034108
     22      -0.173105  -0.196465   0.153637   0.006925  -0.010213  -0.009310
     23      -0.000003   0.000005  -0.000005   0.000000  -0.000001   0.000001
     24      -0.019319  -0.031900  -0.004985   0.013197   0.011532   0.100091
     25      -0.184462   0.019471  -0.000419   0.004512   0.015587  -0.034697
     26      -0.000007   0.000003  -0.000012  -0.000001  -0.000004  -0.000000
     27       0.030252  -0.022631  -0.013844   0.008604   0.016766   0.048572
     28      -0.092774  -0.071376  -0.100192   0.068384  -0.029252   0.006921
     29       0.000002   0.000002   0.000002  -0.000000   0.000001   0.000001
     30       0.059490  -0.104175  -0.162402   0.603456   0.215900   0.155102
     31       0.052232   0.303921   0.325141  -0.510563  -0.113748  -0.194372
     32      -0.000029  -0.000005  -0.000001   0.000008   0.000003   0.000002
     33       0.177125  -0.362455  -0.299199  -0.542929   0.002227   0.400494
     34      -0.052231  -0.077634  -0.081493  -0.135398   0.022589   0.161162
     35       0.000029   0.000007  -0.000014  -0.000002  -0.000000  -0.000001
     36      -0.663010   0.088298  -0.392552  -0.151554   0.685944  -0.052438
     37      -0.122450   0.197691  -0.374918  -0.043009   0.643173   0.025653
     38       0.000053  -0.000001   0.000017   0.000007   0.000057   0.000007
     39       0.409728  -0.670242  -0.394439   0.025932   0.054421  -0.795832
     40       0.029296  -0.296438  -0.240585   0.079615  -0.020011  -0.273520
     41       0.000019  -0.000004  -0.000006  -0.000001  -0.000002  -0.000005
                 30         31         32         33         34         35    
      0       0.001119   0.000894   0.000677  -0.000192   0.001730  -0.001731
      1      -0.000460  -0.001679   0.000386   0.000303  -0.000228  -0.002236
      2      -0.000000   0.000000  -0.000000  -0.000000   0.000000   0.000000
      3      -0.022006  -0.077213   0.021880   0.026809  -0.150004   0.093742
      4      -0.069359   0.124898   0.063490   0.098413  -0.018274   0.244092
      5       0.000000  -0.000001  -0.000001  -0.000001  -0.000001  -0.000002
      6      -0.118118  -0.008028   0.050359   0.113871   0.101876  -0.164117
      7      -0.041439  -0.057122  -0.121363  -0.094787  -0.126169  -0.076109
      8       0.000000  -0.000001   0.000001   0.000001   0.000001   0.000001
      9       0.111606   0.011263  -0.009129  -0.089132   0.137306   0.232933
     10       0.112729  -0.154017   0.002486  -0.002813   0.143565   0.045539
     11       0.000002  -0.000001   0.000002   0.000000  -0.000001  -0.000000
     12       0.262807   0.092618   0.149698   0.043058  -0.174202   0.021993
     13      -0.168471   0.213014   0.161555   0.131807  -0.104012  -0.013046
     14      -0.000003   0.000003   0.000001  -0.000003   0.000000  -0.000001
     15      -0.291353   0.075483  -0.070174  -0.188848   0.045344  -0.022517
     16       0.091777   0.015588   0.165963  -0.333182  -0.019140  -0.036368
     17      -0.000002   0.000002   0.000011  -0.000025  -0.000001  -0.000000
     18       0.092050  -0.053751  -0.089638   0.104276   0.012267   0.076197
     19      -0.048921  -0.037407  -0.172987   0.200055   0.044838  -0.016500
     20       0.000003  -0.000007  -0.000011   0.000025   0.000001   0.000004
     21      -0.076435  -0.143134   0.059105  -0.033639  -0.024049   0.135290
     22      -0.091154  -0.208890   0.086761   0.000204  -0.003916   0.113159
     23       0.000002   0.000007  -0.000005  -0.000004   0.000002  -0.000006
     24      -0.006216   0.032808   0.100466   0.050387   0.066609  -0.514409
     25       0.171070   0.296254  -0.243057  -0.051930   0.006205  -0.077470
     26      -0.000007  -0.000008   0.000004   0.000001  -0.000001   0.000002
     27      -0.003846   0.144307  -0.123185  -0.078793   0.117589   0.153401
     28       0.018314  -0.101648   0.031450  -0.042969   0.075603  -0.125647
     29       0.000001   0.000005  -0.000002   0.000001  -0.000000   0.000001
     30      -0.542901   0.053982  -0.373100  -0.155325  -0.520479  -0.003076
     31       0.308800  -0.129170   0.229726   0.135790   0.399288  -0.248980
     32      -0.000004   0.000005  -0.000001  -0.000004  -0.000003  -0.000000
     33       0.132614  -0.646232  -0.648855  -0.157945  -0.542134  -0.407992
     34       0.117358  -0.454574  -0.266018  -0.016057  -0.137208  -0.251931
     35      -0.000001  -0.000003   0.000004  -0.000003   0.000001   0.000000
     36       0.042600  -0.090652  -0.141300   0.730205   0.016053   0.187044
     37       0.386801  -0.116985   0.149285   0.356259  -0.052140   0.122854
     38       0.000065   0.000006   0.000010   0.000022  -0.000008   0.000008
     39       0.341434  -0.067461  -0.191451  -0.007066  -0.303893  -0.250208
     40       0.137749  -0.180689   0.013490  -0.023131  -0.051481  -0.297234
     41      -0.000005  -0.000012   0.000004   0.000004  -0.000002   0.000004
                 36         37         38         39         40         41    
      0       0.001713   0.000620   0.000012  -0.000026   0.000059  -0.000010
      1       0.000357  -0.000791   0.000000   0.000009  -0.000004  -0.000001
      2      -0.000000   0.000000  -0.000000   0.000000   0.000000   0.000000
      3      -0.135165   0.147290  -0.000566   0.002839  -0.001985  -0.000014
      4      -0.366315   0.092669  -0.000339   0.003401   0.001922   0.000458
      5       0.000002  -0.000000   0.000000  -0.000000  -0.000000  -0.000000
      6      -0.221062  -0.311457  -0.016203  -0.010152  -0.055162  -0.000008
      7       0.201315   0.089347  -0.023979  -0.010140  -0.060656  -0.000262
      8      -0.000000  -0.000001  -0.000000  -0.000000  -0.000001  -0.000000
      9       0.151489   0.383501  -0.033489   0.002342   0.016520   0.001306
     10      -0.126764   0.010993   0.074214  -0.003076  -0.029004  -0.003586
     11      -0.000002  -0.000002   0.000001   0.000000  -0.000000   0.000000
     12       0.049861  -0.159015  -0.000034  -0.000188   0.001153  -0.002515
     13       0.217979  -0.013028  -0.000451   0.000509   0.000985   0.000393
     14       0.000000   0.000002  -0.000000   0.000000  -0.000000   0.000000
     15      -0.082854  -0.006424   0.001019  -0.000925  -0.000842   0.054979
     16      -0.103123  -0.050585  -0.002544   0.001326   0.000927  -0.071323
     17      -0.000004  -0.000003  -0.000000  -0.000000   0.000000  -0.000001
     18       0.049055  -0.017548   0.000270   0.000229  -0.000300   0.001358
     19       0.001032   0.060206   0.000477  -0.000101   0.000117   0.002044
     20       0.000007   0.000001   0.000000   0.000000  -0.000000   0.000001
     21      -0.049412  -0.030851   0.000094  -0.000052   0.000261  -0.001601
     22       0.030421  -0.024954   0.000185  -0.000205   0.000014   0.001377
     23      -0.000005   0.000003   0.000000  -0.000000   0.000000  -0.000000
     24      -0.010252   0.289521   0.000165  -0.002485   0.000433  -0.000833
     25      -0.164126  -0.010698  -0.001202   0.000395   0.000205   0.001467
     26       0.000003  -0.000001   0.000000  -0.000000   0.000000  -0.000000
     27       0.235405  -0.276436  -0.000080   0.026090  -0.004162   0.000331
     28       0.275446  -0.099756   0.001974  -0.082587   0.014407  -0.001498
     29      -0.000003   0.000000  -0.000000   0.000001  -0.000000  -0.000000
     30       0.163437   0.156281   0.227525   0.106327   0.597228   0.003940
     31      -0.144715  -0.345401   0.271106   0.123985   0.697145   0.003472
     32       0.000003   0.000001   0.000003   0.000001   0.000008  -0.000000
     33      -0.149769  -0.376216   0.365483  -0.016048  -0.140075  -0.013029
     34      -0.276726  -0.357883  -0.855655   0.035678   0.318615   0.034045
     35       0.000001   0.000003  -0.000007   0.000000   0.000003   0.000000
     36       0.328385   0.060092  -0.018951   0.011128   0.008624  -0.611382
     37       0.217608  -0.005592   0.027532  -0.014070  -0.012209   0.785150
     38       0.000011  -0.000010  -0.000000   0.000000  -0.000000  -0.000001
     39      -0.421739   0.299988   0.006109  -0.310181   0.052662  -0.004828
     40       0.088364   0.081782  -0.019385   0.931400  -0.158433   0.015007
     41       0.000001  -0.000001  -0.000000  -0.000016   0.000003   0.000000


-----------
IR SPECTRUM
-----------

 Mode   freq       eps      Int      T**2         TX        TY        TZ
       cm**-1   L/(mol*cm) km/mol    a.u.
----------------------------------------------------------------------------
  6:     99.88   0.000009    0.04  0.000027  ( 0.000008 -0.000013 -0.005197)
  7:    199.52   0.000524    2.65  0.000820  ( 0.024892 -0.014139  0.000008)
  8:    209.98   0.000622    3.14  0.000925  (-0.000002  0.000010  0.030409)
  9:    278.81   0.000606    3.06  0.000678  ( 0.026012 -0.001176 -0.000001)
 10:    313.48   0.000006    0.03  0.000006  (-0.000005 -0.000006  0.002512)
 11:    411.25   0.002260   11.42  0.001715  (-0.000010 -0.000025  0.041412)
 12:    438.29   0.000357    1.81  0.000254  (-0.010599 -0.011917 -0.000002)
 13:    600.97   0.001680    8.49  0.000873  ( 0.028410  0.008090  0.000005)
 14:    604.16   0.002092   10.57  0.001081  ( 0.000001 -0.000006 -0.032874)
 15:    669.73   0.000871    4.40  0.000406  (-0.000007 -0.000001  0.020144)
 16:    698.89   0.002525   12.76  0.001127  ( 0.033434 -0.003079 -0.000005)
 17:    731.05   0.003074   15.53  0.001312  (-0.000007 -0.000012 -0.036223)
 18:    751.99   0.000044    0.22  0.000018  ( 0.000002 -0.000003  0.004271)
 19:    779.85   0.007858   39.71  0.003144  ( 0.000010  0.000007  0.056074)
 20:    800.27   0.000723    3.66  0.000282  (-0.016196  0.004450  0.000006)
 21:    868.06   0.002920   14.75  0.001050  ( 0.000005  0.000016 -0.032397)
 22:    925.31   0.000003    0.02  0.000001  ( 0.000003 -0.000004  0.001044)
 23:    940.37   0.005809   29.36  0.001928  (-0.043057  0.008592 -0.000001)
 24:    959.68   0.009412   47.57  0.003061  (-0.055296 -0.001736  0.000003)
 25:   1059.79   0.002267   11.45  0.000667  ( 0.024232  0.008958  0.000002)
 26:   1061.71   0.003097   15.65  0.000910  ( 0.013385 -0.027042 -0.000000)
 27:   1164.13   0.000355    1.79  0.000095  ( 0.008956 -0.003861  0.000000)
 28:   1203.10   0.000766    3.87  0.000199  ( 0.013834 -0.002687  0.000001)
 29:   1268.73   0.000779    3.94  0.000192  (-0.013519  0.002992 -0.000000)
 30:   1293.12   0.004239   21.42  0.001023  ( 0.018720  0.025932  0.000001)
 31:   1311.02   0.000109    0.55  0.000026  (-0.004111 -0.003020 -0.000001)
 32:   1360.01   0.002640   13.34  0.000606  (-0.021559 -0.011871 -0.000001)
 33:   1449.15   0.000404    2.04  0.000087  (-0.008655 -0.003488 -0.000001)
 34:   1471.98   0.002952   14.92  0.000626  (-0.020743  0.013987  0.000000)
 35:   1513.16   0.001188    6.01  0.000245  (-0.011613 -0.010499  0.000001)
 36:   1543.24   0.004946   25.00  0.001000  (-0.021204 -0.023464  0.000000)
 37:   1654.24   0.013900   70.25  0.002622  ( 0.051072 -0.003722  0.000000)
 38:   3205.40   0.000154    0.78  0.000015  ( 0.003799  0.000749 -0.000000)
 39:   3223.52   0.000989    5.00  0.000096  ( 0.000516  0.009773 -0.000000)
 40:   3226.01   0.000302    1.52  0.000029  ( 0.005398 -0.000186  0.000000)
 41:   3248.71   0.000238    1.20  0.000023  (-0.004611  0.001277 -0.000000)

* The epsilon (eps) is given for a Dirac delta lineshape.
** The dipole moment derivative (T) already includes vibrational overlap.

The first frequency considered to be a vibration is 6
The total number of vibrations considered is 36


--------------------------
THERMOCHEMISTRY AT 298.15K
--------------------------

Temperature         ... 298.15 K
Pressure            ... 1.00 atm
Total Mass          ... 198.02 AMU

Throughout the following assumptions are being made:
  (1) The electronic state is orbitally nondegenerate
  (2) There are no thermally accessible electronically excited states
  (3) Hindered rotations indicated by low frequency modes are not
      treated as such but are treated as vibrations and this may
      cause some error
  (4) All equations used are the standard statistical mechanics
      equations for an ideal gas
  (5) All vibrations are strictly harmonic

freq.      99.88  E(vib)   ...       0.46 
freq.     199.52  E(vib)   ...       0.35 
freq.     209.98  E(vib)   ...       0.34 
freq.     278.81  E(vib)   ...       0.28 
freq.     313.48  E(vib)   ...       0.25 
freq.     411.25  E(vib)   ...       0.19 
freq.     438.29  E(vib)   ...       0.17 
freq.     600.97  E(vib)   ...       0.10 
freq.     604.16  E(vib)   ...       0.10 
freq.     669.73  E(vib)   ...       0.08 
freq.     698.89  E(vib)   ...       0.07 
freq.     731.05  E(vib)   ...       0.06 
freq.     751.99  E(vib)   ...       0.06 
freq.     779.85  E(vib)   ...       0.05 
freq.     800.27  E(vib)   ...       0.05 
freq.     868.06  E(vib)   ...       0.04 
freq.     925.31  E(vib)   ...       0.03 
freq.     940.37  E(vib)   ...       0.03 
freq.     959.68  E(vib)   ...       0.03 
freq.    1059.79  E(vib)   ...       0.02 
freq.    1061.71  E(vib)   ...       0.02 
freq.    1164.13  E(vib)   ...       0.01 
freq.    1203.10  E(vib)   ...       0.01 
freq.    1268.73  E(vib)   ...       0.01 
freq.    1293.12  E(vib)   ...       0.01 
freq.    1311.02  E(vib)   ...       0.01 
freq.    1360.01  E(vib)   ...       0.01 
freq.    1449.15  E(vib)   ...       0.00 
freq.    1471.98  E(vib)   ...       0.00 
freq.    1513.16  E(vib)   ...       0.00 
freq.    1543.24  E(vib)   ...       0.00 
freq.    1654.24  E(vib)   ...       0.00 
freq.    3205.40  E(vib)   ...       0.00 
freq.    3223.52  E(vib)   ...       0.00 
freq.    3226.01  E(vib)   ...       0.00 
freq.    3248.71  E(vib)   ...       0.00 

------------
INNER ENERGY
------------

The inner energy is: U= E(el) + E(ZPE) + E(vib) + E(rot) + E(trans)
    E(el)   - is the total energy from the electronic structure calculation
              = E(kin-el) + E(nuc-el) + E(el-el) + E(nuc-nuc)
    E(ZPE)  - the the zero temperature vibrational energy from the frequency calculation
    E(vib)  - the the finite temperature correction to E(ZPE) due to population
              of excited vibrational states
    E(rot)  - is the rotational thermal energy
    E(trans)- is the translational thermal energy

Summary of contributions to the inner energy U:
Electronic energy                ...  -2969.31924799 Eh
Zero point energy                ...      0.09463179 Eh      59.38 kcal/mol
Thermal vibrational correction   ...      0.00453784 Eh       2.85 kcal/mol
Thermal rotational correction    ...      0.00141627 Eh       0.89 kcal/mol
Thermal translational correction ...      0.00141627 Eh       0.89 kcal/mol
-----------------------------------------------------------------------
Total thermal energy                  -2969.21724581 Eh


Summary of corrections to the electronic energy:
(perhaps to be used in another calculation)
Total thermal correction                  0.00737039 Eh       4.62 kcal/mol
Non-thermal (ZPE) correction              0.09463179 Eh      59.38 kcal/mol
-----------------------------------------------------------------------
Total correction                          0.10200218 Eh      64.01 kcal/mol


--------
ENTHALPY
--------

The enthalpy is H = U + kB*T
                kB is Boltzmann's constant
Total free energy                 ...  -2969.21724581 Eh 
Thermal Enthalpy correction       ...      0.00094421 Eh       0.59 kcal/mol
-----------------------------------------------------------------------
Total Enthalpy                    ...  -2969.21630160 Eh


Note: Only C1 symmetry has been detected, increase convergence thresholds 
      if your molecule has a higher symmetry. Symmetry factor of 1.0 is   
      used for the rotational entropy correction. 
 

Note: Rotational entropy computed according to Herzberg 
Infrared and Raman Spectra, Chapter V,1, Van Nostrand Reinhold, 1945 
Point Group:  C1, Symmetry Number:   1  
Rotational constants in cm-1:     0.115323     0.015698     0.013817 

Vibrational entropy computed according to the QRRHO of S. Grimme
Chem.Eur.J. 2012 18 9955


-------
ENTROPY
-------

The entropy contributions are T*S = T*(S(el)+S(vib)+S(rot)+S(trans))
     S(el)   - electronic entropy
     S(vib)  - vibrational entropy
     S(rot)  - rotational entropy
     S(trans)- translational entropy
The entropies will be listed as multiplied by the temperature to get
units of energy

Electronic entropy                ...      0.00000000 Eh      0.00 kcal/mol
Vibrational entropy               ...      0.00731796 Eh      4.59 kcal/mol
Rotational entropy                ...      0.01451311 Eh      9.11 kcal/mol
Translational entropy             ...      0.01983883 Eh     12.45 kcal/mol
-----------------------------------------------------------------------
Final entropy term                ...      0.04166990 Eh     26.15 kcal/mol

In case the symmetry of your molecule has not been determined correctly
or in case you have a reason to use a different symmetry number we print 
out the resulting rotational entropy values for sn=1,12 :
 --------------------------------------------------------
|  sn= 1 | S(rot)=       0.01451311 Eh      9.11 kcal/mol|
|  sn= 2 | S(rot)=       0.01385865 Eh      8.70 kcal/mol|
|  sn= 3 | S(rot)=       0.01347582 Eh      8.46 kcal/mol|
|  sn= 4 | S(rot)=       0.01320420 Eh      8.29 kcal/mol|
|  sn= 5 | S(rot)=       0.01299351 Eh      8.15 kcal/mol|
|  sn= 6 | S(rot)=       0.01282137 Eh      8.05 kcal/mol|
|  sn= 7 | S(rot)=       0.01267582 Eh      7.95 kcal/mol|
|  sn= 8 | S(rot)=       0.01254974 Eh      7.88 kcal/mol|
|  sn= 9 | S(rot)=       0.01243853 Eh      7.81 kcal/mol|
|  sn=10 | S(rot)=       0.01233905 Eh      7.74 kcal/mol|
|  sn=11 | S(rot)=       0.01224906 Eh      7.69 kcal/mol|
|  sn=12 | S(rot)=       0.01216691 Eh      7.63 kcal/mol|
 --------------------------------------------------------


-------------------
GIBBS FREE ENERGY
-------------------

The Gibbs free energy is G = H - T*S

Total enthalpy                    ...  -2969.21630160 Eh 
Total entropy correction          ...     -0.04166990 Eh    -26.15 kcal/mol
-----------------------------------------------------------------------
Final Gibbs free energy         ...  -2969.25797150 Eh

For completeness - the Gibbs free energy minus the electronic energy
G-E(el)                           ...      0.06127649 Eh     38.45 kcal/mol


Timings for individual modules:

Sum of individual times         ...       70.609 sec (=   1.177 min)
GTO integral calculation        ...        2.348 sec (=   0.039 min)   3.3 %
SCF iterations                  ...       20.680 sec (=   0.345 min)  29.3 %
SCF Gradient evaluation         ...        4.642 sec (=   0.077 min)   6.6 %
Geometry relaxation             ...        0.102 sec (=   0.002 min)   0.1 %
Analytical frequency calculation...       42.838 sec (=   0.714 min)  60.7 %
                             ****ORCA TERMINATED NORMALLY****
TOTAL RUN TIME: 0 days 0 hours 1 minutes 12 seconds 136 msec
