Job Start Time: Thu Apr 18 14:05:28 MDT 2024
SLURM Job ID: 254449
SLURM Job Name: arbr_06_r2scan3c
SLURM Job Nodes: node18
SLURM Memory / CPU: 8000

                                 *****************
                                 * O   R   C   A *
                                 *****************

                                            #,                                       
                                            ###                                      
                                            ####                                     
                                            #####                                    
                                            ######                                   
                                           ########,                                 
                                     ,,################,,,,,                         
                               ,,#################################,,                 
                          ,,##########################################,,             
                       ,#########################################, ''#####,          
                    ,#############################################,,   '####,        
                  ,##################################################,,,,####,       
                ,###########''''           ''''###############################       
              ,#####''   ,,,,##########,,,,          '''####'''          '####       
            ,##' ,,,,###########################,,,                        '##       
           ' ,,###''''                  '''############,,,                           
         ,,##''                                '''############,,,,        ,,,,,,###''
      ,#''                                            '''#######################'''  
     '                                                          ''''####''''         
             ,#######,   #######,   ,#######,      ##                                
            ,#'     '#,  ##    ##  ,#'     '#,    #''#        ######   ,####,        
            ##       ##  ##   ,#'  ##            #'  '#       #        #'  '#        
            ##       ##  #######   ##           ,######,      #####,   #    #        
            '#,     ,#'  ##    ##  '#,     ,#' ,#      #,         ##   #,  ,#        
             '#######'   ##     ##  '#######'  #'      '#     #####' # '####'        



                  #######################################################
                  #                        -***-                        #
                  #          Department of theory and spectroscopy      #
                  #    Directorship and core code : Frank Neese         #
                  #        Max Planck Institute fuer Kohlenforschung    #
                  #                Kaiser Wilhelm Platz 1               #
                  #                 D-45470 Muelheim/Ruhr               #
                  #                      Germany                        #
                  #                                                     #
                  #                  All rights reserved                #
                  #                        -***-                        #
                  #######################################################


                         Program Version 5.0.3 -  RELEASE  -


 With contributions from (in alphabetic order):
   Daniel Aravena         : Magnetic Suceptibility
   Michael Atanasov       : Ab Initio Ligand Field Theory (pilot matlab implementation)
   Alexander A. Auer      : GIAO ZORA, VPT2 properties, NMR spectrum
   Ute Becker             : Parallelization
   Giovanni Bistoni       : ED, misc. LED, open-shell LED, HFLD
   Martin Brehm           : Molecular dynamics
   Dmytro Bykov           : SCF Hessian
   Vijay G. Chilkuri      : MRCI spin determinant printing, contributions to CSF-ICE
   Dipayan Datta          : RHF DLPNO-CCSD density
   Achintya Kumar Dutta   : EOM-CC, STEOM-CC
   Dmitry Ganyushin       : Spin-Orbit,Spin-Spin,Magnetic field MRCI
   Miquel Garcia          : C-PCM and meta-GGA Hessian, CC/C-PCM, Gaussian charge scheme
   Yang Guo               : DLPNO-NEVPT2, F12-NEVPT2, CIM, IAO-localization
   Andreas Hansen         : Spin unrestricted coupled pair/coupled cluster methods
   Benjamin Helmich-Paris : MC-RPA, TRAH-SCF, COSX integrals
   Lee Huntington         : MR-EOM, pCC
   Robert Izsak           : Overlap fitted RIJCOSX, COSX-SCS-MP3, EOM
   Marcus Kettner         : VPT2
   Christian Kollmar      : KDIIS, OOCD, Brueckner-CCSD(T), CCSD density, CASPT2, CASPT2-K
   Simone Kossmann        : Meta GGA functionals, TD-DFT gradient, OOMP2, MP2 Hessian
   Martin Krupicka        : Initial AUTO-CI
   Lucas Lang             : DCDCAS
   Marvin Lechner         : AUTO-CI (C++ implementation), FIC-MRCC
   Dagmar Lenk            : GEPOL surface, SMD
   Dimitrios Liakos       : Extrapolation schemes; Compound Job, initial MDCI parallelization
   Dimitrios Manganas     : Further ROCIS development; embedding schemes
   Dimitrios Pantazis     : SARC Basis sets
   Anastasios Papadopoulos: AUTO-CI, single reference methods and gradients
   Taras Petrenko         : DFT Hessian,TD-DFT gradient, ASA, ECA, R-Raman, ABS, FL, XAS/XES, NRVS
   Peter Pinski           : DLPNO-MP2, DLPNO-MP2 Gradient
   Christoph Reimann      : Effective Core Potentials
   Marius Retegan         : Local ZFS, SOC
   Christoph Riplinger    : Optimizer, TS searches, QM/MM, DLPNO-CCSD(T), (RO)-DLPNO pert. Triples
   Tobias Risthaus        : Range-separated hybrids, TD-DFT gradient, RPA, STAB
   Michael Roemelt        : Original ROCIS implementation
   Masaaki Saitow         : Open-shell DLPNO-CCSD energy and density
   Barbara Sandhoefer     : DKH picture change effects
   Avijit Sen             : IP-ROCIS
   Kantharuban Sivalingam : CASSCF convergence, NEVPT2, FIC-MRCI
   Bernardo de Souza      : ESD, SOC TD-DFT
   Georgi Stoychev        : AutoAux, RI-MP2 NMR, DLPNO-MP2 response
   Willem Van den Heuvel  : Paramagnetic NMR
   Boris Wezisla          : Elementary symmetry handling
   Frank Wennmohs         : Technical directorship


 We gratefully acknowledge several colleagues who have allowed us to
 interface, adapt or use parts of their codes:
   Stefan Grimme, W. Hujo, H. Kruse, P. Pracht,  : VdW corrections, initial TS optimization,
                  C. Bannwarth, S. Ehlert          DFT functionals, gCP, sTDA/sTD-DF
   Ed Valeev, F. Pavosevic, A. Kumar             : LibInt (2-el integral package), F12 methods
   Garnet Chan, S. Sharma, J. Yang, R. Olivares  : DMRG
   Ulf Ekstrom                                   : XCFun DFT Library
   Mihaly Kallay                                 : mrcc  (arbitrary order and MRCC methods)
   Jiri Pittner, Ondrej Demel                    : Mk-CCSD
   Frank Weinhold                                : gennbo (NPA and NBO analysis)
   Christopher J. Cramer and Donald G. Truhlar   : smd solvation model
   Lars Goerigk                                  : TD-DFT with DH, B97 family of functionals
   V. Asgeirsson, H. Jonsson                     : NEB implementation
   FAccTs GmbH                                   : IRC, NEB, NEB-TS, DLPNO-Multilevel, CI-OPT
                                                   MM, QMMM, 2- and 3-layer-ONIOM, Crystal-QMMM,
                                                   LR-CPCM, SF, NACMEs, symmetry and pop. for TD-DFT,
                                                   nearIR, NL-DFT gradient (VV10), updates on ESD,
                                                   ML-optimized integration grids
   S Lehtola, MJT Oliveira, MAL Marques          : LibXC Library
   Liviu Ungur et al                             : ANISO software


 Your calculation uses the libint2 library for the computation of 2-el integrals
 For citations please refer to: http://libint.valeyev.net

 Your ORCA version has been built with support for libXC version: 5.1.0
 For citations please refer to: https://tddft.org/programs/libxc/

 This ORCA versions uses:
   CBLAS   interface :  Fast vector & matrix operations
   LAPACKE interface :  Fast linear algebra routines
   SCALAPACK package :  Parallel linear algebra routines
   Shared memory     :  Shared parallel matrices
   BLAS/LAPACK       :  OpenBLAS 0.3.15  USE64BITINT DYNAMIC_ARCH NO_AFFINITY Zen SINGLE_THREADED
        Core in use  :  Zen
   Copyright (c) 2011-2014, The OpenBLAS Project


Your calculation utilizes the geometrical counterpoise correction gCP
Please cite in your paper:
H.Kruse, S. Grimme J.Chem.Phys., 136, (2012), 154101 
   

Your calculation utilizes the atom-pairwise dispersion correction
based on tight binding partial charges (D4)
Cite in your paper:
E.Caldeweyher, C.Bannwarth, S.Grimme, J.Chem.Phys., (2017), 147, 034112.
E.Caldeweyher, S.Ehlert, A.Hansen, H.Neugebauer, S.Grimme, J.Chem.Phys., (2018), in progress.
   

================================================================================

----- Orbital basis set information -----
Your calculation utilizes the basis: def2-mTZVPP
   Stefan Grimme, Andreas Hansen, Sebastian Ehlert, and Jan-Michael Mewes 
   J. Chem. Phys. 154, 000000 (2021). DOI: 10.1063/5.0040021

----- AuxJ basis set information -----
Your calculation utilizes the basis: def2-mTZVPP/J
   Stefan Grimme, Andreas Hansen, Sebastian Ehlert, and Jan-Michael Mewes 
   J. Chem. Phys. 154, 000000 (2021). DOI: 10.1063/5.0040021

================================================================================
                                        WARNINGS
                       Please study these warnings very carefully!
================================================================================

Using LibXC functional ID 497 : Re-regularized SCAN exchange by Furness et al
[ 1]  J. W. Furness, A. D. Kaplan, J. Ning, J. P. Perdew, and J. Sun, J. Phys. Chem. Lett. 11, 8208 (2020)
[ 2]  J. W. Furness, A. D. Kaplan, J. Ning, J. P. Perdew, and J. Sun, J. Phys. Chem. Lett. 11, 9248 (2020)
Using LibXC functional ID 498 : Re-regularized SCAN correlation by Furness et al
[ 1]  J. W. Furness, A. D. Kaplan, J. Ning, J. P. Perdew, and J. Sun, J. Phys. Chem. Lett. 11, 8208 (2020)
[ 2]  J. W. Furness, A. D. Kaplan, J. Ning, J. P. Perdew, and J. Sun, J. Phys. Chem. Lett. 11, 9248 (2020)
Using LibXC functional ID 497 : Re-regularized SCAN exchange by Furness et al
[ 1]  J. W. Furness, A. D. Kaplan, J. Ning, J. P. Perdew, and J. Sun, J. Phys. Chem. Lett. 11, 8208 (2020)
[ 2]  J. W. Furness, A. D. Kaplan, J. Ning, J. P. Perdew, and J. Sun, J. Phys. Chem. Lett. 11, 9248 (2020)
Using LibXC functional ID 498 : Re-regularized SCAN correlation by Furness et al
[ 1]  J. W. Furness, A. D. Kaplan, J. Ning, J. P. Perdew, and J. Sun, J. Phys. Chem. Lett. 11, 8208 (2020)
[ 2]  J. W. Furness, A. D. Kaplan, J. Ning, J. P. Perdew, and J. Sun, J. Phys. Chem. Lett. 11, 9248 (2020)

WARNING: Geometry Optimization
  ===> : Switching off AutoStart
         For restart on a previous wavefunction, please use MOREAD

INFO   : the flag for use of the SHARK integral package has been found!

================================================================================
                                       INPUT FILE
================================================================================
NAME = /tmp/254449/arbr_06_r2scan3c.inp
|  1> %maxcore 4000
|  2> %PAL NPROCS 16 END
|  3> ! r2scan-3c opt freq
|  4> 
|  5> # arbr_06_rdkit_conf_1_r2scan3ccreated by GaussianPrep
|  6> 
|  7> * xyz 0 1
|  8> O  -4.320902  -0.636097  0.000032
|  9> C  -3.578986  0.308522  -0.000023
| 10> C  -2.101394  0.207423  -0.000011
| 11> C  -1.482853  -1.040627  -0.000013
| 12> C  -0.103795  -1.131959  -0.000009
| 13> C  0.649927  0.03698  0.0
| 14> Br  2.536892  -0.08398  0.000003
| 15> C  0.052426  1.287858  0.000004
| 16> C  -1.331975  1.36418  -0.000005
| 17> H  -3.975993  1.342303  0.000001
| 18> H  -2.101197  -1.929277  -0.000021
| 19> H  0.390469  -2.093295  -0.000014
| 20> H  0.661013  2.180943  0.000012
| 21> H  -1.818406  2.333134  -0.000002
| 22> 
| 23> *
| 24> 
| 25>                          ****END OF INPUT****
================================================================================

                       *****************************
                       * Geometry Optimization Run *
                       *****************************

Geometry optimization settings:
Update method            Update   .... BFGS
Choice of coordinates    CoordSys .... Z-matrix Internals
Initial Hessian          InHess   .... Almoef's Model

Convergence Tolerances:
Energy Change            TolE     ....  5.0000e-06 Eh
Max. Gradient            TolMAXG  ....  3.0000e-04 Eh/bohr
RMS Gradient             TolRMSG  ....  1.0000e-04 Eh/bohr
Max. Displacement        TolMAXD  ....  4.0000e-03 bohr
RMS Displacement         TolRMSD  ....  2.0000e-03 bohr
Strict Convergence                ....  False
------------------------------------------------------------------------------
                        ORCA OPTIMIZATION COORDINATE SETUP
------------------------------------------------------------------------------

The optimization will be done in new redundant internal coordinates
Making redundant internal coordinates   ...  (new redundants) done
Evaluating the initial hessian          ...  (Almloef) done
Evaluating the coordinates              ...  done
Calculating the B-matrix                .... done
Calculating the G-matrix                .... done
Diagonalizing the G-matrix              .... done
The first mode is                       ....   27
The number of degrees of freedom        ....   36

    -----------------------------------------------------------------
                    Redundant Internal Coordinates


    -----------------------------------------------------------------
         Definition                    Initial Value    Approx d2E/dq
    -----------------------------------------------------------------
      1. B(C   1,O   0)                  1.2011         1.119914   
      2. B(C   2,C   1)                  1.4810         0.447177   
      3. B(C   3,C   2)                  1.3929         0.618134   
      4. B(C   4,C   3)                  1.3821         0.643244   
      5. B(C   5,C   4)                  1.3909         0.622806   
      6. B(Br  6,C   5)                  1.8908         0.333563   
      7. B(C   7,C   5)                  1.3863         0.633451   
      8. B(C   8,C   7)                  1.3865         0.632874   
      9. B(C   8,C   2)                  1.3893         0.626457   
     10. B(H   9,C   1)                  1.1074         0.337812   
     11. B(H  10,C   3)                  1.0826         0.370008   
     12. B(H  11,C   4)                  1.0810         0.372266   
     13. B(H  12,C   7)                  1.0807         0.372573   
     14. B(H  13,C   8)                  1.0842         0.367857   
     15. A(O   0,C   1,H   9)          120.8450         0.383922   
     16. A(C   2,C   1,H   9)          114.9226         0.330576   
     17. A(O   0,C   1,C   2)          124.2324         0.452342   
     18. A(C   3,C   2,C   8)          120.0068         0.434640   
     19. A(C   1,C   2,C   3)          120.2774         0.409248   
     20. A(C   1,C   2,C   8)          119.7158         0.410218   
     21. A(C   4,C   3,H  10)          121.0421         0.356756   
     22. A(C   2,C   3,C   4)          120.1523         0.436715   
     23. A(C   2,C   3,H  10)          118.8056         0.354354   
     24. A(C   3,C   4,C   5)          119.0245         0.437308   
     25. A(C   5,C   4,H  11)          119.9768         0.355173   
     26. A(C   3,C   4,H  11)          120.9987         0.357125   
     27. A(Br  6,C   5,C   7)          119.2000         0.415959   
     28. A(C   4,C   5,C   7)          121.6542         0.436101   
     29. A(C   4,C   5,Br  6)          119.1458         0.414707   
     30. A(C   5,C   7,C   8)          118.6877         0.437363   
     31. A(C   8,C   7,H  12)          121.1167         0.356191   
     32. A(C   5,C   7,H  12)          120.1956         0.356246   
     33. A(C   2,C   8,C   7)          120.4744         0.436489   
     34. A(C   7,C   8,H  13)          119.8129         0.355421   
     35. A(C   2,C   8,H  13)          119.7127         0.354808   
     36. D(C   3,C   2,C   1,O   0)      0.0039         0.013634   
     37. D(C   8,C   2,C   1,O   0)   -179.9965         0.013634   
     38. D(C   3,C   2,C   1,H   9)    179.9988         0.013634   
     39. D(C   8,C   2,C   1,H   9)     -0.0016         0.013634   
     40. D(C   4,C   3,C   2,C   8)      0.0000         0.026430   
     41. D(H  10,C   3,C   2,C   1)     -0.0001         0.026430   
     42. D(H  10,C   3,C   2,C   8)   -179.9998         0.026430   
     43. D(C   4,C   3,C   2,C   1)    179.9997         0.026430   
     44. D(H  11,C   4,C   3,H  10)      0.0000         0.028767   
     45. D(H  11,C   4,C   3,C   2)   -179.9998         0.028767   
     46. D(C   5,C   4,C   3,H  10)    179.9999         0.028767   
     47. D(C   5,C   4,C   3,C   2)      0.0001         0.028767   
     48. D(C   7,C   5,C   4,C   3)     -0.0001         0.026856   
     49. D(Br  6,C   5,C   4,H  11)      0.0000         0.026856   
     50. D(Br  6,C   5,C   4,C   3)   -179.9999         0.026856   
     51. D(C   7,C   5,C   4,H  11)    179.9999         0.026856   
     52. D(H  12,C   7,C   5,Br  6)     -0.0002         0.027841   
     53. D(H  12,C   7,C   5,C   4)    179.9999         0.027841   
     54. D(C   8,C   7,C   5,Br  6)    179.9997         0.027841   
     55. D(C   8,C   7,C   5,C   4)     -0.0002         0.027841   
     56. D(H  13,C   8,C   7,H  12)     -0.0001         0.027787   
     57. D(C   2,C   8,C   7,H  12)   -179.9998         0.027787   
     58. D(C   2,C   8,C   7,C   5)      0.0003         0.027787   
     59. D(H  13,C   8,C   2,C   3)   -179.9999         0.027191   
     60. D(H  13,C   8,C   2,C   1)      0.0004         0.027191   
     61. D(H  13,C   8,C   7,C   5)    180.0000         0.027787   
     62. D(C   7,C   8,C   2,C   3)     -0.0002         0.027191   
     63. D(C   7,C   8,C   2,C   1)   -179.9999         0.027191   
    -----------------------------------------------------------------

Number of atoms                         .... 14
Number of degrees of freedom            .... 63

         *************************************************************
         *                GEOMETRY OPTIMIZATION CYCLE   1            *
         *************************************************************
---------------------------------
CARTESIAN COORDINATES (ANGSTROEM)
---------------------------------
  O     -4.320902   -0.636097    0.000032
  C     -3.578986    0.308522   -0.000023
  C     -2.101394    0.207423   -0.000011
  C     -1.482853   -1.040627   -0.000013
  C     -0.103795   -1.131959   -0.000009
  C      0.649927    0.036980    0.000000
  Br     2.536892   -0.083980    0.000003
  C      0.052426    1.287858    0.000004
  C     -1.331975    1.364180   -0.000005
  H     -3.975993    1.342303    0.000001
  H     -2.101197   -1.929277   -0.000021
  H      0.390469   -2.093295   -0.000014
  H      0.661013    2.180943    0.000012
  H     -1.818406    2.333134   -0.000002

----------------------------
CARTESIAN COORDINATES (A.U.)
----------------------------
  NO LB      ZA    FRAG     MASS         X           Y           Z
   0 O     8.0000    0    15.999   -8.165321   -1.202049    0.000060
   1 C     6.0000    0    12.011   -6.763303    0.583022   -0.000043
   2 C     6.0000    0    12.011   -3.971059    0.391973   -0.000021
   3 C     6.0000    0    12.011   -2.802186   -1.966500   -0.000025
   4 C     6.0000    0    12.011   -0.196144   -2.139093   -0.000017
   5 C     6.0000    0    12.011    1.228184    0.069882    0.000000
   6 Br   35.0000    0    79.900    4.794031   -0.158699    0.000006
   7 C     6.0000    0    12.011    0.099071    2.433699    0.000008
   8 C     6.0000    0    12.011   -2.517068    2.577927   -0.000009
   9 H     1.0000    0     1.008   -7.513538    2.536585    0.000002
  10 H     1.0000    0     1.008   -3.970687   -3.645805   -0.000040
  11 H     1.0000    0     1.008    0.737879   -3.955754   -0.000026
  12 H     1.0000    0     1.008    1.249134    4.121385    0.000023
  13 H     1.0000    0     1.008   -3.436289    4.408984   -0.000004

--------------------------------
INTERNAL COORDINATES (ANGSTROEM)
--------------------------------
 O      0   0   0     0.000000000000     0.00000000     0.00000000
 C      1   0   0     1.201142959536     0.00000000     0.00000000
 C      2   1   0     1.481046632085   124.23238970     0.00000000
 C      3   2   1     1.392918436659   120.27744913     0.00000000
 C      4   3   2     1.382079050418   120.15232985   179.99965397
 C      5   4   3     1.390868519698   119.02454015     0.00000000
 Br     6   5   4     1.890837971068   119.14577187   180.00008658
 C      6   5   4     1.386255104914   121.65423196     0.00000000
 C      8   6   5     1.386503219097   118.68770770     0.00000000
 H      2   1   3     1.107392303832   120.84496516   180.00535970
 H      4   3   2     1.082611714744   118.80558818     0.00000000
 H      5   4   3     1.080955043754   120.99867744   180.00021735
 H      8   6   5     1.080730749936   120.19559235   179.99993911
 H      9   8   6     1.084198769546   119.81293199   179.99999609

---------------------------
INTERNAL COORDINATES (A.U.)
---------------------------
 O      0   0   0     0.000000000000     0.00000000     0.00000000
 C      1   0   0     2.269831241210     0.00000000     0.00000000
 C      2   1   0     2.798772526206   124.23238970     0.00000000
 C      3   2   1     2.632234372176   120.27744913     0.00000000
 C      4   3   2     2.611750900720   120.15232985   179.99965397
 C      5   4   3     2.628360590521   119.02454015     0.00000000
 Br     6   5   4     3.573165928939   119.14577187   180.00008658
 C      6   5   4     2.619642500038   121.65423196     0.00000000
 C      8   6   5     2.620111367893   118.68770770     0.00000000
 H      2   1   3     2.092668177054   120.84496516   180.00535970
 H      4   3   2     2.045839650240   118.80558818     0.00000000
 H      5   4   3     2.042708995776   120.99867744   180.00021735
 H      8   6   5     2.042285141887   120.19559235   179.99993911
 H      9   8   6     2.048838749177   119.81293199   179.99999609

---------------------
BASIS SET INFORMATION
---------------------
There are 4 groups of distinct atoms

 Group   1 Type O   : 11s6p2d contracted to 5s3p2d pattern {62111/411/11}
 Group   2 Type C   : 11s6p1d contracted to 5s3p1d pattern {62111/411/1}
 Group   3 Type Br  : 17s13p7d contracted to 6s5p3d pattern {842111/64111/511}
 Group   4 Type H   : 4s1p contracted to 2s1p pattern {31/1}

Atom   0O    basis set group =>   1
Atom   1C    basis set group =>   2
Atom   2C    basis set group =>   2
Atom   3C    basis set group =>   2
Atom   4C    basis set group =>   2
Atom   5C    basis set group =>   2
Atom   6Br   basis set group =>   3
Atom   7C    basis set group =>   2
Atom   8C    basis set group =>   2
Atom   9H    basis set group =>   4
Atom  10H    basis set group =>   4
Atom  11H    basis set group =>   4
Atom  12H    basis set group =>   4
Atom  13H    basis set group =>   4
---------------------------------
AUXILIARY/J BASIS SET INFORMATION
---------------------------------
There are 4 groups of distinct atoms

 Group   1 Type O   : 8s3p3d contracted to 6s3p3d pattern {311111/111/111}
 Group   2 Type C   : 8s3p3d contracted to 6s3p3d pattern {311111/111/111}
 Group   3 Type Br  : 19s5p5d3f1g contracted to 8s4p3d2f1g pattern {121111111/2111/311/21/1}
 Group   4 Type H   : 5s2p1d contracted to 3s1p1d pattern {311/2/1}

Atom   0O    basis set group =>   1
Atom   1C    basis set group =>   2
Atom   2C    basis set group =>   2
Atom   3C    basis set group =>   2
Atom   4C    basis set group =>   2
Atom   5C    basis set group =>   2
Atom   6Br   basis set group =>   3
Atom   7C    basis set group =>   2
Atom   8C    basis set group =>   2
Atom   9H    basis set group =>   4
Atom  10H    basis set group =>   4
Atom  11H    basis set group =>   4
Atom  12H    basis set group =>   4
Atom  13H    basis set group =>   4


           ************************************************************
           *        Program running with 16 parallel MPI-processes    *
           *              working on a common directory               *
           ************************************************************
------------------------------------------------------------------------------
                           ORCA GTO INTEGRAL CALCULATION
                           -- RI-GTO INTEGRALS CHOSEN --
------------------------------------------------------------------------------
------------------------------------------------------------------------------
                   ___                                                        
                  /   \      - P O W E R E D   B Y -                         
                 /     \                                                     
                 |  |  |   _    _      __       _____    __    __             
                 |  |  |  | |  | |    /  \     |  _  \  |  |  /  |          
                  \  \/   | |  | |   /    \    | | | |  |  | /  /          
                 / \  \   | |__| |  /  /\  \   | |_| |  |  |/  /          
                |  |  |   |  __  | /  /__\  \  |    /   |      \           
                |  |  |   | |  | | |   __   |  |    \   |  |\   \          
                \     /   | |  | | |  |  |  |  | |\  \  |  | \   \       
                 \___/    |_|  |_| |__|  |__|  |_| \__\ |__|  \__/        
                                                                              
                      - O R C A' S   B I G   F R I E N D -                    
                                      &                                       
                       - I N T E G R A L  F E E D E R -                       
                                                                              
 v1 FN, 2020, v2 2021                                                         
------------------------------------------------------------------------------


Reading SHARK input file /tmp/254449/arbr_06_r2scan3c.SHARKINP.tmp ... ok
----------------------
SHARK INTEGRAL PACKAGE
----------------------

Number of atoms                             ...     14
Number of basis functions                   ...    218
Number of shells                            ...    102
Maximum angular momentum                    ...      2
Integral batch strategy                     ... SHARK/LIBINT Hybrid
RI-J (if used) integral strategy            ... SPLIT-RIJ (Revised 2003 algorithm where possible)
Printlevel                                  ...      1
Contraction scheme used                     ... SEGMENTED contraction
Coulomb Range Separation                    ... NOT USED
Exchange Range Separation                   ... NOT USED
Finite Nucleus Model                        ... NOT USED
Auxiliary Coulomb fitting basis             ... AVAILABLE
   # of basis functions in Aux-J            ...    353
   # of shells in Aux-J                     ...    139
   Maximum angular momentum in Aux-J        ...      4
Auxiliary J/K fitting basis                 ... NOT available
Auxiliary Correlation fitting basis         ... NOT available
Auxiliary 'external' fitting basis          ... NOT available
Integral threshold                          ...     2.500000e-11
Primitive cut-off                           ...     2.500000e-12
Primitive pair pre-selection threshold      ...     2.500000e-12

Calculating pre-screening integrals         ... done (  0.0 sec) Dimension = 102
Organizing shell pair data                  ... done (  0.0 sec)
Shell pair information
Total number of shell pairs                 ...      5253
Shell pairs after pre-screening             ...      4538
Total number of primitive shell pairs       ...     21785
Primitive shell pairs kept                  ...     12796
          la=0 lb=0:   1326 shell pairs
          la=1 lb=0:   1678 shell pairs
          la=1 lb=1:    547 shell pairs
          la=2 lb=0:    560 shell pairs
          la=2 lb=1:    361 shell pairs
          la=2 lb=2:     66 shell pairs

Calculating one electron integrals          ... done (  0.0 sec)
Calculating RI/J V-Matrix + Cholesky decomp.... done (  0.0 sec)
Calculating Nuclear repulsion               ... done (  0.0 sec) ENN=    589.212098028759 Eh

SHARK setup successfully completed in   0.2 seconds

Maximum memory used throughout the entire GTOINT-calculation: 17.6 MB


           ************************************************************
           *        Program running with 16 parallel MPI-processes    *
           *              working on a common directory               *
           ************************************************************
-------------------------------------------------------------------------------
                                 ORCA SCF
-------------------------------------------------------------------------------

------------
SCF SETTINGS
------------
Hamiltonian:
 Density Functional     Method          .... DFT(GTOs)
  Functional kind                       .... Exchange
  Functional name                       .... Re-regularized SCAN exchange by Furness et al
  Functional family                     .... MGGA
  Functional refs                              
    [ 0] J. W. Furness, A. D. Kaplan, J. Ning, J. P. Perdew, and J. Sun, J. Phys. Chem. Lett. 11, 8208 (2020)
    [ 1] J. W. Furness, A. D. Kaplan, J. Ning, J. P. Perdew, and J. Sun, J. Phys. Chem. Lett. 11, 9248 (2020)
  Functional external parameters         .... 8
 Parameter  0 :         c1 parameter
 Parameter  1 :         c2 parameter
 Parameter  2 :          d parameter
 Parameter  3 :         k1 parameter
 Parameter  4 :       taur parameter
 Parameter  5 :     alphar parameter
 Parameter  6 :        eta parameter
 Parameter  7 :        dp2 parameter
  Functional kind                       .... Correlation
  Functional name                       .... Re-regularized SCAN correlation by Furness et al
  Functional family                     .... MGGA
  Functional refs                              
    [ 0] J. W. Furness, A. D. Kaplan, J. Ning, J. P. Perdew, and J. Sun, J. Phys. Chem. Lett. 11, 8208 (2020)
    [ 1] J. W. Furness, A. D. Kaplan, J. Ning, J. P. Perdew, and J. Sun, J. Phys. Chem. Lett. 11, 9248 (2020)
  Functional external parameters         .... 0
 Gradients option       PostSCFGGA      .... off
   Density functional embedding theory  .... OFF
 RI-approximation to the Coulomb term is turned on
   Number of AuxJ basis functions       .... 353


General Settings:
 Integral files         IntName         .... /tmp/254449/arbr_06_r2scan3c
 Hartree-Fock type      HFTyp           .... RHF
 Total Charge           Charge          ....    0
 Multiplicity           Mult            ....    1
 Number of Electrons    NEL             ....   90
 Basis Dimension        Dim             ....  218
 Nuclear Repulsion      ENuc            ....    589.2120980288 Eh

Convergence Acceleration:
 DIIS                   CNVDIIS         .... on
   Start iteration      DIISMaxIt       ....    12
   Startup error        DIISStart       ....  0.200000
   # of expansion vecs  DIISMaxEq       ....     5
   Bias factor          DIISBfac        ....   1.050
   Max. coefficient     DIISMaxC        ....  10.000
 Trust-Rad. Augm. Hess. CNVTRAH         .... auto
   Auto Start mean grad. ratio tolernc. ....  1.125000
   Auto Start start iteration           ....    20
   Auto Start num. interpolation iter.  ....    10
   Max. Number of Micro iterations      ....    16
   Max. Number of Macro iterations      .... Maxiter - #DIIS iter
   Number of Davidson start vectors     ....     2
   Converg. threshold I  (grad. norm)   ....   1.000e-05
   Converg. threshold II (energy diff.) ....   1.000e-08
   Grad. Scal. Fac. for Micro threshold ....   0.100
   Minimum threshold for Micro iter.    ....   0.010
   NR start threshold (gradient norm)   ....   0.001
   Initial trust radius                 ....   0.400
   Minimum AH scaling param. (alpha)    ....   1.000
   Maximum AH scaling param. (alpha)    .... 1000.000
   Orbital update algorithm             .... Taylor
   White noise on init. David. guess    .... on
   Maximum white noise                  ....   0.010
   Quad. conv. algorithm                .... NR
   COSX micro iterations for RIJONX calc.... off
 SOSCF                  CNVSOSCF        .... on
   Start iteration      SOSCFMaxIt      ....   150
   Startup grad/error   SOSCFStart      ....  0.003300
 Level Shifting         CNVShift        .... on
   Level shift para.    LevelShift      ....    0.2500
   Turn off err/grad.   ShiftErr        ....    0.0010
 Zerner damping         CNVZerner       .... off
 Static damping         CNVDamp         .... on
   Fraction old density DampFac         ....    0.7000
   Max. Damping (<1)    DampMax         ....    0.9800
   Min. Damping (>=0)   DampMin         ....    0.0000
   Turn off err/grad.   DampErr         ....    0.1000
 Fernandez-Rico         CNVRico         .... off

SCF Procedure:
 Maximum # iterations   MaxIter         ....   125
 SCF integral mode      SCFMode         .... Direct
   Integral package                     .... SHARK and LIBINT hybrid scheme
 Reset frequency        DirectResetFreq ....    20
 Integral Threshold     Thresh          ....  2.500e-11 Eh
 Primitive CutOff       TCut            ....  2.500e-12 Eh

Convergence Tolerance:
 Convergence Check Mode ConvCheckMode   .... Total+1el-Energy
 Convergence forced     ConvForced      .... 0
 Energy Change          TolE            ....  1.000e-08 Eh
 1-El. energy change                    ....  1.000e-05 Eh
 Orbital Gradient       TolG            ....  1.000e-05
 Orbital Rotation angle TolX            ....  1.000e-05
 DIIS Error             TolErr          ....  5.000e-07


Diagonalization of the overlap matrix:
Smallest eigenvalue                        ... 2.971e-05
Time for diagonalization                   ...    0.004 sec
Threshold for overlap eigenvalues          ... 1.000e-08
Number of eigenvalues below threshold      ... 0
Time for construction of square roots      ...    0.002 sec
Total time needed                          ...    0.007 sec

Time for model grid setup =    0.065 sec

------------------------------
INITIAL GUESS: MODEL POTENTIAL
------------------------------
Loading Hartree-Fock densities                     ... done
Calculating cut-offs                               ... done
Initializing the effective Hamiltonian             ... done
Setting up the integral package (SHARK)            ... done
Starting the Coulomb interaction                   ... done (   0.0 sec)
Reading the grid                                   ... done
Mapping shells                                     ... done
Starting the XC term evaluation                    ... done (   0.0 sec)
  promolecular density results
     # of electrons  =     89.997370062
     EX              =   -134.703038491
     EC              =     -3.551844540
     EX+EC           =   -138.254883031
Transforming the Hamiltonian                       ... done (   0.0 sec)
Diagonalizing the Hamiltonian                      ... done (   0.0 sec)
Back transforming the eigenvectors                 ... done (   0.0 sec)
Now organizing SCF variables                       ... done
                      ------------------
                      INITIAL GUESS DONE (   0.1 sec)
                      ------------------
-------------------
DFT GRID GENERATION
-------------------

General Integration Accuracy     IntAcc      ... 4.388
Radial Grid Type                 RadialGrid  ... OptM3 with GC (2021)
Angular Grid (max. ang.)         AngularGrid ... 4 (Lebedev-302)
Angular grid pruning method      GridPruning ... 4 (adaptive)
Weight generation scheme         WeightScheme... Becke
Basis function cutoff            BFCut       ... 1.0000e-11
Integration weight cutoff        WCut        ... 1.0000e-14
Angular grids for H and He will be reduced by one unit
Partially contracted basis set               ... off
Rotationally invariant grid construction     ... off

Total number of grid points                  ...    75828
Total number of batches                      ...     1192
Average number of points per batch           ...       63
Average number of grid points per atom       ...     5416
Time for grid setup =    0.349 sec

--------------
SCF ITERATIONS
--------------
ITER       Energy         Delta-E        Max-DP      RMS-DP      [F,P]     Damp
               ***  Starting incremental Fock matrix formation  ***
  0  -2918.8377846205   0.000000000000 0.17080028  0.00394752  0.2621710 0.7000
  1  -2918.9350591232  -0.097274502683 0.13287348  0.00307987  0.0917113 0.7000
                               ***Turning on DIIS***
  2  -2918.9676125427  -0.032553419573 0.12259866  0.00332683  0.0285534 0.0000
  3  -2919.0211548743  -0.053542331614 0.13704977  0.00302966  0.0396892 0.0000
  4  -2919.0346465957  -0.013491721324 0.03638577  0.00080447  0.0253628 0.0000
  5  -2919.0359781566  -0.001331560959 0.01636639  0.00039508  0.0062181 0.0000
                      *** Initiating the SOSCF procedure ***
                           *** Shutting down DIIS ***
                      *** Re-Reading the Fockian *** 
                      *** Removing any level shift *** 
ITER      Energy       Delta-E        Grad      Rot      Max-DP    RMS-DP
  6  -2919.03608660  -0.0001084399  0.000338  0.000338  0.003831  0.000091
               *** Restarting incremental Fock matrix formation ***
  7  -2919.03609541  -0.0000088145  0.000198  0.001395  0.002091  0.000047
  8  -2919.03609506   0.0000003506  0.000234  0.000410  0.000521  0.000015
  9  -2919.03609680  -0.0000017375  0.000079  0.000486  0.001024  0.000024
 10  -2919.03609657   0.0000002273  0.000107  0.000166  0.000564  0.000013
 11  -2919.03609696  -0.0000003871  0.000024  0.000098  0.000146  0.000004
 12  -2919.03609694   0.0000000165  0.000034  0.000061  0.000075  0.000002
 13  -2919.03609697  -0.0000000328  0.000009  0.000059  0.000086  0.000002
 14  -2919.03609698  -0.0000000023  0.000011  0.000030  0.000062  0.000001
                  ***Gradient check signals convergence***
              ***Rediagonalizing the Fockian in SOSCF/NRSCF***

               *****************************************************
               *                     SUCCESS                       *
               *           SCF CONVERGED AFTER  15 CYCLES          *
               *****************************************************


----------------
TOTAL SCF ENERGY
----------------

Total Energy       :        -2919.03609698 Eh          -79431.01039 eV

Components:
Nuclear Repulsion  :          589.21209803 Eh           16033.27630 eV
Electronic Energy  :        -3508.24819501 Eh          -95464.28670 eV
One Electron Energy:        -5219.56001343 Eh         -142031.44870 eV
Two Electron Energy:         1711.31181843 Eh           46567.16201 eV

Virial components:
Potential Energy   :        -5833.27782249 Eh         -158731.55931 eV
Kinetic Energy     :         2914.24172552 Eh           79300.54891 eV
Virial Ratio       :            2.00164515


DFT components:
N(Alpha)           :       45.000029219574 electrons
N(Beta)            :       45.000029219574 electrons
N(Total)           :       90.000058439147 electrons
E(X)               :     -136.100108679179 Eh       
E(C)               :       -3.519892520950 Eh       
E(XC)              :     -139.620001200129 Eh       
DFET-embed. en.    :        0.000000000000 Eh       

---------------
SCF CONVERGENCE
---------------

  Last Energy change         ...   -4.9477e-10  Tolerance :   1.0000e-08
  Last MAX-Density change    ...    2.9584e-05  Tolerance :   1.0000e-07
  Last RMS-Density change    ...    7.1394e-07  Tolerance :   5.0000e-09
  Last Orbital Gradient      ...    2.4517e-06  Tolerance :   1.0000e-05
  Last Orbital Rotation      ...    5.9752e-06  Tolerance :   1.0000e-05

             **** THE GBW FILE WAS UPDATED (/tmp/254449/arbr_06_r2scan3c.gbw) ****
             **** DENSITY /tmp/254449/arbr_06_r2scan3c.scfp WAS UPDATED ****
             **** ENERGY FILE WAS UPDATED (/tmp/254449/arbr_06_r2scan3c.en.tmp) ****
             **** THE GBW FILE WAS UPDATED (/tmp/254449/arbr_06_r2scan3c.gbw) ****
             **** DENSITY /tmp/254449/arbr_06_r2scan3c.scfp WAS UPDATED ****
----------------
ORBITAL ENERGIES
----------------

  NO   OCC          E(Eh)            E(eV) 
   0   2.0000    -482.245747    -13122.5739 
   1   2.0000     -62.316982     -1695.7313 
   2   2.0000     -56.098253     -1526.5111 
   3   2.0000     -56.094324     -1526.4042 
   4   2.0000     -56.094231     -1526.4016 
   5   2.0000     -18.955304      -515.8000 
   6   2.0000     -10.126792      -275.5640 
   7   2.0000     -10.119964      -275.3782 
   8   2.0000     -10.072419      -274.0845 
   9   2.0000     -10.069842      -274.0143 
  10   2.0000     -10.068891      -273.9885 
  11   2.0000     -10.066686      -273.9285 
  12   2.0000     -10.065028      -273.8833 
  13   2.0000      -8.648997      -235.3512 
  14   2.0000      -6.456733      -175.6966 
  15   2.0000      -6.442997      -175.3229 
  16   2.0000      -6.442263      -175.3029 
  17   2.0000      -2.554247       -69.5046 
  18   2.0000      -2.551130       -69.4198 
  19   2.0000      -2.550604       -69.4055 
  20   2.0000      -2.540084       -69.1192 
  21   2.0000      -2.540078       -69.1190 
  22   2.0000      -1.024572       -27.8800 
  23   2.0000      -0.869363       -23.6566 
  24   2.0000      -0.798715       -21.7341 
  25   2.0000      -0.751549       -20.4507 
  26   2.0000      -0.726304       -19.7637 
  27   2.0000      -0.624730       -16.9998 
  28   2.0000      -0.610797       -16.6206 
  29   2.0000      -0.560488       -15.2517 
  30   2.0000      -0.500871       -13.6294 
  31   2.0000      -0.467514       -12.7217 
  32   2.0000      -0.450986       -12.2719 
  33   2.0000      -0.427245       -11.6259 
  34   2.0000      -0.421466       -11.4687 
  35   2.0000      -0.407898       -11.0995 
  36   2.0000      -0.401999       -10.9390 
  37   2.0000      -0.371153       -10.0996 
  38   2.0000      -0.358064        -9.7434 
  39   2.0000      -0.346619        -9.4320 
  40   2.0000      -0.309401        -8.4192 
  41   2.0000      -0.281504        -7.6601 
  42   2.0000      -0.270170        -7.3517 
  43   2.0000      -0.246613        -6.7107 
  44   2.0000      -0.234885        -6.3916 
  45   0.0000      -0.104784        -2.8513 
  46   0.0000      -0.063625        -1.7313 
  47   0.0000      -0.033515        -0.9120 
  48   0.0000      -0.010853        -0.2953 
  49   0.0000       0.080045         2.1781 
  50   0.0000       0.088617         2.4114 
  51   0.0000       0.099157         2.6982 
  52   0.0000       0.109328         2.9750 
  53   0.0000       0.116093         3.1591 
  54   0.0000       0.129201         3.5157 
  55   0.0000       0.143786         3.9126 
  56   0.0000       0.154924         4.2157 
  57   0.0000       0.171252         4.6600 
  58   0.0000       0.189322         5.1517 
  59   0.0000       0.189971         5.1694 
  60   0.0000       0.193130         5.2553 
  61   0.0000       0.208862         5.6834 
  62   0.0000       0.223492         6.0815 
  63   0.0000       0.229055         6.2329 
  64   0.0000       0.231992         6.3128 
  65   0.0000       0.242755         6.6057 
  66   0.0000       0.245821         6.6891 
  67   0.0000       0.271668         7.3925 
  68   0.0000       0.277743         7.5578 
  69   0.0000       0.278343         7.5741 
  70   0.0000       0.301409         8.2017 
  71   0.0000       0.302611         8.2345 
  72   0.0000       0.309100         8.4110 
  73   0.0000       0.313746         8.5375 
  74   0.0000       0.317054         8.6275 
  75   0.0000       0.331128         9.0104 
  76   0.0000       0.357126         9.7179 
  77   0.0000       0.368694        10.0327 
  78   0.0000       0.393735        10.7141 
  79   0.0000       0.419392        11.4122 
  80   0.0000       0.423408        11.5215 
  81   0.0000       0.455667        12.3993 
  82   0.0000       0.463487        12.6121 
  83   0.0000       0.465231        12.6596 
  84   0.0000       0.479384        13.0447 
  85   0.0000       0.502401        13.6710 
  86   0.0000       0.514284        13.9944 
  87   0.0000       0.522429        14.2160 
  88   0.0000       0.528706        14.3868 
  89   0.0000       0.545466        14.8429 
  90   0.0000       0.551072        14.9954 
  91   0.0000       0.554566        15.0905 
  92   0.0000       0.565130        15.3780 
  93   0.0000       0.582486        15.8502 
  94   0.0000       0.589151        16.0316 
  95   0.0000       0.599692        16.3184 
  96   0.0000       0.621427        16.9099 
  97   0.0000       0.654486        17.8095 
  98   0.0000       0.670394        18.2423 
  99   0.0000       0.682450        18.5704 
 100   0.0000       0.687770        18.7152 
 101   0.0000       0.701106        19.0781 
 102   0.0000       0.727660        19.8006 
 103   0.0000       0.748308        20.3625 
 104   0.0000       0.813108        22.1258 
 105   0.0000       0.841350        22.8943 
 106   0.0000       0.877144        23.8683 
 107   0.0000       0.997371        27.1399 
 108   0.0000       1.015194        27.6248 
 109   0.0000       1.060743        28.8643 
 110   0.0000       1.095343        29.8058 
 111   0.0000       1.114374        30.3237 
 112   0.0000       1.165248        31.7080 
 113   0.0000       1.202680        32.7266 
 114   0.0000       1.213288        33.0153 
 115   0.0000       1.234239        33.5853 
 116   0.0000       1.260950        34.3122 
 117   0.0000       1.302983        35.4560 
 118   0.0000       1.309899        35.6442 
 119   0.0000       1.317480        35.8504 
 120   0.0000       1.342137        36.5214 
 121   0.0000       1.357517        36.9399 
 122   0.0000       1.379675        37.5429 
 123   0.0000       1.392050        37.8796 
 124   0.0000       1.412380        38.4328 
 125   0.0000       1.413595        38.4659 
 126   0.0000       1.418571        38.6013 
 127   0.0000       1.426955        38.8294 
 128   0.0000       1.446228        39.3539 
 129   0.0000       1.453066        39.5399 
 130   0.0000       1.474453        40.1219 
 131   0.0000       1.480558        40.2880 
 132   0.0000       1.489082        40.5200 
 133   0.0000       1.491793        40.5938 
 134   0.0000       1.500328        40.8260 
 135   0.0000       1.518219        41.3128 
 136   0.0000       1.543283        41.9949 
 137   0.0000       1.560960        42.4759 
 138   0.0000       1.586806        43.1792 
 139   0.0000       1.594231        43.3812 
 140   0.0000       1.610674        43.8287 
 141   0.0000       1.665916        45.3319 
 142   0.0000       1.687195        45.9109 
 143   0.0000       1.708479        46.4901 
 144   0.0000       1.713219        46.6191 
 145   0.0000       1.746338        47.5203 
 146   0.0000       1.749842        47.6156 
 147   0.0000       1.811259        49.2869 
 148   0.0000       1.860277        50.6207 
 149   0.0000       1.940852        52.8133 
 150   0.0000       1.957883        53.2767 
 151   0.0000       2.010242        54.7015 
 152   0.0000       2.022787        55.0428 
 153   0.0000       2.036883        55.4264 
 154   0.0000       2.052158        55.8421 
 155   0.0000       2.100391        57.1545 
 156   0.0000       2.118812        57.6558 
 157   0.0000       2.148367        58.4600 
 158   0.0000       2.162127        58.8345 
 159   0.0000       2.175022        59.1853 
 160   0.0000       2.241147        60.9847 
 161   0.0000       2.249326        61.2073 
 162   0.0000       2.265088        61.6362 
 163   0.0000       2.283307        62.1319 
 164   0.0000       2.287633        62.2497 
 165   0.0000       2.293534        62.4102 
 166   0.0000       2.313039        62.9410 
 167   0.0000       2.330093        63.4051 
 168   0.0000       2.338318        63.6289 
 169   0.0000       2.358835        64.1872 
 170   0.0000       2.359853        64.2149 
 171   0.0000       2.368642        64.4540 
 172   0.0000       2.406710        65.4899 
 173   0.0000       2.510595        68.3168 
 174   0.0000       2.539560        69.1049 
 175   0.0000       2.592752        70.5524 
 176   0.0000       2.649045        72.0842 
 177   0.0000       2.667546        72.5876 
 178   0.0000       2.676730        72.8375 
 179   0.0000       2.679459        72.9118 
 180   0.0000       2.697359        73.3989 
 181   0.0000       2.710583        73.7587 
 182   0.0000       2.732261        74.3486 
 183   0.0000       2.785794        75.8053 
 184   0.0000       2.823586        76.8337 
 185   0.0000       2.831029        77.0362 
 186   0.0000       2.862228        77.8852 
 187   0.0000       2.897119        78.8346 
 188   0.0000       2.927052        79.6491 
 189   0.0000       2.930135        79.7330 
 190   0.0000       2.957773        80.4851 
 191   0.0000       2.960153        80.5498 
 192   0.0000       3.026196        82.3470 
 193   0.0000       3.100660        84.3732 
 194   0.0000       3.131681        85.2174 
 195   0.0000       3.176064        86.4251 
 196   0.0000       3.200606        87.0929 
 197   0.0000       3.201271        87.1110 
 198   0.0000       3.235353        88.0384 
 199   0.0000       3.252251        88.4983 
 200   0.0000       3.266291        88.8803 
 201   0.0000       3.335847        90.7730 
 202   0.0000       3.389498        92.2329 
 203   0.0000       3.430317        93.3437 
 204   0.0000       3.560480        96.8856 
 205   0.0000       3.616795        98.4180 
 206   0.0000       3.732367       101.5629 
 207   0.0000       3.964609       107.8825 
 208   0.0000       4.380034       119.1868 
 209   0.0000       7.461275       203.0316 
 210   0.0000      21.275602       578.9386 
 211   0.0000      21.783033       592.7465 
 212   0.0000      21.917007       596.3921 
 213   0.0000      22.057550       600.2164 
 214   0.0000      22.142129       602.5180 
 215   0.0000      22.164385       603.1236 
 216   0.0000      22.286934       606.4583 
 217   0.0000      43.608326      1186.6429 

                    ********************************
                    * MULLIKEN POPULATION ANALYSIS *
                    ********************************

-----------------------
MULLIKEN ATOMIC CHARGES
-----------------------
   0 O :   -0.337053
   1 C :    0.027811
   2 C :    0.204238
   3 C :   -0.136648
   4 C :   -0.185791
   5 C :    0.139043
   6 Br:   -0.103991
   7 C :   -0.191145
   8 C :   -0.196568
   9 H :    0.106059
  10 H :    0.184140
  11 H :    0.166759
  12 H :    0.165482
  13 H :    0.157663
Sum of atomic charges:    0.0000000

--------------------------------
MULLIKEN REDUCED ORBITAL CHARGES
--------------------------------
  0 O s       :     3.843194  s :     3.843194
      pz      :     1.331043  p :     4.470024
      px      :     1.637343
      py      :     1.501638
      dz2     :     0.002643  d :     0.023835
      dxz     :     0.006898
      dyz     :     0.008755
      dx2y2   :    -0.001635
      dxy     :     0.007174
  1 C s       :     3.325324  s :     3.325324
      pz      :     0.742617  p :     2.560030
      px      :     0.898108
      py      :     0.919305
      dz2     :     0.004069  d :     0.086835
      dxz     :     0.010309
      dyz     :     0.008610
      dx2y2   :     0.043324
      dxy     :     0.020523
  2 C s       :     3.091376  s :     3.091376
      pz      :     1.001947  p :     2.657497
      px      :     0.771831
      py      :     0.883720
      dz2     :     0.003737  d :     0.046889
      dxz     :     0.003886
      dyz     :     0.006787
      dx2y2   :     0.017144
      dxy     :     0.015335
  3 C s       :     3.202965  s :     3.202965
      pz      :     0.924286  p :     2.894857
      px      :     0.965158
      py      :     1.005413
      dz2     :     0.003216  d :     0.038826
      dxz     :     0.005682
      dyz     :     0.003587
      dx2y2   :     0.012410
      dxy     :     0.013930
  4 C s       :     3.204514  s :     3.204514
      pz      :     0.988578  p :     2.943197
      px      :     0.959832
      py      :     0.994786
      dz2     :     0.003284  d :     0.038080
      dxz     :     0.005524
      dyz     :     0.003309
      dx2y2   :     0.011578
      dxy     :     0.014385
  5 C s       :     3.117748  s :     3.117748
      pz      :     1.008017  p :     2.692890
      px      :     0.726275
      py      :     0.958598
      dz2     :     0.003472  d :     0.050320
      dxz     :     0.006370
      dyz     :     0.007563
      dx2y2   :     0.016795
      dxy     :     0.016120
  6 Brs       :     7.981440  s :     7.981440
      pz      :     5.922702  p :    17.074610
      px      :     5.199690
      py      :     5.952219
      dz2     :     2.006006  d :    10.047940
      dxz     :     2.014675
      dyz     :     2.000371
      dx2y2   :     2.018351
      dxy     :     2.008537
  7 C s       :     3.206462  s :     3.206462
      pz      :     0.990195  p :     2.946702
      px      :     0.985227
      py      :     0.971279
      dz2     :     0.003302  d :     0.037981
      dxz     :     0.005144
      dyz     :     0.003771
      dx2y2   :     0.011931
      dxy     :     0.013833
  8 C s       :     3.168305  s :     3.168305
      pz      :     0.961935  p :     2.989247
      px      :     0.993674
      py      :     1.033638
      dz2     :     0.003237  d :     0.039015
      dxz     :     0.006433
      dyz     :     0.003080
      dx2y2   :     0.012680
      dxy     :     0.013586
  9 H s       :     0.876302  s :     0.876302
      pz      :     0.002232  p :     0.017639
      px      :     0.003854
      py      :     0.011552
 10 H s       :     0.796202  s :     0.796202
      pz      :     0.003667  p :     0.019658
      px      :     0.006758
      py      :     0.009233
 11 H s       :     0.813723  s :     0.813723
      pz      :     0.003993  p :     0.019518
      px      :     0.005057
      py      :     0.010467
 12 H s       :     0.814916  s :     0.814916
      pz      :     0.004067  p :     0.019602
      px      :     0.006126
      py      :     0.009409
 13 H s       :     0.822850  s :     0.822850
      pz      :     0.003968  p :     0.019487
      px      :     0.005008
      py      :     0.010511


                     *******************************
                     * LOEWDIN POPULATION ANALYSIS *
                     *******************************

----------------------
LOEWDIN ATOMIC CHARGES
----------------------
   0 O :   -0.446461
   1 C :    0.214681
   2 C :   -0.102139
   3 C :   -0.094188
   4 C :   -0.166975
   5 C :   -0.217345
   6 Br:    0.218640
   7 C :   -0.172552
   8 C :   -0.124402
   9 H :    0.158330
  10 H :    0.192310
  11 H :    0.181378
  12 H :    0.180944
  13 H :    0.177780

-------------------------------
LOEWDIN REDUCED ORBITAL CHARGES
-------------------------------
  0 O s       :     3.562099  s :     3.562099
      pz      :     1.323139  p :     4.652056
      px      :     1.687519
      py      :     1.641398
      dz2     :     0.027375  d :     0.232306
      dxz     :     0.021778
      dyz     :     0.022525
      dx2y2   :     0.088094
      dxy     :     0.072535
  1 C s       :     2.857503  s :     2.857503
      pz      :     0.716613  p :     2.738166
      px      :     0.996409
      py      :     1.025144
      dz2     :     0.011230  d :     0.189651
      dxz     :     0.017871
      dyz     :     0.013988
      dx2y2   :     0.097336
      dxy     :     0.049225
  2 C s       :     2.867386  s :     2.867386
      pz      :     0.981410  p :     3.138484
      px      :     1.053432
      py      :     1.103642
      dz2     :     0.007515  d :     0.096269
      dxz     :     0.006130
      dyz     :     0.012220
      dx2y2   :     0.036664
      dxy     :     0.033741
  3 C s       :     2.897751  s :     2.897751
      pz      :     0.922465  p :     3.114532
      px      :     1.087725
      py      :     1.104342
      dz2     :     0.005530  d :     0.081906
      dxz     :     0.009987
      dyz     :     0.006081
      dx2y2   :     0.028226
      dxy     :     0.032081
  4 C s       :     2.905749  s :     2.905749
      pz      :     0.979760  p :     3.178848
      px      :     1.105151
      py      :     1.093936
      dz2     :     0.005929  d :     0.082379
      dxz     :     0.009862
      dyz     :     0.005468
      dx2y2   :     0.027152
      dxy     :     0.033968
  5 C s       :     2.932401  s :     2.932401
      pz      :     1.002849  p :     3.183993
      px      :     1.027651
      py      :     1.153492
      dz2     :     0.006833  d :     0.100952
      dxz     :     0.010375
      dyz     :     0.013364
      dx2y2   :     0.035733
      dxy     :     0.034647
  6 Brs       :     7.666390  s :     7.666390
      pz      :     5.900487  p :    17.046447
      px      :     5.222779
      py      :     5.923181
      dz2     :     2.009927  d :    10.068524
      dxz     :     2.017395
      dyz     :     2.000364
      dx2y2   :     2.029978
      dxy     :     2.010859
  7 C s       :     2.905551  s :     2.905551
      pz      :     0.986997  p :     3.184811
      px      :     1.105515
      py      :     1.092299
      dz2     :     0.005959  d :     0.082190
      dxz     :     0.009092
      dyz     :     0.006439
      dx2y2   :     0.027675
      dxy     :     0.033025
  8 C s       :     2.898602  s :     2.898602
      pz      :     0.947986  p :     3.142861
      px      :     1.092563
      py      :     1.102312
      dz2     :     0.005601  d :     0.082939
      dxz     :     0.011575
      dyz     :     0.005098
      dx2y2   :     0.029241
      dxy     :     0.031424
  9 H s       :     0.802003  s :     0.802003
      pz      :     0.004552  p :     0.039666
      px      :     0.009094
      py      :     0.026020
 10 H s       :     0.761568  s :     0.761568
      pz      :     0.007909  p :     0.046122
      px      :     0.015887
      py      :     0.022326
 11 H s       :     0.773276  s :     0.773276
      pz      :     0.008774  p :     0.045346
      px      :     0.011340
      py      :     0.025231
 12 H s       :     0.773644  s :     0.773644
      pz      :     0.008925  p :     0.045412
      px      :     0.013979
      py      :     0.022508
 13 H s       :     0.777243  s :     0.777243
      pz      :     0.008523  p :     0.044977
      px      :     0.011535
      py      :     0.024919


                      *****************************
                      * MAYER POPULATION ANALYSIS *
                      *****************************

  NA   - Mulliken gross atomic population
  ZA   - Total nuclear charge
  QA   - Mulliken gross atomic charge
  VA   - Mayer's total valence
  BVA  - Mayer's bonded valence
  FA   - Mayer's free valence

  ATOM       NA         ZA         QA         VA         BVA        FA
  0 O      8.3371     8.0000    -0.3371     2.0174     2.0174     0.0000
  1 C      5.9722     6.0000     0.0278     3.9361     3.9361     0.0000
  2 C      5.7958     6.0000     0.2042     3.3589     3.3589     0.0000
  3 C      6.1366     6.0000    -0.1366     3.8932     3.8932    -0.0000
  4 C      6.1858     6.0000    -0.1858     3.7680     3.7680    -0.0000
  5 C      5.8610     6.0000     0.1390     3.7925     3.7925    -0.0000
  6 Br    35.1040    35.0000    -0.1040     1.1394     1.1394     0.0000
  7 C      6.1911     6.0000    -0.1911     3.8232     3.8232    -0.0000
  8 C      6.1966     6.0000    -0.1966     3.8637     3.8637     0.0000
  9 H      0.8939     1.0000     0.1061     0.9673     0.9673     0.0000
 10 H      0.8159     1.0000     0.1841     0.9547     0.9547    -0.0000
 11 H      0.8332     1.0000     0.1668     0.9645     0.9645    -0.0000
 12 H      0.8345     1.0000     0.1655     0.9655     0.9655    -0.0000
 13 H      0.8423     1.0000     0.1577     0.9651     0.9651     0.0000

  Mayer bond orders larger than 0.100000
B(  0-O ,  1-C ) :   1.9726 B(  0-O ,  2-C ) :  -0.1115 B(  1-C ,  2-C ) :   0.8367 
B(  1-C ,  9-H ) :   1.0379 B(  2-C ,  3-C ) :   1.3612 B(  2-C ,  8-C ) :   1.3776 
B(  2-C ,  9-H ) :  -0.1140 B(  3-C ,  4-C ) :   1.4163 B(  3-C , 10-H ) :   0.9615 
B(  4-C ,  5-C ) :   1.3558 B(  4-C , 11-H ) :   0.9467 B(  5-C ,  6-Br) :   1.0194 
B(  5-C ,  7-C ) :   1.3947 B(  7-C ,  8-C ) :   1.4115 B(  7-C , 12-H ) :   0.9440 
B(  8-C , 13-H ) :   0.9317 

-------
TIMINGS
-------

Total SCF time: 0 days 0 hours 0 min 3 sec 

Total time                  ....       3.066 sec
Sum of individual times     ....       2.909 sec  ( 94.9%)

Fock matrix formation       ....       2.218 sec  ( 72.4%)
  Split-RI-J                ....       0.493 sec  ( 22.2% of F)
  XC integration            ....       1.616 sec  ( 72.9% of F)
    Basis function eval.    ....       0.227 sec  ( 14.0% of XC)
    Density eval.           ....       0.424 sec  ( 26.2% of XC)
    XC-Functional eval.     ....       0.208 sec  ( 12.9% of XC)
    XC-Potential eval.      ....       0.495 sec  ( 30.6% of XC)
Diagonalization             ....       0.064 sec  (  2.1%)
Density matrix formation    ....       0.026 sec  (  0.9%)
Population analysis         ....       0.014 sec  (  0.5%)
Initial guess               ....       0.046 sec  (  1.5%)
Orbital Transformation      ....       0.000 sec  (  0.0%)
Orbital Orthonormalization  ....       0.000 sec  (  0.0%)
DIIS solution               ....       0.065 sec  (  2.1%)
SOSCF solution              ....       0.061 sec  (  2.0%)
Grid generation             ....       0.414 sec  ( 13.5%)

Maximum memory used throughout the entire SCF-calculation: 26.5 MB


-------------------------------------------------------------------------------
                          DFT DISPERSION CORRECTION                            
                                                                               
                                 DFTD4 V2.5                                    
-------------------------------------------------------------------------------
The R2SCAN3C composite method is recognized
Using three-body term ABC
Active option DFTDOPT                   ...         5   

Starting D4
-------------------------   ----------------
Dispersion correction           -0.005261812
-------------------------   ----------------

------------------   -----------------
gCP correction             0.003981354
------------------   -----------------

-------------------------   --------------------
FINAL SINGLE POINT ENERGY     -2919.037377434350
-------------------------   --------------------



           ************************************************************
           *        Program running with 16 parallel MPI-processes    *
           *              working on a common directory               *
           ************************************************************
------------------------------------------------------------------------------
                         ORCA SCF GRADIENT CALCULATION
------------------------------------------------------------------------------

Gradient of the Kohn-Sham DFT energy:
Kohn-Sham wavefunction type      ... RKS
Hartree-Fock exchange scaling    ...    0.000
Number of operators              ...    1
Number of atoms                  ...   14
Basis set dimensions             ...  218
Integral neglect threshold       ... 2.5e-11
Integral primitive cutoff        ... 2.5e-12
SHARK Integral package           ... ON

Nuc. rep. gradient       (SHARK) ... done (  0.0 sec)
HCore & Overlap gradient (SHARK) ... done (  0.0 sec)
RI-J gradient            (SHARK) ... done (  0.2 sec)
Exchange-correlation gradient    ... done
Dispersion correction            ... Starting D4
Starting D4
Starting D4
Starting D4
Starting D4
Starting D4
Starting D4
Starting D4
Starting D4
Starting D4
Starting D4
Starting D4
Starting D4
Starting D4
Starting D4


------------------- 
Dispersion Gradient 
------------------- 
   1  :   -0.000087968   -0.000021075    0.000000001
   2  :   -0.000099564    0.000008676   -0.000000001
   3  :   -0.000061869    0.000004707   -0.000000000
   4  :   -0.000030732   -0.000056279   -0.000000001
   5  :    0.000046391   -0.000057557   -0.000000000
   6  :    0.000068461   -0.000003505    0.000000000
   7  :    0.000201434   -0.000012873    0.000000001
   8  :    0.000050359    0.000053623    0.000000000
   9  :   -0.000022652    0.000065662   -0.000000000
  10  :   -0.000041568    0.000011928    0.000000000
  11  :   -0.000022735   -0.000038806   -0.000000000
  12  :    0.000019857   -0.000040729   -0.000000000
  13  :    0.000023570    0.000037618    0.000000000
  14  :   -0.000013239    0.000044821    0.000000000

  |G| =    0.001248266

Starting D4
done
gCP correction                   ... done

------------------
CARTESIAN GRADIENT
------------------

   1   O   :    0.011925938    0.014865368    0.000002873
   2   C   :   -0.013774703   -0.008953387   -0.000009439
   3   C   :    0.007836091   -0.000531733    0.000003545
   4   C   :   -0.001506415    0.002059499    0.000000175
   5   C   :    0.000306901    0.002072549   -0.000000166
   6   C   :    0.002151527    0.000157342    0.000000089
   7   Br  :   -0.005902927    0.000393928   -0.000000058
   8   C   :    0.000334527   -0.002578410   -0.000000139
   9   C   :   -0.002096117   -0.002147924   -0.000000278
  10   H   :    0.000787861   -0.005150592    0.000003260
  11   H   :    0.001264169    0.002121542   -0.000000036
  12   H   :   -0.000955997    0.002459202   -0.000000056
  13   H   :   -0.001223247   -0.002334825   -0.000000005
  14   H   :    0.000882138   -0.002436350    0.000000236

Difference to translation invariance:
           :    0.0000297452   -0.0000037899    0.0000000000

Difference to rotation invariance:
           :    0.0000000332   -0.0000000300    0.0003582905

Norm of the cartesian gradient     ...    0.0285480831
RMS gradient                       ...    0.0044050649
MAX gradient                       ...    0.0148653679

-------
TIMINGS
-------

Total SCF gradient time            ...        0.588 sec

One electron gradient       ....       0.018 sec  (  3.1%)
RI-J Coulomb gradient       ....       0.185 sec  ( 31.4%)
XC gradient                 ....       0.267 sec  ( 45.5%)

Maximum memory used throughout the entire SCFGRAD-calculation: 30.4 MB
------------------------------------------------------------------------------
                         ORCA GEOMETRY RELAXATION STEP
------------------------------------------------------------------------------

Reading the OPT-File                    .... done
Getting information on internals        .... done
Copying old internal coords+grads       .... done
Making the new internal coordinates     .... (new redundants).... done
Validating the new internal coordinates .... (new redundants).... done
Calculating the B-matrix                .... done
Calculating the G,G- and P matrices     .... done
Transforming gradient to internals      .... done
Projecting the internal gradient        .... done
Number of atoms                         ....  14
Number of internal coordinates          ....  63
Current Energy                          .... -2919.037377434 Eh
Current gradient norm                   ....     0.028548083 Eh/bohr
Maximum allowed component of the step   ....  0.300
Current trust radius                    ....  0.300
Evaluating the initial hessian          ....  (Almloef) done
Projecting the Hessian                  .... done
Forming the augmented Hessian           .... done
Diagonalizing the augmented Hessian     .... done
Last element of RFO vector              ....  0.999302467
Lowest eigenvalues of augmented Hessian:
 -0.000799381  0.013634356  0.013634359  0.022825667  0.026855878
Length of the computed step             ....  0.037370130
The final length of the internal step   ....  0.037370130
Converting the step to cartesian space:
 Initial RMS(Int)=    0.0047081939
Transforming coordinates:
 Iter   0:  RMS(Cart)=    0.0078861284 RMS(Int)=    2.5032659606
 Iter   1:  RMS(Cart)=    0.0000148066 RMS(Int)=    0.0000070999
 Iter   2:  RMS(Cart)=    0.0000001038 RMS(Int)=    0.0000000619
 Iter   3:  RMS(Cart)=    0.0000000005 RMS(Int)=    0.0000000003
done
Storing new coordinates                 .... done

                                .--------------------.
          ----------------------|Geometry convergence|-------------------------
          Item                value                   Tolerance       Converged
          ---------------------------------------------------------------------
          RMS gradient        0.0030482938            0.0001000000      NO
          MAX gradient        0.0190607242            0.0003000000      NO
          RMS step            0.0047081939            0.0020000000      NO
          MAX step            0.0176998894            0.0040000000      NO
          ........................................................
          Max(Bonds)      0.0094      Max(Angles)    0.27
          Max(Dihed)        0.01      Max(Improp)    0.00
          ---------------------------------------------------------------------

The optimization has not yet converged - more geometry cycles are needed


    ---------------------------------------------------------------------------
                         Redundant Internal Coordinates
                            (Angstroem and degrees)

        Definition                    Value    dE/dq     Step     New-Value
    ----------------------------------------------------------------------------
     1. B(C   1,O   0)                1.2011 -0.019061  0.0090    1.2101   
     2. B(C   2,C   1)                1.4810  0.001117 -0.0013    1.4797   
     3. B(C   3,C   2)                1.3929 -0.005465  0.0047    1.3976   
     4. B(C   4,C   3)                1.3821 -0.002814  0.0023    1.3844   
     5. B(C   5,C   4)                1.3909 -0.004619  0.0039    1.3948   
     6. B(Br  6,C   5)                1.8908 -0.005918  0.0094    1.9002   
     7. B(C   7,C   5)                1.3863 -0.004905  0.0041    1.3903   
     8. B(C   8,C   7)                1.3865 -0.002492  0.0021    1.3886   
     9. B(C   8,C   2)                1.3893 -0.006092  0.0052    1.3944   
    10. B(H   9,C   1)                1.1074 -0.005084  0.0079    1.1153   
    11. B(H  10,C   3)                1.0826 -0.002461  0.0035    1.0861   
    12. B(H  11,C   4)                1.0810 -0.002625  0.0037    1.0847   
    13. B(H  12,C   7)                1.0807 -0.002620  0.0037    1.0844   
    14. B(H  13,C   8)                1.0842 -0.002573  0.0037    1.0879   
    15. A(O   0,C   1,H   9)          120.84 -0.000630    0.12    120.96   
    16. A(C   2,C   1,H   9)          114.92  0.001688   -0.27    114.66   
    17. A(O   0,C   1,C   2)          124.23 -0.001059    0.15    124.38   
    18. A(C   3,C   2,C   8)          120.01  0.000773   -0.10    119.91   
    19. A(C   1,C   2,C   3)          120.28 -0.000769    0.10    120.38   
    20. A(C   1,C   2,C   8)          119.72 -0.000004   -0.00    119.71   
    21. A(C   4,C   3,H  10)          121.04  0.000342   -0.05    120.99   
    22. A(C   2,C   3,C   4)          120.15 -0.000312    0.05    120.20   
    23. A(C   2,C   3,H  10)          118.81 -0.000030    0.01    118.81   
    24. A(C   3,C   4,C   5)          119.02  0.000127   -0.02    119.00   
    25. A(C   5,C   4,H  11)          119.98 -0.000335    0.05    120.03   
    26. A(C   3,C   4,H  11)          121.00  0.000208   -0.03    120.97   
    27. A(Br  6,C   5,C   7)          119.20  0.000218   -0.03    119.17   
    28. A(C   4,C   5,C   7)          121.65 -0.000459    0.05    121.71   
    29. A(C   4,C   5,Br  6)          119.15  0.000241   -0.03    119.12   
    30. A(C   5,C   7,C   8)          118.69  0.000286   -0.04    118.65   
    31. A(C   8,C   7,H  12)          121.12  0.000172   -0.03    121.09   
    32. A(C   5,C   7,H  12)          120.20 -0.000458    0.07    120.27   
    33. A(C   2,C   8,C   7)          120.47 -0.000415    0.06    120.54   
    34. A(C   7,C   8,H  13)          119.81  0.000516   -0.08    119.73   
    35. A(C   2,C   8,H  13)          119.71 -0.000101    0.02    119.73   
    36. D(C   3,C   2,C   1,O   0)      0.00  0.000004   -0.01     -0.01   
    37. D(C   8,C   2,C   1,O   0)   -180.00  0.000003   -0.01   -180.01   
    38. D(C   3,C   2,C   1,H   9)    180.00 -0.000003    0.01    180.01   
    39. D(C   8,C   2,C   1,H   9)     -0.00 -0.000003    0.01      0.01   
    40. D(C   4,C   3,C   2,C   8)      0.00 -0.000000    0.00      0.00   
    41. D(H  10,C   3,C   2,C   1)     -0.00 -0.000000    0.00      0.00   
    42. D(H  10,C   3,C   2,C   8)   -180.00  0.000000   -0.00   -180.00   
    43. D(C   4,C   3,C   2,C   1)    180.00 -0.000000    0.00    180.00   
    44. D(H  11,C   4,C   3,H  10)      0.00 -0.000000    0.00      0.00   
    45. D(H  11,C   4,C   3,C   2)   -180.00  0.000000   -0.00   -180.00   
    46. D(C   5,C   4,C   3,H  10)    180.00 -0.000000    0.00    180.00   
    47. D(C   5,C   4,C   3,C   2)      0.00  0.000000   -0.00     -0.00   
    48. D(C   7,C   5,C   4,C   3)     -0.00 -0.000000    0.00      0.00   
    49. D(Br  6,C   5,C   4,H  11)      0.00 -0.000000    0.00      0.00   
    50. D(Br  6,C   5,C   4,C   3)   -180.00  0.000000   -0.00   -180.00   
    51. D(C   7,C   5,C   4,H  11)    180.00 -0.000000    0.00    180.00   
    52. D(H  12,C   7,C   5,Br  6)     -0.00 -0.000000    0.00     -0.00   
    53. D(H  12,C   7,C   5,C   4)    180.00 -0.000000   -0.00    180.00   
    54. D(C   8,C   7,C   5,Br  6)    180.00 -0.000000    0.00    180.00   
    55. D(C   8,C   7,C   5,C   4)     -0.00 -0.000000    0.00     -0.00   
    56. D(H  13,C   8,C   7,H  12)     -0.00 -0.000000    0.00     -0.00   
    57. D(C   2,C   8,C   7,H  12)   -180.00 -0.000000   -0.00   -180.00   
    58. D(C   2,C   8,C   7,C   5)      0.00  0.000000   -0.00      0.00   
    59. D(H  13,C   8,C   2,C   3)   -180.00  0.000000   -0.00   -180.00   
    60. D(H  13,C   8,C   2,C   1)      0.00  0.000000   -0.00     -0.00   
    61. D(H  13,C   8,C   7,C   5)    180.00 -0.000000    0.00    180.00   
    62. D(C   7,C   8,C   2,C   3)     -0.00  0.000000   -0.00     -0.00   
    63. D(C   7,C   8,C   2,C   1)   -180.00  0.000000   -0.00   -180.00   
    ----------------------------------------------------------------------------

         *************************************************************
         *                GEOMETRY OPTIMIZATION CYCLE   2            *
         *************************************************************
---------------------------------
CARTESIAN COORDINATES (ANGSTROEM)
---------------------------------
  O     -4.332373   -0.641135   -0.000085
  C     -3.581889    0.308191    0.000078
  C     -2.105666    0.206424    0.000040
  C     -1.483449   -1.045039    0.000020
  C     -0.102044   -1.135869   -0.000008
  C      0.652783    0.036995   -0.000016
  Br     2.549138   -0.083894   -0.000055
  C      0.053645    1.291606    0.000005
  C     -1.332887    1.367145    0.000030
  H     -3.976351    1.351445   -0.000105
  H     -2.102558   -1.937435    0.000028
  H      0.393831   -2.100563   -0.000024
  H      0.663284    2.188467   -0.000001
  H     -1.820238    2.339770    0.000045

----------------------------
CARTESIAN COORDINATES (A.U.)
----------------------------
  NO LB      ZA    FRAG     MASS         X           Y           Z
   0 O     8.0000    0    15.999   -8.186999   -1.211570   -0.000160
   1 C     6.0000    0    12.011   -6.768790    0.582396    0.000148
   2 C     6.0000    0    12.011   -3.979131    0.390085    0.000076
   3 C     6.0000    0    12.011   -2.803313   -1.974837    0.000037
   4 C     6.0000    0    12.011   -0.192835   -2.146481   -0.000015
   5 C     6.0000    0    12.011    1.233581    0.069910   -0.000029
   6 Br   35.0000    0    79.900    4.817172   -0.158536   -0.000103
   7 C     6.0000    0    12.011    0.101374    2.440781    0.000009
   8 C     6.0000    0    12.011   -2.518791    2.583530    0.000056
   9 H     1.0000    0     1.008   -7.514214    2.553860   -0.000198
  10 H     1.0000    0     1.008   -3.973258   -3.661222    0.000054
  11 H     1.0000    0     1.008    0.744233   -3.969488   -0.000046
  12 H     1.0000    0     1.008    1.253425    4.135603   -0.000001
  13 H     1.0000    0     1.008   -3.439751    4.421524    0.000086

--------------------------------
INTERNAL COORDINATES (ANGSTROEM)
--------------------------------
 O      0   0   0     0.000000000000     0.00000000     0.00000000
 C      1   0   0     1.210143028191     0.00000000     0.00000000
 C      2   1   0     1.479727332948   124.38436443     0.00000000
 C      3   2   1     1.397609770275   120.37972304     0.00000000
 C      4   3   2     1.384388206735   120.19805333   180.00037110
 C      5   4   3     1.394766115234   119.00245193     0.00000000
 Br     6   5   4     1.900204349108   119.11679085   180.00003210
 C      6   5   4     1.390329095968   121.70890074     0.00000000
 C      8   6   5     1.388587705877   118.64518789     0.00000000
 H      2   1   3     1.115338009522   120.96011526   179.97733031
 H      4   3   2     1.086124419428   118.81248809     0.00000000
 H      5   4   3     1.084677782326   120.96610714   179.99999045
 H      8   6   5     1.084444298700   120.26743428   179.99993365
 H      9   8   6     1.087892048669   119.73240225   180.00001622

---------------------------
INTERNAL COORDINATES (A.U.)
---------------------------
 O      0   0   0     0.000000000000     0.00000000     0.00000000
 C      1   0   0     2.286838906156     0.00000000     0.00000000
 C      2   1   0     2.796279412149   124.38436443     0.00000000
 C      3   2   1     2.641099707912   120.37972304     0.00000000
 C      4   3   2     2.616114573759   120.19805333   180.00037110
 C      5   4   3     2.635725978665   119.00245193     0.00000000
 Br     6   5   4     3.590865818301   119.11679085   180.00003210
 C      6   5   4     2.627341227402   121.70890074     0.00000000
 C      8   6   5     2.624050477037   118.64518789     0.00000000
 H      2   1   3     2.107683384750   120.96011526   179.97733031
 H      4   3   2     2.052477700083   118.81248809     0.00000000
 H      5   4   3     2.049743952145   120.96610714   179.99999045
 H      8   6   5     2.049302732034   120.26743428   179.99993365
 H      9   8   6     2.055818035255   119.73240225   180.00001622



           ************************************************************
           *        Program running with 16 parallel MPI-processes    *
           *              working on a common directory               *
           ************************************************************
------------------------------------------------------------------------------
                   ___                                                        
                  /   \      - P O W E R E D   B Y -                         
                 /     \                                                     
                 |  |  |   _    _      __       _____    __    __             
[...]
      7      -0.002200  -0.004839  -0.041476  -0.004527  -0.021004   0.082067
      8      -0.000024   0.000004   0.000000   0.000000  -0.000000   0.000000
      9       0.099025   0.091889   0.064589  -0.015978  -0.071860  -0.050311
     10       0.280204   0.038804   0.026346   0.015765   0.043359   0.030202
     11       0.000011  -0.000001  -0.000000   0.000000   0.000000   0.000000
     12       0.014837  -0.013947  -0.060176   0.014718   0.093804  -0.014625
     13      -0.167345   0.151066   0.018189   0.054981  -0.048905  -0.008752
     14      -0.000003   0.000002   0.000001   0.000000  -0.000000   0.000000
     15      -0.184929  -0.333327   0.002714   0.013687   0.006629  -0.002857
     16       0.010475   0.010578  -0.047592  -0.003407   0.000014  -0.112505
     17      -0.000002   0.000000  -0.000000   0.000000  -0.000000  -0.000001
     18       0.006451   0.012666  -0.000283  -0.000547  -0.001369  -0.000111
     19      -0.000443  -0.000702   0.001213   0.000142   0.000093   0.000616
     20       0.000000  -0.000000  -0.000000  -0.000000   0.000000   0.000000
     21       0.031384  -0.028666   0.079659   0.022807   0.098563   0.027894
     22       0.166030  -0.137717   0.048816  -0.050914   0.046832   0.001370
     23       0.000001  -0.000001   0.000000  -0.000000   0.000000  -0.000000
     24       0.070940   0.086542  -0.068085  -0.044750  -0.070458   0.033612
     25      -0.286615  -0.042410   0.038843  -0.020447  -0.004749   0.014984
     26       0.000006  -0.000001   0.000000  -0.000000   0.000000   0.000000
     27       0.038419  -0.003376   0.037721  -0.147770   0.397599  -0.075107
     28       0.008894   0.005621   0.020332  -0.014416   0.057123  -0.060207
     29      -0.000194   0.000030  -0.000002   0.000006  -0.000013  -0.000001
     30      -0.163083   0.420933   0.508344  -0.401505  -0.204031   0.385883
     31       0.468685  -0.173898  -0.268824   0.279343   0.123424  -0.265204
     32      -0.000057   0.000002  -0.000002   0.000001   0.000001  -0.000002
     33      -0.217776   0.317866  -0.465930   0.249463   0.545697   0.496923
     34      -0.282287   0.343492  -0.184002   0.178054   0.173777   0.251739
     35       0.000014   0.000001  -0.000001   0.000002   0.000000   0.000001
     36      -0.189365   0.322431   0.415506   0.349239   0.510072  -0.373701
     37       0.310695  -0.398243  -0.168342  -0.273081  -0.220302   0.273702
     38       0.000004  -0.000002   0.000001  -0.000001  -0.000001   0.000001
     39      -0.202593   0.360733  -0.412977  -0.583932   0.092014  -0.419443
     40      -0.429938   0.084341  -0.124587  -0.289568   0.087967  -0.208712
     41      -0.000036   0.000002  -0.000001  -0.000000  -0.000000   0.000000
                 30         31         32         33         34         35    
      0      -0.033100  -0.004452   0.026047   0.001115   0.057317  -0.005288
      1       0.041429  -0.066934   0.069038   0.002863   0.058620  -0.006348
      2      -0.000000   0.000000  -0.000000   0.000000   0.000000   0.000000
      3       0.125051  -0.085419   0.029998   0.035135  -0.076491   0.050373
      4      -0.077384   0.052777  -0.025848  -0.010958  -0.034446   0.025741
      5       0.000000   0.000001  -0.000001  -0.000001  -0.000000  -0.000001
      6      -0.035917   0.033937  -0.019461  -0.135946   0.039726  -0.226157
      7       0.399489  -0.017811  -0.119611   0.030006  -0.380999  -0.090412
      8       0.000002  -0.000001   0.000001   0.000001  -0.000002   0.000002
      9       0.146197   0.105084   0.115847   0.037296  -0.190145   0.272207
     10      -0.147243  -0.006836   0.008500  -0.104716   0.253272  -0.052207
     11      -0.000002  -0.000000  -0.000001  -0.000001   0.000002  -0.000002
     12      -0.197107  -0.119104  -0.084114   0.145117  -0.009012  -0.276426
     13      -0.197209   0.000108   0.046826   0.104004  -0.191034  -0.074295
     14      -0.000001   0.000000   0.000000   0.000000  -0.000001  -0.000000
     15       0.016737  -0.005238  -0.018068  -0.126199  -0.022026   0.107981
     16       0.396245  -0.014444  -0.110154   0.005209   0.341029   0.063915
     17       0.000002  -0.000000  -0.000001   0.000000   0.000002   0.000001
     18       0.000190   0.000208   0.000099   0.001321  -0.000548   0.001563
     19      -0.000526   0.000916   0.001388  -0.000143  -0.001405  -0.000366
     20       0.000000  -0.000000   0.000000  -0.000000  -0.000000   0.000000
     21       0.190788   0.103739   0.116284   0.110437   0.148554  -0.220211
     22      -0.202483  -0.038111   0.028377  -0.111945  -0.249196   0.008568
     23      -0.000001  -0.000000   0.000000  -0.000001  -0.000002  -0.000000
     24      -0.185275  -0.079447  -0.120814   0.064226   0.057389   0.328967
     25      -0.162711   0.024705   0.024075   0.083570   0.205822   0.129838
     26      -0.000001   0.000000   0.000000   0.000000   0.000001   0.000000
     27      -0.467182   0.765414  -0.679579   0.036253  -0.176766  -0.126455
     28      -0.311352   0.397158  -0.318367  -0.009551  -0.077783  -0.052861
     29      -0.000003   0.000001   0.000000   0.000003   0.000003  -0.000001
     30       0.151545  -0.092235  -0.206435  -0.370236   0.367417  -0.239885
     31      -0.153282   0.138046   0.241190   0.155821  -0.117419   0.311781
     32       0.000007   0.000001   0.000001   0.000003  -0.000004   0.000003
     33       0.109149   0.170686   0.128865  -0.488703   0.197257   0.251149
     34      -0.054281   0.157376   0.171652  -0.209370  -0.108714   0.203954
     35      -0.000001   0.000002   0.000001  -0.000001  -0.000000   0.000001
     36       0.026957  -0.252074  -0.163707  -0.423436  -0.375966   0.079312
     37      -0.105887   0.208157   0.234433   0.234542   0.084307  -0.210568
     38      -0.000001   0.000001   0.000002   0.000001  -0.000001  -0.000001
     39      -0.030801   0.015858   0.265163  -0.426131  -0.258541  -0.441821
     40      -0.094782   0.084380   0.226851  -0.148008   0.062489  -0.255384
     41      -0.000004  -0.000002   0.000001  -0.000000   0.000001   0.000001
                 36         37         38         39         40         41    
      0       0.292738  -0.001659   0.000431  -0.000081   0.000017  -0.000152
      1       0.362988  -0.001353   0.000172  -0.000487   0.000216  -0.000179
      2       0.000001  -0.000000   0.000000  -0.000000  -0.000000  -0.000000
      3      -0.463912   0.034612  -0.001216   0.000687  -0.000252   0.000425
      4      -0.524454  -0.075185   0.000426   0.000674  -0.000331   0.000083
      5       0.000001   0.000004  -0.000000  -0.000000   0.000000   0.000000
      6       0.000175  -0.001749  -0.001860   0.001032  -0.000380   0.000846
      7       0.109560  -0.001922  -0.001474  -0.001457   0.001712   0.000191
      8      -0.000001   0.000000  -0.000000   0.000000   0.000000  -0.000000
      9       0.045870  -0.000313  -0.000564   0.043160  -0.020757   0.011845
     10      -0.067440   0.000365  -0.002143   0.064794  -0.026046   0.015274
     11       0.000001   0.000000  -0.000000   0.000000  -0.000000   0.000000
     12      -0.025211  -0.000073  -0.000545   0.013500   0.033388  -0.016816
     13       0.018786  -0.000288   0.001432  -0.032720  -0.062708   0.032977
     14       0.000001   0.000000   0.000000  -0.000000  -0.000000   0.000000
     15       0.016262  -0.000176  -0.000201   0.000890   0.001156  -0.003413
     16      -0.022278   0.000288  -0.000419   0.000348   0.003452   0.001424
     17      -0.000000  -0.000000  -0.000000  -0.000000   0.000000   0.000000
     18      -0.000234   0.000009   0.000009  -0.000030  -0.000021   0.000078
     19       0.000092  -0.000003  -0.000001   0.000002   0.000007  -0.000004
     20      -0.000000   0.000000   0.000000  -0.000000  -0.000000  -0.000000
     21      -0.052129   0.000499  -0.004449   0.000515  -0.023091  -0.042709
     22       0.027202   0.000311  -0.011029   0.001003  -0.033338  -0.063818
     23      -0.000001  -0.000000  -0.000000  -0.000000  -0.000000  -0.000000
     24       0.061688  -0.000288  -0.037695  -0.001701   0.004195   0.008243
     25      -0.012988   0.000665   0.076379   0.002086  -0.004914  -0.011204
     26      -0.000001  -0.000000   0.000001   0.000000  -0.000000  -0.000000
     27       0.488837  -0.374227   0.006832  -0.002284   0.001351  -0.001785
     28      -0.082747   0.923540  -0.007316   0.003029  -0.001803   0.002131
     29       0.000013  -0.000048   0.000000   0.000000   0.000000  -0.000000
     30      -0.100778   0.000684   0.011606  -0.504429   0.205789  -0.118653
     31       0.011085   0.005270   0.019946  -0.747728   0.300395  -0.173788
     32       0.000003   0.000000   0.000000  -0.000001   0.000001  -0.000000
     33      -0.047848   0.000377   0.008425  -0.189410  -0.365470   0.189067
     34       0.008186   0.001214  -0.017083   0.376942   0.713211  -0.369939
     35       0.000002   0.000000  -0.000000   0.000003   0.000005  -0.000003
     36       0.034822   0.001230   0.084763  -0.006943   0.258409   0.486246
     37      -0.033733   0.000060   0.130986  -0.010642   0.382512   0.720975
     38      -0.000002  -0.000000   0.000001  -0.000000   0.000003   0.000006
     39      -0.030941   0.010108   0.435279   0.014659  -0.030276  -0.063261
     40      -0.051846  -0.005531  -0.881920  -0.027825   0.057483   0.122555
     41      -0.000005  -0.000001  -0.000008  -0.000000   0.000000   0.000001


-----------
IR SPECTRUM
-----------

 Mode   freq       eps      Int      T**2         TX        TY        TZ
       cm**-1   L/(mol*cm) km/mol    a.u.
----------------------------------------------------------------------------
  6:     71.83   0.000549    2.78  0.002387  ( 0.000004  0.000021 -0.048856)
  7:    158.08   0.001379    6.97  0.002722  (-0.000022 -0.000018  0.052175)
  8:    164.49   0.001010    5.10  0.001916  (-0.031683  0.030196 -0.000009)
  9:    261.80   0.000076    0.38  0.000090  (-0.009504  0.000334 -0.000000)
 10:    292.57   0.000365    1.84  0.000389  ( 0.000014  0.000008 -0.019727)
 11:    301.09   0.002195   11.09  0.002275  ( 0.045621 -0.013933  0.000004)
 12:    414.74   0.000033    0.17  0.000025  (-0.000003 -0.000006  0.004981)
 13:    474.90   0.003700   18.70  0.002432  (-0.000003  0.000002  0.049311)
 14:    508.44   0.001975    9.98  0.001212  ( 0.034811 -0.000384  0.000001)
 15:    637.71   0.000248    1.25  0.000121  ( 0.003776 -0.010346  0.000000)
 16:    693.06   0.000450    2.28  0.000203  ( 0.011559 -0.008313  0.000001)
 17:    698.36   0.000006    0.03  0.000003  (-0.000001  0.000000 -0.001587)
 18:    818.61   0.009644   48.74  0.003676  (-0.000000 -0.000001  0.060633)
 19:    839.77   0.000838    4.23  0.000311  (-0.000010  0.000003 -0.017643)
 20:    843.22   0.016623   84.01  0.006152  (-0.077188  0.013925  0.000003)
 21:    955.10   0.000002    0.01  0.000001  ( 0.000002 -0.000003 -0.000886)
 22:    983.21   0.000000    0.00  0.000000  ( 0.000003 -0.000000 -0.000004)
 23:   1017.97   0.000472    2.39  0.000145  ( 0.000002  0.000000  0.012031)
 24:   1031.16   0.007777   39.30  0.002354  (-0.048464  0.002193 -0.000002)
 25:   1076.37   0.010834   54.75  0.003141  (-0.055949  0.003298  0.000000)
 26:   1128.15   0.001524    7.70  0.000422  ( 0.007519 -0.019104 -0.000000)
 27:   1187.74   0.008397   42.43  0.002206  (-0.046970 -0.000025  0.000000)
 28:   1228.60   0.009813   49.59  0.002493  ( 0.049799 -0.003559  0.000000)
 29:   1315.78   0.001640    8.29  0.000389  ( 0.018334 -0.007274 -0.000000)
 30:   1349.73   0.002793   14.11  0.000646  ( 0.024682  0.006044 -0.000000)
 31:   1407.61   0.003537   17.87  0.000784  (-0.016943  0.022294  0.000000)
 32:   1437.31   0.002131   10.77  0.000463  (-0.015510  0.014902  0.000000)
 33:   1507.16   0.002983   15.07  0.000618  (-0.024843 -0.000672 -0.000000)
 34:   1602.46   0.009484   47.93  0.001847  (-0.042809  0.003775  0.000000)
 35:   1619.17   0.029057  146.84  0.005600  ( 0.074738  0.003780 -0.000000)
 36:   1758.42   0.056080  283.40  0.009952  (-0.088363 -0.046307  0.000002)
 37:   2862.12   0.021960  110.98  0.002394  ( 0.027939 -0.040173  0.000000)
 38:   3160.44   0.000632    3.19  0.000062  (-0.003253  0.007199 -0.000000)
 39:   3186.38   0.000167    0.84  0.000016  (-0.004016  0.000441  0.000000)
 40:   3201.64   0.000072    0.36  0.000007  ( 0.002271 -0.001359 -0.000000)
 41:   3202.95   0.000054    0.27  0.000005  (-0.002023 -0.001074  0.000000)

* The epsilon (eps) is given for a Dirac delta lineshape.
** The dipole moment derivative (T) already includes vibrational overlap.

The first frequency considered to be a vibration is 6
The total number of vibrations considered is 36


--------------------------
THERMOCHEMISTRY AT 298.15K
--------------------------

Temperature         ... 298.15 K
Pressure            ... 1.00 atm
Total Mass          ... 185.02 AMU

Throughout the following assumptions are being made:
  (1) The electronic state is orbitally nondegenerate
  (2) There are no thermally accessible electronically excited states
  (3) Hindered rotations indicated by low frequency modes are not
      treated as such but are treated as vibrations and this may
      cause some error
  (4) All equations used are the standard statistical mechanics
      equations for an ideal gas
  (5) All vibrations are strictly harmonic

freq.      71.83  E(vib)   ...       0.50 
freq.     158.08  E(vib)   ...       0.39 
freq.     164.49  E(vib)   ...       0.39 
freq.     261.80  E(vib)   ...       0.30 
freq.     292.57  E(vib)   ...       0.27 
freq.     301.09  E(vib)   ...       0.26 
freq.     414.74  E(vib)   ...       0.19 
freq.     474.90  E(vib)   ...       0.15 
freq.     508.44  E(vib)   ...       0.14 
freq.     637.71  E(vib)   ...       0.09 
freq.     693.06  E(vib)   ...       0.07 
freq.     698.36  E(vib)   ...       0.07 
freq.     818.61  E(vib)   ...       0.05 
freq.     839.77  E(vib)   ...       0.04 
freq.     843.22  E(vib)   ...       0.04 
freq.     955.10  E(vib)   ...       0.03 
freq.     983.21  E(vib)   ...       0.02 
freq.    1017.97  E(vib)   ...       0.02 
freq.    1031.16  E(vib)   ...       0.02 
freq.    1076.37  E(vib)   ...       0.02 
freq.    1128.15  E(vib)   ...       0.01 
freq.    1187.74  E(vib)   ...       0.01 
freq.    1228.60  E(vib)   ...       0.01 
freq.    1315.78  E(vib)   ...       0.01 
freq.    1349.73  E(vib)   ...       0.01 
freq.    1407.61  E(vib)   ...       0.00 
freq.    1437.31  E(vib)   ...       0.00 
freq.    1507.16  E(vib)   ...       0.00 
freq.    1602.46  E(vib)   ...       0.00 
freq.    1619.17  E(vib)   ...       0.00 
freq.    1758.42  E(vib)   ...       0.00 
freq.    2862.12  E(vib)   ...       0.00 
freq.    3160.44  E(vib)   ...       0.00 
freq.    3186.38  E(vib)   ...       0.00 
freq.    3201.64  E(vib)   ...       0.00 
freq.    3202.95  E(vib)   ...       0.00 

------------
INNER ENERGY
------------

The inner energy is: U= E(el) + E(ZPE) + E(vib) + E(rot) + E(trans)
    E(el)   - is the total energy from the electronic structure calculation
              = E(kin-el) + E(nuc-el) + E(el-el) + E(nuc-nuc)
    E(ZPE)  - the the zero temperature vibrational energy from the frequency calculation
    E(vib)  - the the finite temperature correction to E(ZPE) due to population
              of excited vibrational states
    E(rot)  - is the rotational thermal energy
    E(trans)- is the translational thermal energy

Summary of contributions to the inner energy U:
Electronic energy                ...  -2919.03789599 Eh
Zero point energy                ...      0.09886826 Eh      62.04 kcal/mol
Thermal vibrational correction   ...      0.00496818 Eh       3.12 kcal/mol
Thermal rotational correction    ...      0.00141627 Eh       0.89 kcal/mol
Thermal translational correction ...      0.00141627 Eh       0.89 kcal/mol
-----------------------------------------------------------------------
Total thermal energy                  -2918.93122701 Eh


Summary of corrections to the electronic energy:
(perhaps to be used in another calculation)
Total thermal correction                  0.00780072 Eh       4.90 kcal/mol
Non-thermal (ZPE) correction              0.09886826 Eh      62.04 kcal/mol
-----------------------------------------------------------------------
Total correction                          0.10666898 Eh      66.94 kcal/mol


--------
ENTHALPY
--------

The enthalpy is H = U + kB*T
                kB is Boltzmann's constant
Total free energy                 ...  -2918.93122701 Eh 
Thermal Enthalpy correction       ...      0.00094421 Eh       0.59 kcal/mol
-----------------------------------------------------------------------
Total Enthalpy                    ...  -2918.93028280 Eh


Note: Rotational entropy computed according to Herzberg 
Infrared and Raman Spectra, Chapter V,1, Van Nostrand Reinhold, 1945 
Point Group:  Cs, Symmetry Number:   1  
Rotational constants in cm-1:     0.167917     0.015321     0.014040 

Vibrational entropy computed according to the QRRHO of S. Grimme
Chem.Eur.J. 2012 18 9955


-------
ENTROPY
-------

The entropy contributions are T*S = T*(S(el)+S(vib)+S(rot)+S(trans))
     S(el)   - electronic entropy
     S(vib)  - vibrational entropy
     S(rot)  - rotational entropy
     S(trans)- translational entropy
The entropies will be listed as multiplied by the temperature to get
units of energy

Electronic entropy                ...      0.00000000 Eh      0.00 kcal/mol
Vibrational entropy               ...      0.00830087 Eh      5.21 kcal/mol
Rotational entropy                ...      0.01433967 Eh      9.00 kcal/mol
Translational entropy             ...      0.01974263 Eh     12.39 kcal/mol
-----------------------------------------------------------------------
Final entropy term                ...      0.04238318 Eh     26.60 kcal/mol

In case the symmetry of your molecule has not been determined correctly
or in case you have a reason to use a different symmetry number we print 
out the resulting rotational entropy values for sn=1,12 :
 --------------------------------------------------------
|  sn= 1 | S(rot)=       0.01433967 Eh      9.00 kcal/mol|
|  sn= 2 | S(rot)=       0.01368521 Eh      8.59 kcal/mol|
|  sn= 3 | S(rot)=       0.01330238 Eh      8.35 kcal/mol|
|  sn= 4 | S(rot)=       0.01303076 Eh      8.18 kcal/mol|
|  sn= 5 | S(rot)=       0.01282007 Eh      8.04 kcal/mol|
|  sn= 6 | S(rot)=       0.01264793 Eh      7.94 kcal/mol|
|  sn= 7 | S(rot)=       0.01250238 Eh      7.85 kcal/mol|
|  sn= 8 | S(rot)=       0.01237630 Eh      7.77 kcal/mol|
|  sn= 9 | S(rot)=       0.01226509 Eh      7.70 kcal/mol|
|  sn=10 | S(rot)=       0.01216561 Eh      7.63 kcal/mol|
|  sn=11 | S(rot)=       0.01207562 Eh      7.58 kcal/mol|
|  sn=12 | S(rot)=       0.01199347 Eh      7.53 kcal/mol|
 --------------------------------------------------------


-------------------
GIBBS FREE ENERGY
-------------------

The Gibbs free energy is G = H - T*S

Total enthalpy                    ...  -2918.93028280 Eh 
Total entropy correction          ...     -0.04238318 Eh    -26.60 kcal/mol
-----------------------------------------------------------------------
Final Gibbs free energy         ...  -2918.97266598 Eh

For completeness - the Gibbs free energy minus the electronic energy
G-E(el)                           ...      0.06523001 Eh     40.93 kcal/mol


Timings for individual modules:

Sum of individual times         ...       56.430 sec (=   0.941 min)
GTO integral calculation        ...        2.953 sec (=   0.049 min)   5.2 %
SCF iterations                  ...       16.262 sec (=   0.271 min)  28.8 %
SCF Gradient evaluation         ...        5.725 sec (=   0.095 min)  10.1 %
Geometry relaxation             ...        0.139 sec (=   0.002 min)   0.2 %
Analytical frequency calculation...       31.352 sec (=   0.523 min)  55.6 %
                             ****ORCA TERMINATED NORMALLY****
TOTAL RUN TIME: 0 days 0 hours 0 minutes 58 seconds 435 msec
