Job Start Time: Thu Apr 18 14:05:28 MDT 2024
SLURM Job ID: 254447
SLURM Job Name: arbr_04_r2scan3c
SLURM Job Nodes: node17
SLURM Memory / CPU: 8000

                                 *****************
                                 * O   R   C   A *
                                 *****************

                                            #,                                       
                                            ###                                      
                                            ####                                     
                                            #####                                    
                                            ######                                   
                                           ########,                                 
                                     ,,################,,,,,                         
                               ,,#################################,,                 
                          ,,##########################################,,             
                       ,#########################################, ''#####,          
                    ,#############################################,,   '####,        
                  ,##################################################,,,,####,       
                ,###########''''           ''''###############################       
              ,#####''   ,,,,##########,,,,          '''####'''          '####       
            ,##' ,,,,###########################,,,                        '##       
           ' ,,###''''                  '''############,,,                           
         ,,##''                                '''############,,,,        ,,,,,,###''
      ,#''                                            '''#######################'''  
     '                                                          ''''####''''         
             ,#######,   #######,   ,#######,      ##                                
            ,#'     '#,  ##    ##  ,#'     '#,    #''#        ######   ,####,        
            ##       ##  ##   ,#'  ##            #'  '#       #        #'  '#        
            ##       ##  #######   ##           ,######,      #####,   #    #        
            '#,     ,#'  ##    ##  '#,     ,#' ,#      #,         ##   #,  ,#        
             '#######'   ##     ##  '#######'  #'      '#     #####' # '####'        



                  #######################################################
                  #                        -***-                        #
                  #          Department of theory and spectroscopy      #
                  #    Directorship and core code : Frank Neese         #
                  #        Max Planck Institute fuer Kohlenforschung    #
                  #                Kaiser Wilhelm Platz 1               #
                  #                 D-45470 Muelheim/Ruhr               #
                  #                      Germany                        #
                  #                                                     #
                  #                  All rights reserved                #
                  #                        -***-                        #
                  #######################################################


                         Program Version 5.0.3 -  RELEASE  -


 With contributions from (in alphabetic order):
   Daniel Aravena         : Magnetic Suceptibility
   Michael Atanasov       : Ab Initio Ligand Field Theory (pilot matlab implementation)
   Alexander A. Auer      : GIAO ZORA, VPT2 properties, NMR spectrum
   Ute Becker             : Parallelization
   Giovanni Bistoni       : ED, misc. LED, open-shell LED, HFLD
   Martin Brehm           : Molecular dynamics
   Dmytro Bykov           : SCF Hessian
   Vijay G. Chilkuri      : MRCI spin determinant printing, contributions to CSF-ICE
   Dipayan Datta          : RHF DLPNO-CCSD density
   Achintya Kumar Dutta   : EOM-CC, STEOM-CC
   Dmitry Ganyushin       : Spin-Orbit,Spin-Spin,Magnetic field MRCI
   Miquel Garcia          : C-PCM and meta-GGA Hessian, CC/C-PCM, Gaussian charge scheme
   Yang Guo               : DLPNO-NEVPT2, F12-NEVPT2, CIM, IAO-localization
   Andreas Hansen         : Spin unrestricted coupled pair/coupled cluster methods
   Benjamin Helmich-Paris : MC-RPA, TRAH-SCF, COSX integrals
   Lee Huntington         : MR-EOM, pCC
   Robert Izsak           : Overlap fitted RIJCOSX, COSX-SCS-MP3, EOM
   Marcus Kettner         : VPT2
   Christian Kollmar      : KDIIS, OOCD, Brueckner-CCSD(T), CCSD density, CASPT2, CASPT2-K
   Simone Kossmann        : Meta GGA functionals, TD-DFT gradient, OOMP2, MP2 Hessian
   Martin Krupicka        : Initial AUTO-CI
   Lucas Lang             : DCDCAS
   Marvin Lechner         : AUTO-CI (C++ implementation), FIC-MRCC
   Dagmar Lenk            : GEPOL surface, SMD
   Dimitrios Liakos       : Extrapolation schemes; Compound Job, initial MDCI parallelization
   Dimitrios Manganas     : Further ROCIS development; embedding schemes
   Dimitrios Pantazis     : SARC Basis sets
   Anastasios Papadopoulos: AUTO-CI, single reference methods and gradients
   Taras Petrenko         : DFT Hessian,TD-DFT gradient, ASA, ECA, R-Raman, ABS, FL, XAS/XES, NRVS
   Peter Pinski           : DLPNO-MP2, DLPNO-MP2 Gradient
   Christoph Reimann      : Effective Core Potentials
   Marius Retegan         : Local ZFS, SOC
   Christoph Riplinger    : Optimizer, TS searches, QM/MM, DLPNO-CCSD(T), (RO)-DLPNO pert. Triples
   Tobias Risthaus        : Range-separated hybrids, TD-DFT gradient, RPA, STAB
   Michael Roemelt        : Original ROCIS implementation
   Masaaki Saitow         : Open-shell DLPNO-CCSD energy and density
   Barbara Sandhoefer     : DKH picture change effects
   Avijit Sen             : IP-ROCIS
   Kantharuban Sivalingam : CASSCF convergence, NEVPT2, FIC-MRCI
   Bernardo de Souza      : ESD, SOC TD-DFT
   Georgi Stoychev        : AutoAux, RI-MP2 NMR, DLPNO-MP2 response
   Willem Van den Heuvel  : Paramagnetic NMR
   Boris Wezisla          : Elementary symmetry handling
   Frank Wennmohs         : Technical directorship


 We gratefully acknowledge several colleagues who have allowed us to
 interface, adapt or use parts of their codes:
   Stefan Grimme, W. Hujo, H. Kruse, P. Pracht,  : VdW corrections, initial TS optimization,
                  C. Bannwarth, S. Ehlert          DFT functionals, gCP, sTDA/sTD-DF
   Ed Valeev, F. Pavosevic, A. Kumar             : LibInt (2-el integral package), F12 methods
   Garnet Chan, S. Sharma, J. Yang, R. Olivares  : DMRG
   Ulf Ekstrom                                   : XCFun DFT Library
   Mihaly Kallay                                 : mrcc  (arbitrary order and MRCC methods)
   Jiri Pittner, Ondrej Demel                    : Mk-CCSD
   Frank Weinhold                                : gennbo (NPA and NBO analysis)
   Christopher J. Cramer and Donald G. Truhlar   : smd solvation model
   Lars Goerigk                                  : TD-DFT with DH, B97 family of functionals
   V. Asgeirsson, H. Jonsson                     : NEB implementation
   FAccTs GmbH                                   : IRC, NEB, NEB-TS, DLPNO-Multilevel, CI-OPT
                                                   MM, QMMM, 2- and 3-layer-ONIOM, Crystal-QMMM,
                                                   LR-CPCM, SF, NACMEs, symmetry and pop. for TD-DFT,
                                                   nearIR, NL-DFT gradient (VV10), updates on ESD,
                                                   ML-optimized integration grids
   S Lehtola, MJT Oliveira, MAL Marques          : LibXC Library
   Liviu Ungur et al                             : ANISO software


 Your calculation uses the libint2 library for the computation of 2-el integrals
 For citations please refer to: http://libint.valeyev.net

 Your ORCA version has been built with support for libXC version: 5.1.0
 For citations please refer to: https://tddft.org/programs/libxc/

 This ORCA versions uses:
   CBLAS   interface :  Fast vector & matrix operations
   LAPACKE interface :  Fast linear algebra routines
   SCALAPACK package :  Parallel linear algebra routines
   Shared memory     :  Shared parallel matrices
   BLAS/LAPACK       :  OpenBLAS 0.3.15  USE64BITINT DYNAMIC_ARCH NO_AFFINITY Zen SINGLE_THREADED
        Core in use  :  Zen
   Copyright (c) 2011-2014, The OpenBLAS Project


Your calculation utilizes the geometrical counterpoise correction gCP
Please cite in your paper:
H.Kruse, S. Grimme J.Chem.Phys., 136, (2012), 154101 
   

Your calculation utilizes the atom-pairwise dispersion correction
based on tight binding partial charges (D4)
Cite in your paper:
E.Caldeweyher, C.Bannwarth, S.Grimme, J.Chem.Phys., (2017), 147, 034112.
E.Caldeweyher, S.Ehlert, A.Hansen, H.Neugebauer, S.Grimme, J.Chem.Phys., (2018), in progress.
   

================================================================================

----- Orbital basis set information -----
Your calculation utilizes the basis: def2-mTZVPP
   Stefan Grimme, Andreas Hansen, Sebastian Ehlert, and Jan-Michael Mewes 
   J. Chem. Phys. 154, 000000 (2021). DOI: 10.1063/5.0040021

----- AuxJ basis set information -----
Your calculation utilizes the basis: def2-mTZVPP/J
   Stefan Grimme, Andreas Hansen, Sebastian Ehlert, and Jan-Michael Mewes 
   J. Chem. Phys. 154, 000000 (2021). DOI: 10.1063/5.0040021

================================================================================
                                        WARNINGS
                       Please study these warnings very carefully!
================================================================================

Using LibXC functional ID 497 : Re-regularized SCAN exchange by Furness et al
[ 1]  J. W. Furness, A. D. Kaplan, J. Ning, J. P. Perdew, and J. Sun, J. Phys. Chem. Lett. 11, 8208 (2020)
[ 2]  J. W. Furness, A. D. Kaplan, J. Ning, J. P. Perdew, and J. Sun, J. Phys. Chem. Lett. 11, 9248 (2020)
Using LibXC functional ID 498 : Re-regularized SCAN correlation by Furness et al
[ 1]  J. W. Furness, A. D. Kaplan, J. Ning, J. P. Perdew, and J. Sun, J. Phys. Chem. Lett. 11, 8208 (2020)
[ 2]  J. W. Furness, A. D. Kaplan, J. Ning, J. P. Perdew, and J. Sun, J. Phys. Chem. Lett. 11, 9248 (2020)
Using LibXC functional ID 497 : Re-regularized SCAN exchange by Furness et al
[ 1]  J. W. Furness, A. D. Kaplan, J. Ning, J. P. Perdew, and J. Sun, J. Phys. Chem. Lett. 11, 8208 (2020)
[ 2]  J. W. Furness, A. D. Kaplan, J. Ning, J. P. Perdew, and J. Sun, J. Phys. Chem. Lett. 11, 9248 (2020)
Using LibXC functional ID 498 : Re-regularized SCAN correlation by Furness et al
[ 1]  J. W. Furness, A. D. Kaplan, J. Ning, J. P. Perdew, and J. Sun, J. Phys. Chem. Lett. 11, 8208 (2020)
[ 2]  J. W. Furness, A. D. Kaplan, J. Ning, J. P. Perdew, and J. Sun, J. Phys. Chem. Lett. 11, 9248 (2020)

WARNING: Geometry Optimization
  ===> : Switching off AutoStart
         For restart on a previous wavefunction, please use MOREAD

INFO   : the flag for use of the SHARK integral package has been found!

================================================================================
                                       INPUT FILE
================================================================================
NAME = /tmp/254447/arbr_04_r2scan3c.inp
|  1> %maxcore 4000
|  2> %PAL NPROCS 16 END
|  3> ! r2scan-3c opt freq
|  4> 
|  5> # arbr_04_rdkit_conf_1_r2scan3ccreated by GaussianPrep
|  6> 
|  7> * xyz 0 1
|  8> C  4.462376  -1.021248  -0.000087
|  9> N  3.087  -0.600247  0.000017
| 10> C  1.983402  -1.536527  0.000026
| 11> C  0.783402  -0.627725  0.000047
| 12> C  -0.565297  -0.934042  0.000039
| 13> C  -1.456087  0.13142  0.00001
| 14> Br  -3.314521  -0.236193  -0.000014
| 15> C  -1.034704  1.458474  -0.000017
| 16> C  0.322453  1.745546  -0.00001
| 17> C  1.213142  0.688112  0.000035
| 18> C  2.701793  0.713568  0.000103
| 19> O  3.433535  1.677447  -0.000024
| 20> H  4.689227  -1.616018  -0.888065
| 21> H  4.689323  -1.61612  0.887798
| 22> H  5.082479  -0.127099  -0.000068
| 23> H  2.009831  -2.180499  -0.885208
| 24> H  2.009864  -2.180518  0.885246
| 25> H  -0.927715  -1.953204  0.000041
| 26> H  -1.769252  2.251273  -0.000041
| 27> H  0.684311  2.765634  -0.000015
| 28> 
| 29> *
| 30> 
| 31>                          ****END OF INPUT****
================================================================================

                       *****************************
                       * Geometry Optimization Run *
                       *****************************

Geometry optimization settings:
Update method            Update   .... BFGS
Choice of coordinates    CoordSys .... Z-matrix Internals
Initial Hessian          InHess   .... Almoef's Model

Convergence Tolerances:
Energy Change            TolE     ....  5.0000e-06 Eh
Max. Gradient            TolMAXG  ....  3.0000e-04 Eh/bohr
RMS Gradient             TolRMSG  ....  1.0000e-04 Eh/bohr
Max. Displacement        TolMAXD  ....  4.0000e-03 bohr
RMS Displacement         TolRMSD  ....  2.0000e-03 bohr
Strict Convergence                ....  False
------------------------------------------------------------------------------
                        ORCA OPTIMIZATION COORDINATE SETUP
------------------------------------------------------------------------------

The optimization will be done in new redundant internal coordinates
Making redundant internal coordinates   ...  (new redundants) done
Evaluating the initial hessian          ...  (Almloef) done
Evaluating the coordinates              ...  done
Calculating the B-matrix                .... done
Calculating the G-matrix                .... done
Diagonalizing the G-matrix              .... done
The first mode is                       ....   53
The number of degrees of freedom        ....   54

    -----------------------------------------------------------------
                    Redundant Internal Coordinates


    -----------------------------------------------------------------
         Definition                    Initial Value    Approx d2E/dq
    -----------------------------------------------------------------
      1. B(N   1,C   0)                  1.4384         0.468499   
      2. B(C   2,N   1)                  1.4473         0.453448   
      3. B(C   3,C   2)                  1.5053         0.409061   
      4. B(C   4,C   3)                  1.3830         0.640961   
      5. B(C   5,C   4)                  1.3888         0.627598   
      6. B(Br  6,C   5)                  1.8944         0.329174   
      7. B(C   7,C   5)                  1.3923         0.619428   
      8. B(C   8,C   7)                  1.3872         0.631288   
      9. B(C   9,C   8)                  1.3826         0.642091   
     10. B(C   9,C   3)                  1.3842         0.638172   
     11. B(C  10,C   9)                  1.4889         0.434510   
     12. B(C  10,N   1)                  1.3691         0.604207   
     13. B(O  11,C  10)                  1.2102         1.083389   
     14. B(H  12,C   0)                  1.0926         0.356711   
     15. B(H  13,C   0)                  1.0926         0.356711   
     16. B(H  14,C   0)                  1.0881         0.362580   
     17. B(H  15,C   2)                  1.0950         0.353538   
     18. B(H  16,C   2)                  1.0950         0.353538   
     19. B(H  17,C   4)                  1.0817         0.371272   
     20. B(H  18,C   7)                  1.0808         0.372502   
     21. B(H  19,C   8)                  1.0824         0.370339   
     22. A(H  12,C   0,H  14)          109.2092         0.290721   
     23. A(H  13,C   0,H  14)          109.2091         0.290721   
     24. A(N   1,C   0,H  13)          110.9728         0.334129   
     25. A(N   1,C   0,H  12)          110.9732         0.334129   
     26. A(H  12,C   0,H  13)          108.7206         0.289977   
     27. A(N   1,C   0,H  14)          107.7225         0.335036   
     28. A(C   0,N   1,C  10)          123.3603         0.405700   
     29. A(C   2,N   1,C  10)          113.9699         0.403368   
     30. A(C   0,N   1,C   2)          122.6698         0.385779   
     31. A(N   1,C   2,H  16)          111.2262         0.331832   
     32. A(N   1,C   2,H  15)          111.2263         0.331833   
     33. A(H  15,C   2,H  16)          107.8841         0.289166   
     34. A(N   1,C   2,C   3)          102.5512         0.379192   
     35. A(C   3,C   2,H  16)          111.9823         0.328204   
     36. A(C   3,C   2,H  15)          111.9816         0.328204   
     37. A(C   2,C   3,C   4)          130.0661         0.405441   
     38. A(C   4,C   3,C   9)          120.8825         0.438953   
     39. A(C   2,C   3,C   9)          109.0514         0.405129   
     40. A(C   3,C   4,C   5)          117.1017         0.437632   
     41. A(C   5,C   4,H  17)          120.5268         0.355474   
     42. A(C   3,C   4,H  17)          122.3716         0.356748   
     43. A(Br  6,C   5,C   7)          118.8055         0.413333   
     44. A(C   4,C   5,C   7)          122.4860         0.434946   
     45. A(C   4,C   5,Br  6)          118.7085         0.414296   
     46. A(C   8,C   7,H  18)          120.8725         0.356028   
     47. A(C   5,C   7,H  18)          119.5678         0.354884   
     48. A(C   5,C   7,C   8)          119.5598         0.435406   
     49. A(C   7,C   8,C   9)          118.1644         0.438235   
     50. A(C   9,C   8,H  19)          120.3609         0.356702   
     51. A(C   7,C   8,H  19)          121.4746         0.355676   
     52. A(C   3,C   9,C  10)          109.0662         0.409477   
     53. A(C   3,C   9,C   8)          121.8056         0.439093   
     54. A(C   8,C   9,C  10)          129.1282         0.409922   
     55. A(C   9,C  10,O  11)          128.1841         0.447288   
     56. A(N   1,C  10,O  11)          126.4546         0.471870   
     57. A(N   1,C  10,C   9)          105.3613         0.402930   
     58. D(C  10,N   1,C   0,H  13)    119.5002         0.018751   
     59. D(C  10,N   1,C   0,H  12)   -119.4990         0.018751   
     60. D(C  10,N   1,C   0,H  14)      0.0008         0.018751   
     61. D(C   2,N   1,C   0,H  13)    -60.5004         0.018751   
     62. D(C   2,N   1,C   0,H  14)   -179.9999         0.018751   
     63. D(C   2,N   1,C   0,H  12)     60.5003         0.018751   
     64. D(C   3,C   2,N   1,C   0)   -179.9960         0.017544   
     65. D(H  16,C   2,N   1,C   0)     60.1451         0.017544   
     66. D(H  15,C   2,N   1,C   0)    -60.1380         0.017544   
     67. D(H  15,C   2,N   1,C  10)    119.8614         0.017544   
     68. D(C   3,C   2,N   1,C  10)      0.0034         0.017544   
     69. D(H  16,C   2,N   1,C  10)   -119.8555         0.017544   
     70. D(C   4,C   3,C   2,H  15)     60.6673         0.012395   
     71. D(C   4,C   3,C   2,H  16)    -60.6697         0.012395   
     72. D(C   9,C   3,C   2,H  16)    119.3322         0.012395   
     73. D(C   4,C   3,C   2,N   1)    179.9987         0.012395   
     74. D(C   9,C   3,C   2,H  15)   -119.3308         0.012395   
     75. D(C   9,C   3,C   2,N   1)      0.0006         0.012395   
     76. D(H  17,C   4,C   3,C   9)    179.9996         0.028550   
     77. D(C   5,C   4,C   3,C   9)      0.0004         0.028550   
     78. D(H  17,C   4,C   3,C   2)      0.0017         0.028550   
     79. D(C   5,C   4,C   3,C   2)   -179.9975         0.028550   
     80. D(C   7,C   5,C   4,H  17)   -179.9989         0.027296   
     81. D(C   7,C   5,C   4,C   3)      0.0003         0.027296   
     82. D(Br  6,C   5,C   4,H  17)      0.0004         0.027296   
     83. D(Br  6,C   5,C   4,C   3)    179.9996         0.027296   
     84. D(H  18,C   7,C   5,Br  6)      0.0006         0.026547   
     85. D(H  18,C   7,C   5,C   4)    179.9999         0.026547   
     86. D(C   8,C   7,C   5,Br  6)   -179.9995         0.026547   
     87. D(C   8,C   7,C   5,C   4)     -0.0003         0.026547   
     88. D(C   9,C   8,C   7,C   5)     -0.0005         0.027639   
     89. D(H  19,C   8,C   7,H  18)      0.0008         0.027639   
     90. D(H  19,C   8,C   7,C   5)   -179.9990         0.027639   
     91. D(C   9,C   8,C   7,H  18)    179.9993         0.027639   
     92. D(C  10,C   9,C   8,H  19)      0.0011         0.028657   
     93. D(C  10,C   9,C   8,C   7)   -179.9975         0.028657   
     94. D(C   3,C   9,C   8,H  19)    179.9998         0.028657   
     95. D(C   3,C   9,C   8,C   7)      0.0012         0.028657   
     96. D(C  10,C   9,C   3,C   4)    179.9977         0.028285   
     97. D(C  10,C   9,C   3,C   2)     -0.0040         0.028285   
     98. D(C   8,C   9,C   3,C   4)     -0.0012         0.028285   
     99. D(C   8,C   9,C   3,C   2)    179.9971         0.028285   
    100. D(O  11,C  10,C   9,C   8)     -0.0094         0.012891   
    101. D(O  11,C  10,C   9,C   3)    179.9917         0.012891   
    102. D(N   1,C  10,C   9,C   8)   -179.9953         0.012891   
    103. D(N   1,C  10,C   9,C   3)      0.0059         0.012891   
    104. D(O  11,C  10,N   1,C   2)   -179.9919         0.029446   
    105. D(O  11,C  10,N   1,C   0)      0.0075         0.029446   
    106. D(C   9,C  10,N   1,C   2)     -0.0057         0.029446   
    107. D(C   9,C  10,N   1,C   0)    179.9937         0.029446   
    -----------------------------------------------------------------

Number of atoms                         .... 20
Number of degrees of freedom            .... 107

         *************************************************************
         *                GEOMETRY OPTIMIZATION CYCLE   1            *
         *************************************************************
---------------------------------
CARTESIAN COORDINATES (ANGSTROEM)
---------------------------------
  C      4.462376   -1.021248   -0.000087
  N      3.087000   -0.600247    0.000017
  C      1.983402   -1.536527    0.000026
  C      0.783402   -0.627725    0.000047
  C     -0.565297   -0.934042    0.000039
  C     -1.456087    0.131420    0.000010
  Br    -3.314521   -0.236193   -0.000014
  C     -1.034704    1.458474   -0.000017
  C      0.322453    1.745546   -0.000010
  C      1.213142    0.688112    0.000035
  C      2.701793    0.713568    0.000103
  O      3.433535    1.677447   -0.000024
  H      4.689227   -1.616018   -0.888065
  H      4.689323   -1.616120    0.887798
  H      5.082479   -0.127099   -0.000068
  H      2.009831   -2.180499   -0.885208
  H      2.009864   -2.180518    0.885246
  H     -0.927715   -1.953204    0.000041
  H     -1.769252    2.251273   -0.000041
  H      0.684311    2.765634   -0.000015

----------------------------
CARTESIAN COORDINATES (A.U.)
----------------------------
  NO LB      ZA    FRAG     MASS         X           Y           Z
   0 C     6.0000    0    12.011    8.432669   -1.929879   -0.000164
   1 N     7.0000    0    14.007    5.833585   -1.134302    0.000032
   2 C     6.0000    0    12.011    3.748087   -2.903615    0.000049
   3 C     6.0000    0    12.011    1.480415   -1.186228    0.000089
   4 C     6.0000    0    12.011   -1.068257   -1.765084    0.000074
   5 C     6.0000    0    12.011   -2.751606    0.248348    0.000019
   6 Br   35.0000    0    79.900   -6.263537   -0.446340   -0.000026
   7 C     6.0000    0    12.011   -1.955307    2.756116   -0.000032
   8 C     6.0000    0    12.011    0.609348    3.298604   -0.000019
   9 C     6.0000    0    12.011    2.292506    1.300343    0.000066
  10 C     6.0000    0    12.011    5.105649    1.348448    0.000195
  11 O     8.0000    0    15.999    6.488441    3.169915   -0.000045
  12 H     1.0000    0     1.008    8.861355   -3.053831   -1.678200
  13 H     1.0000    0     1.008    8.861536   -3.054024    1.677695
  14 H     1.0000    0     1.008    9.604493   -0.240182   -0.000129
  15 H     1.0000    0     1.008    3.798030   -4.120546   -1.672801
  16 H     1.0000    0     1.008    3.798093   -4.120582    1.672873
  17 H     1.0000    0     1.008   -1.753127   -3.691021    0.000077
  18 H     1.0000    0     1.008   -3.343402    4.254289   -0.000077
  19 H     1.0000    0     1.008    1.293160    5.226291   -0.000028

--------------------------------
INTERNAL COORDINATES (ANGSTROEM)
--------------------------------
 C      0   0   0     0.000000000000     0.00000000     0.00000000
 N      1   0   0     1.438367475367     0.00000000     0.00000000
 C      2   1   0     1.447255604268   122.66981622     0.00000000
 C      3   2   1     1.505297670112   102.55118384   180.00395326
 C      4   3   2     1.383047033602   130.06611418   179.99870759
 C      5   4   3     1.388782235768   117.10167725   180.00249758
 Br     6   5   4     1.894443520061   118.70852523   179.99958768
 C      6   5   4     1.392349077040   122.48601456     0.00000000
 C      8   6   5     1.387186164825   119.55975701     0.00000000
 C      9   8   6     1.382567741958   118.16441299     0.00000000
 C      2   1   3     1.369121723759   123.36028325   180.00065177
 O     11   2   1     1.210169036678   126.45455429     0.00000000
 H      1   2   3     1.092573868251   110.97317958    60.50034873
 H      1   2   3     1.092573755139   110.97280266   299.49958683
 H      1   2   3     1.088131501782   107.72248077   180.00014096
 H      3   2   1     1.095005782442   111.22627228   299.86197474
 H      3   2   1     1.095006435563   111.22615447    60.14513725
 H      5   4   3     1.081682942905   122.37155023     0.00000000
 H      8   6   5     1.080782595752   119.56778317   179.99987845
 H      9   8   6     1.082368116647   121.47464493   180.00095395

---------------------------
INTERNAL COORDINATES (A.U.)
---------------------------
 C      0   0   0     0.000000000000     0.00000000     0.00000000
 N      1   0   0     2.718120608383     0.00000000     0.00000000
 C      2   1   0     2.734916737849   122.66981622     0.00000000
 C      3   2   1     2.844600346542   102.55118384   180.00395326
 C      4   3   2     2.613580123839   130.06611418   179.99870759
 C      5   4   3     2.624418085257   117.10167725   180.00249758
 Br     6   5   4     3.579979429097   118.70852523   179.99958768
 C      6   5   4     2.631158438424   122.48601456     0.00000000
 C      8   6   5     2.621401948284   119.55975701     0.00000000
 C      9   8   6     2.612674393894   118.16441299     0.00000000
 C      2   1   3     2.587265101908   123.36028325   180.00065177
 O     11   2   1     2.286888055073   126.45455429     0.00000000
 H      1   2   3     2.064665392073   110.97317958    60.50034873
 H      1   2   3     2.064665178322   110.97280266   299.49958683
 H      1   2   3     2.056270536061   107.72248077   180.00014096
 H      3   2   1     2.069261043875   111.22627228   299.86197474
 H      3   2   1     2.069262278096   111.22615447    60.14513725
 H      5   4   3     2.044084525825   122.37155023     0.00000000
 H      8   6   5     2.042383116280   119.56778317   179.99987845
 H      9   8   6     2.045379316550   121.47464493   180.00095395

---------------------
BASIS SET INFORMATION
---------------------
There are 5 groups of distinct atoms

 Group   1 Type C   : 11s6p1d contracted to 5s3p1d pattern {62111/411/1}
 Group   2 Type N   : 11s6p2d contracted to 5s3p2d pattern {62111/411/11}
 Group   3 Type Br  : 17s13p7d contracted to 6s5p3d pattern {842111/64111/511}
 Group   4 Type O   : 11s6p2d contracted to 5s3p2d pattern {62111/411/11}
 Group   5 Type H   : 4s1p contracted to 2s1p pattern {31/1}

Atom   0C    basis set group =>   1
Atom   1N    basis set group =>   2
Atom   2C    basis set group =>   1
Atom   3C    basis set group =>   1
Atom   4C    basis set group =>   1
Atom   5C    basis set group =>   1
Atom   6Br   basis set group =>   3
Atom   7C    basis set group =>   1
Atom   8C    basis set group =>   1
Atom   9C    basis set group =>   1
Atom  10C    basis set group =>   1
Atom  11O    basis set group =>   4
Atom  12H    basis set group =>   5
Atom  13H    basis set group =>   5
Atom  14H    basis set group =>   5
Atom  15H    basis set group =>   5
Atom  16H    basis set group =>   5
Atom  17H    basis set group =>   5
Atom  18H    basis set group =>   5
Atom  19H    basis set group =>   5
---------------------------------
AUXILIARY/J BASIS SET INFORMATION
---------------------------------
There are 5 groups of distinct atoms

 Group   1 Type C   : 8s3p3d contracted to 6s3p3d pattern {311111/111/111}
 Group   2 Type N   : 8s3p3d contracted to 6s3p3d pattern {311111/111/111}
 Group   3 Type Br  : 19s5p5d3f1g contracted to 8s4p3d2f1g pattern {121111111/2111/311/21/1}
 Group   4 Type O   : 8s3p3d contracted to 6s3p3d pattern {311111/111/111}
 Group   5 Type H   : 5s2p1d contracted to 3s1p1d pattern {311/2/1}

Atom   0C    basis set group =>   1
Atom   1N    basis set group =>   2
Atom   2C    basis set group =>   1
Atom   3C    basis set group =>   1
Atom   4C    basis set group =>   1
Atom   5C    basis set group =>   1
Atom   6Br   basis set group =>   3
Atom   7C    basis set group =>   1
Atom   8C    basis set group =>   1
Atom   9C    basis set group =>   1
Atom  10C    basis set group =>   1
Atom  11O    basis set group =>   4
Atom  12H    basis set group =>   5
Atom  13H    basis set group =>   5
Atom  14H    basis set group =>   5
Atom  15H    basis set group =>   5
Atom  16H    basis set group =>   5
Atom  17H    basis set group =>   5
Atom  18H    basis set group =>   5
Atom  19H    basis set group =>   5


           ************************************************************
           *        Program running with 16 parallel MPI-processes    *
           *              working on a common directory               *
           ************************************************************
------------------------------------------------------------------------------
                           ORCA GTO INTEGRAL CALCULATION
                           -- RI-GTO INTEGRALS CHOSEN --
------------------------------------------------------------------------------
------------------------------------------------------------------------------
                   ___                                                        
                  /   \      - P O W E R E D   B Y -                         
                 /     \                                                     
                 |  |  |   _    _      __       _____    __    __             
                 |  |  |  | |  | |    /  \     |  _  \  |  |  /  |          
                  \  \/   | |  | |   /    \    | | | |  |  | /  /          
                 / \  \   | |__| |  /  /\  \   | |_| |  |  |/  /          
                |  |  |   |  __  | /  /__\  \  |    /   |      \           
                |  |  |   | |  | | |   __   |  |    \   |  |\   \          
                \     /   | |  | | |  |  |  |  | |\  \  |  | \   \       
                 \___/    |_|  |_| |__|  |__|  |_| \__\ |__|  \__/        
                                                                              
                      - O R C A' S   B I G   F R I E N D -                    
                                      &                                       
                       - I N T E G R A L  F E E D E R -                       
                                                                              
 v1 FN, 2020, v2 2021                                                         
------------------------------------------------------------------------------


Reading SHARK input file /tmp/254447/arbr_04_r2scan3c.SHARKINP.tmp ... ok
----------------------
SHARK INTEGRAL PACKAGE
----------------------

Number of atoms                             ...     20
Number of basis functions                   ...    295
Number of shells                            ...    139
Maximum angular momentum                    ...      2
Integral batch strategy                     ... SHARK/LIBINT Hybrid
RI-J (if used) integral strategy            ... SPLIT-RIJ (Revised 2003 algorithm where possible)
Printlevel                                  ...      1
Contraction scheme used                     ... SEGMENTED contraction
Coulomb Range Separation                    ... NOT USED
Exchange Range Separation                   ... NOT USED
Finite Nucleus Model                        ... NOT USED
Auxiliary Coulomb fitting basis             ... AVAILABLE
   # of basis functions in Aux-J            ...    476
   # of shells in Aux-J                     ...    190
   Maximum angular momentum in Aux-J        ...      4
Auxiliary J/K fitting basis                 ... NOT available
Auxiliary Correlation fitting basis         ... NOT available
Auxiliary 'external' fitting basis          ... NOT available
Integral threshold                          ...     2.500000e-11
Primitive cut-off                           ...     2.500000e-12
Primitive pair pre-selection threshold      ...     2.500000e-12

Calculating pre-screening integrals         ... done (  0.0 sec) Dimension = 139
Organizing shell pair data                  ... done (  0.0 sec)
Shell pair information
Total number of shell pairs                 ...      9730
Shell pairs after pre-screening             ...      8022
Total number of primitive shell pairs       ...     38835
Primitive shell pairs kept                  ...     21127
          la=0 lb=0:   2381 shell pairs
          la=1 lb=0:   2977 shell pairs
          la=1 lb=1:    956 shell pairs
          la=2 lb=0:    977 shell pairs
          la=2 lb=1:    622 shell pairs
          la=2 lb=2:    109 shell pairs

Calculating one electron integrals          ... done (  0.0 sec)
Calculating RI/J V-Matrix + Cholesky decomp.... done (  0.0 sec)
Calculating Nuclear repulsion               ... done (  0.0 sec) ENN=    906.650727267884 Eh

SHARK setup successfully completed in   0.2 seconds

Maximum memory used throughout the entire GTOINT-calculation: 20.9 MB


           ************************************************************
           *        Program running with 16 parallel MPI-processes    *
           *              working on a common directory               *
           ************************************************************
-------------------------------------------------------------------------------
                                 ORCA SCF
-------------------------------------------------------------------------------

------------
SCF SETTINGS
------------
Hamiltonian:
 Density Functional     Method          .... DFT(GTOs)
  Functional kind                       .... Exchange
  Functional name                       .... Re-regularized SCAN exchange by Furness et al
  Functional family                     .... MGGA
  Functional refs                              
    [ 0] J. W. Furness, A. D. Kaplan, J. Ning, J. P. Perdew, and J. Sun, J. Phys. Chem. Lett. 11, 8208 (2020)
    [ 1] J. W. Furness, A. D. Kaplan, J. Ning, J. P. Perdew, and J. Sun, J. Phys. Chem. Lett. 11, 9248 (2020)
  Functional external parameters         .... 8
 Parameter  0 :         c1 parameter
 Parameter  1 :         c2 parameter
 Parameter  2 :          d parameter
 Parameter  3 :         k1 parameter
 Parameter  4 :       taur parameter
 Parameter  5 :     alphar parameter
 Parameter  6 :        eta parameter
 Parameter  7 :        dp2 parameter
  Functional kind                       .... Correlation
  Functional name                       .... Re-regularized SCAN correlation by Furness et al
  Functional family                     .... MGGA
  Functional refs                              
    [ 0] J. W. Furness, A. D. Kaplan, J. Ning, J. P. Perdew, and J. Sun, J. Phys. Chem. Lett. 11, 8208 (2020)
    [ 1] J. W. Furness, A. D. Kaplan, J. Ning, J. P. Perdew, and J. Sun, J. Phys. Chem. Lett. 11, 9248 (2020)
  Functional external parameters         .... 0
 Gradients option       PostSCFGGA      .... off
   Density functional embedding theory  .... OFF
 RI-approximation to the Coulomb term is turned on
   Number of AuxJ basis functions       .... 476


General Settings:
 Integral files         IntName         .... /tmp/254447/arbr_04_r2scan3c
 Hartree-Fock type      HFTyp           .... RHF
 Total Charge           Charge          ....    0
 Multiplicity           Mult            ....    1
 Number of Electrons    NEL             ....  112
 Basis Dimension        Dim             ....  295
 Nuclear Repulsion      ENuc            ....    906.6507272679 Eh

Convergence Acceleration:
 DIIS                   CNVDIIS         .... on
   Start iteration      DIISMaxIt       ....    12
   Startup error        DIISStart       ....  0.200000
   # of expansion vecs  DIISMaxEq       ....     5
   Bias factor          DIISBfac        ....   1.050
   Max. coefficient     DIISMaxC        ....  10.000
 Trust-Rad. Augm. Hess. CNVTRAH         .... auto
   Auto Start mean grad. ratio tolernc. ....  1.125000
   Auto Start start iteration           ....    20
   Auto Start num. interpolation iter.  ....    10
   Max. Number of Micro iterations      ....    16
   Max. Number of Macro iterations      .... Maxiter - #DIIS iter
   Number of Davidson start vectors     ....     2
   Converg. threshold I  (grad. norm)   ....   1.000e-05
   Converg. threshold II (energy diff.) ....   1.000e-08
   Grad. Scal. Fac. for Micro threshold ....   0.100
   Minimum threshold for Micro iter.    ....   0.010
   NR start threshold (gradient norm)   ....   0.001
   Initial trust radius                 ....   0.400
   Minimum AH scaling param. (alpha)    ....   1.000
   Maximum AH scaling param. (alpha)    .... 1000.000
   Orbital update algorithm             .... Taylor
   White noise on init. David. guess    .... on
   Maximum white noise                  ....   0.010
   Quad. conv. algorithm                .... NR
   COSX micro iterations for RIJONX calc.... off
 SOSCF                  CNVSOSCF        .... on
   Start iteration      SOSCFMaxIt      ....   150
   Startup grad/error   SOSCFStart      ....  0.003300
 Level Shifting         CNVShift        .... on
   Level shift para.    LevelShift      ....    0.2500
   Turn off err/grad.   ShiftErr        ....    0.0010
 Zerner damping         CNVZerner       .... off
 Static damping         CNVDamp         .... on
   Fraction old density DampFac         ....    0.7000
   Max. Damping (<1)    DampMax         ....    0.9800
   Min. Damping (>=0)   DampMin         ....    0.0000
   Turn off err/grad.   DampErr         ....    0.1000
 Fernandez-Rico         CNVRico         .... off

SCF Procedure:
 Maximum # iterations   MaxIter         ....   125
 SCF integral mode      SCFMode         .... Direct
   Integral package                     .... SHARK and LIBINT hybrid scheme
 Reset frequency        DirectResetFreq ....    20
 Integral Threshold     Thresh          ....  2.500e-11 Eh
 Primitive CutOff       TCut            ....  2.500e-12 Eh

Convergence Tolerance:
 Convergence Check Mode ConvCheckMode   .... Total+1el-Energy
 Convergence forced     ConvForced      .... 0
 Energy Change          TolE            ....  1.000e-08 Eh
 1-El. energy change                    ....  1.000e-05 Eh
 Orbital Gradient       TolG            ....  1.000e-05
 Orbital Rotation angle TolX            ....  1.000e-05
 DIIS Error             TolErr          ....  5.000e-07


Diagonalization of the overlap matrix:
Smallest eigenvalue                        ... 2.246e-05
Time for diagonalization                   ...    0.009 sec
Threshold for overlap eigenvalues          ... 1.000e-08
Number of eigenvalues below threshold      ... 0
Time for construction of square roots      ...    0.006 sec
Total time needed                          ...    0.039 sec

Time for model grid setup =    0.088 sec

------------------------------
INITIAL GUESS: MODEL POTENTIAL
------------------------------
Loading Hartree-Fock densities                     ... done
Calculating cut-offs                               ... done
Initializing the effective Hamiltonian             ... done
Setting up the integral package (SHARK)            ... done
Starting the Coulomb interaction                   ... done (   0.0 sec)
Reading the grid                                   ... done
Mapping shells                                     ... done
Starting the XC term evaluation                    ... done (   0.0 sec)
  promolecular density results
     # of electrons  =    111.992793925
     EX              =   -152.435937301
     EC              =     -4.313529436
     EX+EC           =   -156.749466737
Transforming the Hamiltonian                       ... done (   0.0 sec)
Diagonalizing the Hamiltonian                      ... done (   0.0 sec)
Back transforming the eigenvectors                 ... done (   0.0 sec)
Now organizing SCF variables                       ... done
                      ------------------
                      INITIAL GUESS DONE (   0.2 sec)
                      ------------------
-------------------
DFT GRID GENERATION
-------------------

General Integration Accuracy     IntAcc      ... 4.388
Radial Grid Type                 RadialGrid  ... OptM3 with GC (2021)
Angular Grid (max. ang.)         AngularGrid ... 4 (Lebedev-302)
Angular grid pruning method      GridPruning ... 4 (adaptive)
Weight generation scheme         WeightScheme... Becke
Basis function cutoff            BFCut       ... 1.0000e-11
Integration weight cutoff        WCut        ... 1.0000e-14
Angular grids for H and He will be reduced by one unit
Partially contracted basis set               ... off
Rotationally invariant grid construction     ... off

Total number of grid points                  ...   103124
Total number of batches                      ...     1623
Average number of points per batch           ...       63
Average number of grid points per atom       ...     5156
Time for grid setup =    0.473 sec

--------------
SCF ITERATIONS
--------------
ITER       Energy         Delta-E        Max-DP      RMS-DP      [F,P]     Damp
               ***  Starting incremental Fock matrix formation  ***
  0  -3051.5505691780   0.000000000000 0.13011690  0.00251473  0.2895886 0.7000
  1  -3051.6764844680  -0.125915289965 0.11821458  0.00186068  0.1029826 0.7000
                               ***Turning on DIIS***
  2  -3051.7214746821  -0.044990214114 0.10771766  0.00223651  0.0328089 0.0000
  3  -3051.7921672513  -0.070692569162 0.14760547  0.00184981  0.0452724 0.0000
  4  -3051.8107608972  -0.018593645931 0.03413562  0.00047819  0.0198735 0.0000
  5  -3051.8121424813  -0.001381584122 0.01303331  0.00021504  0.0082598 0.0000
                      *** Initiating the SOSCF procedure ***
                           *** Shutting down DIIS ***
                      *** Re-Reading the Fockian *** 
                      *** Removing any level shift *** 
ITER      Energy       Delta-E        Grad      Rot      Max-DP    RMS-DP
  6  -3051.81231448  -0.0001720023  0.000481  0.000481  0.004168  0.000085
               *** Restarting incremental Fock matrix formation ***
  7  -3051.81232135  -0.0000068704  0.000294  0.001766  0.002713  0.000045
  8  -3051.81230742   0.0000139327  0.000744  0.001292  0.002231  0.000034
  9  -3051.81232580  -0.0000183791  0.000112  0.000339  0.000588  0.000011
 10  -3051.81232433   0.0000014666  0.000202  0.000307  0.000427  0.000008
 11  -3051.81232634  -0.0000020045  0.000030  0.000168  0.000097  0.000003
 12  -3051.81232623   0.0000001104  0.000068  0.000120  0.000136  0.000002
 13  -3051.81232636  -0.0000001348  0.000010  0.000028  0.000143  0.000002
 14  -3051.81232636   0.0000000025  0.000018  0.000020  0.000043  0.000001
 15  -3051.81232638  -0.0000000162  0.000003  0.000016  0.000083  0.000001
 16  -3051.81232639  -0.0000000096  0.000005  0.000010  0.000045  0.000001
                  ***Gradient check signals convergence***
              ***Rediagonalizing the Fockian in SOSCF/NRSCF***

               *****************************************************
               *                     SUCCESS                       *
               *           SCF CONVERGED AFTER  17 CYCLES          *
               *****************************************************


----------------
TOTAL SCF ENERGY
----------------

Total Energy       :        -3051.81232639 Eh          -83044.03528 eV

Components:
Nuclear Repulsion  :          906.65072727 Eh           24671.22055 eV
Electronic Energy  :        -3958.46305365 Eh         -107715.25583 eV
One Electron Energy:        -6031.34234390 Eh         -164121.16894 eV
Two Electron Energy:         2072.87929024 Eh           56405.91311 eV

Virial components:
Potential Energy   :        -6098.25344854 Eh         -165941.91266 eV
Kinetic Energy     :         3046.44112215 Eh           82897.87738 eV
Virial Ratio       :            2.00176311


DFT components:
N(Alpha)           :       55.999985078348 electrons
N(Beta)            :       55.999985078348 electrons
N(Total)           :      111.999970156697 electrons
E(X)               :     -154.308358132660 Eh       
E(C)               :       -4.255214020655 Eh       
E(XC)              :     -158.563572153315 Eh       
DFET-embed. en.    :        0.000000000000 Eh       

---------------
SCF CONVERGENCE
---------------

  Last Energy change         ...   -8.9858e-10  Tolerance :   1.0000e-08
  Last MAX-Density change    ...    3.6264e-05  Tolerance :   1.0000e-07
  Last RMS-Density change    ...    7.7188e-07  Tolerance :   5.0000e-09
  Last Orbital Gradient      ...    5.0258e-07  Tolerance :   1.0000e-05
  Last Orbital Rotation      ...    1.8091e-06  Tolerance :   1.0000e-05

             **** THE GBW FILE WAS UPDATED (/tmp/254447/arbr_04_r2scan3c.gbw) ****
             **** DENSITY /tmp/254447/arbr_04_r2scan3c.scfp WAS UPDATED ****
             **** ENERGY FILE WAS UPDATED (/tmp/254447/arbr_04_r2scan3c.en.tmp) ****
             **** THE GBW FILE WAS UPDATED (/tmp/254447/arbr_04_r2scan3c.gbw) ****
             **** DENSITY /tmp/254447/arbr_04_r2scan3c.scfp WAS UPDATED ****
----------------
ORBITAL ENERGIES
----------------

  NO   OCC          E(Eh)            E(eV) 
   0   2.0000    -482.238090    -13122.3655 
   1   2.0000     -62.309349     -1695.5236 
   2   2.0000     -56.090579     -1526.3022 
   3   2.0000     -56.086675     -1526.1960 
   4   2.0000     -56.086674     -1526.1960 
   5   2.0000     -18.916083      -514.7328 
   6   2.0000     -14.202730      -386.4759 
   7   2.0000     -10.128665      -275.6150 
   8   2.0000     -10.111013      -275.1347 
   9   2.0000     -10.097089      -274.7558 
  10   2.0000     -10.071822      -274.0682 
  11   2.0000     -10.070721      -274.0382 
  12   2.0000     -10.065035      -273.8835 
  13   2.0000     -10.060449      -273.7587 
  14   2.0000     -10.059593      -273.7354 
  15   2.0000     -10.053665      -273.5741 
  16   2.0000      -8.641352      -235.1431 
  17   2.0000      -6.449098      -175.4889 
  18   2.0000      -6.435222      -175.1113 
  19   2.0000      -6.434734      -175.0980 
  20   2.0000      -2.546599       -69.2965 
  21   2.0000      -2.543385       -69.2090 
  22   2.0000      -2.543045       -69.1998 
  23   2.0000      -2.532443       -68.9113 
  24   2.0000      -2.532431       -68.9110 
  25   2.0000      -1.009257       -27.4633 
  26   2.0000      -0.931865       -25.3573 
  27   2.0000      -0.861042       -23.4301 
  28   2.0000      -0.795693       -21.6519 
  29   2.0000      -0.759197       -20.6588 
  30   2.0000      -0.729862       -19.8606 
  31   2.0000      -0.692972       -18.8567 
  32   2.0000      -0.673830       -18.3359 
  33   2.0000      -0.601662       -16.3721 
  34   2.0000      -0.575679       -15.6650 
  35   2.0000      -0.540537       -14.7088 
  36   2.0000      -0.490104       -13.3364 
  37   2.0000      -0.475642       -12.9429 
  38   2.0000      -0.472586       -12.8597 
  39   2.0000      -0.452211       -12.3053 
  40   2.0000      -0.431603       -11.7445 
  41   2.0000      -0.423758       -11.5310 
  42   2.0000      -0.404055       -10.9949 
  43   2.0000      -0.396667       -10.7938 
  44   2.0000      -0.387262       -10.5379 
  45   2.0000      -0.379256       -10.3201 
  46   2.0000      -0.368257       -10.0208 
  47   2.0000      -0.359883        -9.7929 
  48   2.0000      -0.349982        -9.5235 
  49   2.0000      -0.337702        -9.1893 
  50   2.0000      -0.299339        -8.1454 
  51   2.0000      -0.274773        -7.4770 
  52   2.0000      -0.258875        -7.0443 
  53   2.0000      -0.237570        -6.4646 
  54   2.0000      -0.227801        -6.1988 
  55   2.0000      -0.225050        -6.1239 
  56   0.0000      -0.071481        -1.9451 
  57   0.0000      -0.056307        -1.5322 
  58   0.0000      -0.028058        -0.7635 
  59   0.0000       0.022441         0.6107 
  60   0.0000       0.060388         1.6432 
  61   0.0000       0.072680         1.9777 
  62   0.0000       0.094258         2.5649 
  63   0.0000       0.107858         2.9350 
  64   0.0000       0.109120         2.9693 
  65   0.0000       0.118304         3.2192 
  66   0.0000       0.122414         3.3310 
  67   0.0000       0.128772         3.5041 
  68   0.0000       0.140542         3.8243 
  69   0.0000       0.149993         4.0815 
  70   0.0000       0.153936         4.1888 
  71   0.0000       0.167773         4.5653 
  72   0.0000       0.171468         4.6659 
  73   0.0000       0.174788         4.7562 
  74   0.0000       0.188687         5.1344 
  75   0.0000       0.192821         5.2469 
  76   0.0000       0.193201         5.2573 
  77   0.0000       0.204653         5.5689 
  78   0.0000       0.209416         5.6985 
  79   0.0000       0.218415         5.9434 
  80   0.0000       0.225535         6.1371 
  81   0.0000       0.236690         6.4407 
  82   0.0000       0.243542         6.6271 
  83   0.0000       0.246934         6.7194 
  84   0.0000       0.247367         6.7312 
  85   0.0000       0.258740         7.0407 
  86   0.0000       0.266157         7.2425 
  87   0.0000       0.275742         7.5033 
  88   0.0000       0.289917         7.8890 
  89   0.0000       0.295475         8.0403 
  90   0.0000       0.312944         8.5157 
  91   0.0000       0.315761         8.5923 
  92   0.0000       0.327127         8.9016 
  93   0.0000       0.339334         9.2337 
  94   0.0000       0.340239         9.2584 
  95   0.0000       0.346885         9.4392 
  96   0.0000       0.347386         9.4528 
  97   0.0000       0.363661         9.8957 
  98   0.0000       0.373566        10.1652 
  99   0.0000       0.393100        10.6968 
 100   0.0000       0.399978        10.8840 
 101   0.0000       0.419990        11.4285 
 102   0.0000       0.421902        11.4805 
 103   0.0000       0.443153        12.0588 
 104   0.0000       0.449094        12.2205 
 105   0.0000       0.473472        12.8838 
 106   0.0000       0.475451        12.9377 
 107   0.0000       0.483418        13.1545 
 108   0.0000       0.490971        13.3600 
 109   0.0000       0.508376        13.8336 
 110   0.0000       0.523736        14.2516 
 111   0.0000       0.536380        14.5956 
 112   0.0000       0.543462        14.7883 
 113   0.0000       0.547546        14.8995 
 114   0.0000       0.556364        15.1394 
 115   0.0000       0.560441        15.2504 
 116   0.0000       0.565553        15.3895 
 117   0.0000       0.577458        15.7134 
 118   0.0000       0.589086        16.0298 
 119   0.0000       0.609628        16.5888 
 120   0.0000       0.610158        16.6032 
 121   0.0000       0.617269        16.7967 
 122   0.0000       0.624584        16.9958 
 123   0.0000       0.629238        17.1224 
 124   0.0000       0.654269        17.8036 
 125   0.0000       0.667667        18.1681 
 126   0.0000       0.673255        18.3202 
 127   0.0000       0.699355        19.0304 
 128   0.0000       0.709903        19.3174 
 129   0.0000       0.717616        19.5273 
 130   0.0000       0.728827        19.8324 
 131   0.0000       0.757009        20.5993 
 132   0.0000       0.783711        21.3259 
 133   0.0000       0.798648        21.7323 
 134   0.0000       0.815468        22.1900 
 135   0.0000       0.837242        22.7825 
 136   0.0000       0.851314        23.1654 
 137   0.0000       0.888532        24.1782 
 138   0.0000       0.916812        24.9477 
 139   0.0000       0.967019        26.3139 
 140   0.0000       0.978805        26.6346 
 141   0.0000       1.035379        28.1741 
 142   0.0000       1.043615        28.3982 
 143   0.0000       1.064521        28.9671 
 144   0.0000       1.078055        29.3354 
 145   0.0000       1.088534        29.6205 
 146   0.0000       1.095530        29.8109 
 147   0.0000       1.131264        30.7833 
 148   0.0000       1.139696        31.0127 
 149   0.0000       1.182427        32.1755 
 150   0.0000       1.205538        32.8044 
 151   0.0000       1.209927        32.9238 
 152   0.0000       1.214312        33.0431 
 153   0.0000       1.223758        33.3002 
 154   0.0000       1.248344        33.9692 
 155   0.0000       1.300930        35.4001 
 156   0.0000       1.302164        35.4337 
 157   0.0000       1.314105        35.7586 
 158   0.0000       1.327476        36.1225 
 159   0.0000       1.334497        36.3135 
 160   0.0000       1.347008        36.6540 
 161   0.0000       1.367678        37.2164 
 162   0.0000       1.395511        37.9738 
 163   0.0000       1.414341        38.4862 
 164   0.0000       1.416521        38.5455 
 165   0.0000       1.417668        38.5767 
 166   0.0000       1.421546        38.6822 
 167   0.0000       1.434025        39.0218 
 168   0.0000       1.457793        39.6686 
 169   0.0000       1.460165        39.7331 
 170   0.0000       1.486958        40.4622 
 171   0.0000       1.490616        40.5617 
 172   0.0000       1.501026        40.8450 
 173   0.0000       1.505223        40.9592 
 174   0.0000       1.521266        41.3958 
 175   0.0000       1.551717        42.2244 
 176   0.0000       1.570644        42.7394 
 177   0.0000       1.580311        43.0025 
 178   0.0000       1.608439        43.7678 
 179   0.0000       1.628382        44.3105 
 180   0.0000       1.642746        44.7014 
 181   0.0000       1.662746        45.2456 
 182   0.0000       1.673586        45.5406 
 183   0.0000       1.679645        45.7055 
 184   0.0000       1.688732        45.9527 
 185   0.0000       1.705728        46.4152 
 186   0.0000       1.713944        46.6388 
 187   0.0000       1.736223        47.2450 
 188   0.0000       1.739689        47.3393 
 189   0.0000       1.745939        47.5094 
 190   0.0000       1.782577        48.5064 
 191   0.0000       1.794029        48.8180 
 192   0.0000       1.815028        49.3894 
 193   0.0000       1.841036        50.0971 
 194   0.0000       1.849832        50.3365 
 195   0.0000       1.869689        50.8768 
 196   0.0000       1.896921        51.6178 
 197   0.0000       1.958698        53.2989 
 198   0.0000       1.992530        54.2195 
 199   0.0000       2.000857        54.4461 
 200   0.0000       2.028111        55.1877 
 201   0.0000       2.030221        55.2451 
 202   0.0000       2.070533        56.3421 
 203   0.0000       2.078272        56.5527 
 204   0.0000       2.100364        57.1538 
 205   0.0000       2.104205        57.2583 
 206   0.0000       2.125136        57.8279 
 207   0.0000       2.130261        57.9673 
 208   0.0000       2.178690        59.2852 
 209   0.0000       2.206347        60.0378 
 210   0.0000       2.232430        60.7475 
 211   0.0000       2.240377        60.9638 
 212   0.0000       2.256435        61.4007 
 213   0.0000       2.277000        61.9603 
 214   0.0000       2.291643        62.3588 
 215   0.0000       2.296133        62.4810 
 216   0.0000       2.314331        62.9761 
 217   0.0000       2.326883        63.3177 
 218   0.0000       2.328554        63.3632 
 219   0.0000       2.332166        63.4615 
 220   0.0000       2.339133        63.6510 
 221   0.0000       2.351698        63.9930 
 222   0.0000       2.363487        64.3137 
 223   0.0000       2.379028        64.7366 
 224   0.0000       2.404956        65.4422 
 225   0.0000       2.428936        66.0947 
 226   0.0000       2.430866        66.1472 
 227   0.0000       2.455967        66.8303 
 228   0.0000       2.505973        68.1910 
 229   0.0000       2.519457        68.5579 
 230   0.0000       2.550994        69.4161 
 231   0.0000       2.564869        69.7936 
 232   0.0000       2.590964        70.5037 
 233   0.0000       2.593070        70.5610 
 234   0.0000       2.646781        72.0226 
 235   0.0000       2.651431        72.1491 
 236   0.0000       2.666002        72.5456 
 237   0.0000       2.673302        72.7443 
 238   0.0000       2.673904        72.7606 
 239   0.0000       2.688840        73.1671 
 240   0.0000       2.691626        73.2429 
 241   0.0000       2.714500        73.8653 
 242   0.0000       2.722245        74.0761 
 243   0.0000       2.756100        74.9973 
 244   0.0000       2.764698        75.2313 
 245   0.0000       2.772368        75.4400 
 246   0.0000       2.798131        76.1410 
 247   0.0000       2.808801        76.4314 
 248   0.0000       2.874980        78.2322 
 249   0.0000       2.903005        78.9948 
 250   0.0000       2.925651        79.6110 
 251   0.0000       2.935702        79.8845 
 252   0.0000       2.941242        80.0353 
 253   0.0000       2.945386        80.1480 
 254   0.0000       2.974269        80.9340 
 255   0.0000       2.997060        81.5541 
 256   0.0000       3.005561        81.7855 
 257   0.0000       3.021267        82.2129 
 258   0.0000       3.043593        82.8204 
 259   0.0000       3.106708        84.5378 
 260   0.0000       3.132964        85.2523 
 261   0.0000       3.158017        85.9340 
 262   0.0000       3.172619        86.3313 
 263   0.0000       3.207669        87.2851 
 264   0.0000       3.220412        87.6319 
 265   0.0000       3.239695        88.1566 
 266   0.0000       3.281559        89.2957 
 267   0.0000       3.345498        91.0356 
 268   0.0000       3.357230        91.3549 
 269   0.0000       3.407756        92.7298 
 270   0.0000       3.414202        92.9052 
 271   0.0000       3.432732        93.4094 
 272   0.0000       3.511531        95.5536 
 273   0.0000       3.534092        96.1675 
 274   0.0000       3.554568        96.7247 
 275   0.0000       3.587978        97.6339 
 276   0.0000       3.606179        98.1291 
 277   0.0000       3.641616        99.0934 
 278   0.0000       3.770307       102.5953 
 279   0.0000       3.875210       105.4498 
 280   0.0000       3.920479       106.6817 
 281   0.0000       4.111433       111.8778 
 282   0.0000       4.495728       122.3350 
 283   0.0000       7.490029       203.8140 
 284   0.0000      21.355270       581.1064 
 285   0.0000      21.858323       594.7952 
 286   0.0000      21.941357       597.0547 
 287   0.0000      22.081121       600.8579 
 288   0.0000      22.128900       602.1580 
 289   0.0000      22.134768       602.3177 
 290   0.0000      22.194673       603.9477 
 291   0.0000      22.337282       607.8284 
 292   0.0000      22.421425       610.1180 
 293   0.0000      31.969354       869.9303 
 294   0.0000      43.743859      1190.3309 

                    ********************************
                    * MULLIKEN POPULATION ANALYSIS *
                    ********************************

-----------------------
MULLIKEN ATOMIC CHARGES
-----------------------
   0 C :   -0.420610
   1 N :    0.143235
   2 C :   -0.379380
   3 C :    0.241213
   4 C :   -0.350880
   5 C :    0.167688
   6 Br:   -0.121259
   7 C :   -0.186698
   8 C :   -0.267382
   9 C :    0.171885
  10 C :    0.129089
  11 O :   -0.436382
  12 H :    0.144829
  13 H :    0.144825
  14 H :    0.196351
  15 H :    0.158680
  16 H :    0.158679
  17 H :    0.167492
  18 H :    0.165195
  19 H :    0.173430
Sum of atomic charges:   -0.0000000

--------------------------------
MULLIKEN REDUCED ORBITAL CHARGES
--------------------------------
  0 C s       :     3.327818  s :     3.327818
      pz      :     1.075797  p :     3.052832
      px      :     0.857064
      py      :     1.119972
      dz2     :     0.006468  d :     0.039960
      dxz     :     0.008660
      dyz     :     0.007526
      dx2y2   :     0.008508
      dxy     :     0.008797
  1 N s       :     3.192980  s :     3.192980
      pz      :     1.617961  p :     3.503720
      px      :     0.927906
      py      :     0.957852
      dz2     :     0.006583  d :     0.160065
      dxz     :     0.023103
      dyz     :     0.025742
      dx2y2   :     0.041768
      dxy     :     0.062869
  2 C s       :     3.351367  s :     3.351367
      pz      :     1.091460  p :     2.976956
      px      :     0.859594
      py      :     1.025902
      dz2     :     0.007239  d :     0.051057
      dxz     :     0.007129
      dyz     :     0.013775
      dx2y2   :     0.007152
      dxy     :     0.015762
  3 C s       :     3.100672  s :     3.100672
      pz      :     0.971779  p :     2.608567
      px      :     0.756618
      py      :     0.880169
      dz2     :     0.003661  d :     0.049548
      dxz     :     0.007467
      dyz     :     0.006364
      dx2y2   :     0.015386
      dxy     :     0.016671
  4 C s       :     3.249563  s :     3.249563
      pz      :     1.009569  p :     3.062698
      px      :     0.996103
      py      :     1.057027
      dz2     :     0.003329  d :     0.038619
      dxz     :     0.006214
      dyz     :     0.003075
      dx2y2   :     0.012311
      dxy     :     0.013690
  5 C s       :     3.090741  s :     3.090741
      pz      :     1.024784  p :     2.691715
      px      :     0.723145
      py      :     0.943786
      dz2     :     0.003482  d :     0.049856
      dxz     :     0.006304
      dyz     :     0.007740
      dx2y2   :     0.016344
      dxy     :     0.015986
  6 Brs       :     7.980299  s :     7.980299
      pz      :     5.932901  p :    17.092765
      px      :     5.232826
      py      :     5.927038
      dz2     :     2.005979  d :    10.048195
      dxz     :     2.014640
      dyz     :     2.000880
      dx2y2   :     2.017005
      dxy     :     2.009691
  7 C s       :     3.203434  s :     3.203434
      pz      :     0.997802  p :     2.945438
      px      :     0.996483
      py      :     0.951153
      dz2     :     0.003295  d :     0.037826
      dxz     :     0.004758
      dyz     :     0.004294
      dx2y2   :     0.012214
      dxy     :     0.013265
  8 C s       :     3.258158  s :     3.258158
      pz      :     0.949493  p :     2.969793
      px      :     0.975080
      py      :     1.045220
      dz2     :     0.003251  d :     0.039430
      dxz     :     0.006507
      dyz     :     0.003007
      dx2y2   :     0.012977
      dxy     :     0.013688
  9 C s       :     3.170584  s :     3.170584
      pz      :     1.002428  p :     2.609279
      px      :     0.838602
      py      :     0.768249
      dz2     :     0.003872  d :     0.048252
      dxz     :     0.004890
      dyz     :     0.006969
      dx2y2   :     0.018778
      dxy     :     0.013744
 10 C s       :     3.166411  s :     3.166411
      pz      :     0.803176  p :     2.586110
      px      :     0.892295
      py      :     0.890639
      dz2     :     0.005512  d :     0.118390
      dxz     :     0.010295
      dyz     :     0.025721
      dx2y2   :     0.051707
      dxy     :     0.025154
 11 O s       :     3.846192  s :     3.846192
      pz      :     1.481928  p :     4.561832
      px      :     1.614188
      py      :     1.465716
      dz2     :     0.005305  d :     0.028358
      dxz     :     0.004330
      dyz     :     0.005897
      dx2y2   :     0.002279
      dxy     :     0.010546
 12 H s       :     0.837264  s :     0.837264
      pz      :     0.008669  p :     0.017907
      px      :     0.003315
      py      :     0.005923
 13 H s       :     0.837268  s :     0.837268
      pz      :     0.008667  p :     0.017907
      px      :     0.003316
      py      :     0.005924
 14 H s       :     0.785060  s :     0.785060
      pz      :     0.003618  p :     0.018589
      px      :     0.005365
      py      :     0.009606
 15 H s       :     0.823430  s :     0.823430
      pz      :     0.008717  p :     0.017889
      px      :     0.003030
      py      :     0.006142
 16 H s       :     0.823432  s :     0.823432
      pz      :     0.008717  p :     0.017889
      px      :     0.003030
      py      :     0.006142
 17 H s       :     0.812901  s :     0.812901
      pz      :     0.004177  p :     0.019607
      px      :     0.004217
      py      :     0.011214
 18 H s       :     0.815211  s :     0.815211
      pz      :     0.004102  p :     0.019593
      px      :     0.007469
      py      :     0.008022
 19 H s       :     0.807058  s :     0.807058
      pz      :     0.003825  p :     0.019513
      px      :     0.004263
      py      :     0.011424


                     *******************************
                     * LOEWDIN POPULATION ANALYSIS *
                     *******************************

----------------------
LOEWDIN ATOMIC CHARGES
----------------------
   0 C :   -0.101462
   1 N :   -0.836417
   2 C :    0.019143
   3 C :   -0.010794
   4 C :   -0.165488
   5 C :   -0.221195
   6 Br:    0.204785
   7 C :   -0.171687
   8 C :   -0.103788
   9 C :   -0.006434
  10 C :    0.360361
  11 O :   -0.446411
  12 H :    0.172614
  13 H :    0.172613
  14 H :    0.207262
  15 H :    0.188899
  16 H :    0.188896
  17 H :    0.181622
  18 H :    0.180158
  19 H :    0.187323

-------------------------------
LOEWDIN REDUCED ORBITAL CHARGES
-------------------------------
  0 C s       :     2.873430  s :     2.873430
      pz      :     1.096896  p :     3.135250
      px      :     0.937655
      py      :     1.100699
      dz2     :     0.014757  d :     0.092782
      dxz     :     0.018382
      dyz     :     0.019481
      dx2y2   :     0.018310
      dxy     :     0.021852
  1 N s       :     3.096810  s :     3.096810
      pz      :     1.581490  p :     3.979626
      px      :     1.200641
      py      :     1.197495
      dz2     :     0.072361  d :     0.759981
      dxz     :     0.114827
      dyz     :     0.113592
      dx2y2   :     0.217237
      dxy     :     0.241964
  2 C s       :     2.827086  s :     2.827086
      pz      :     1.092597  p :     3.043121
      px      :     0.933689
      py      :     1.016835
      dz2     :     0.015510  d :     0.110650
      dxz     :     0.012748
      dyz     :     0.033030
      dx2y2   :     0.015510
      dxy     :     0.033853
  3 C s       :     2.843481  s :     2.843481
      pz      :     0.948650  p :     3.067193
      px      :     1.045567
      py      :     1.072976
      dz2     :     0.006611  d :     0.100120
      dxz     :     0.012571
      dyz     :     0.011103
      dx2y2   :     0.033092
      dxy     :     0.036744
  4 C s       :     2.896578  s :     2.896578
      pz      :     1.004857  p :     3.185744
      px      :     1.081868
      py      :     1.099019
      dz2     :     0.006011  d :     0.083166
      dxz     :     0.011482
      dyz     :     0.004873
      dx2y2   :     0.028545
      dxy     :     0.032255
  5 C s       :     2.929679  s :     2.929679
      pz      :     1.021769  p :     3.191377
      px      :     1.025027
      py      :     1.144581
      dz2     :     0.006769  d :     0.100140
      dxz     :     0.010366
      dyz     :     0.013713
      dx2y2   :     0.034951
      dxy     :     0.034341
  6 Brs       :     7.666869  s :     7.666869
      pz      :     5.910365  p :    17.059824
      px      :     5.249621
      py      :     5.899837
      dz2     :     2.009787  d :    10.068522
      dxz     :     2.017497
      dyz     :     2.000982
      dx2y2   :     2.027012
      dxy     :     2.013244
  7 C s       :     2.905427  s :     2.905427
      pz      :     0.990258  p :     3.184602
      px      :     1.109949
      py      :     1.084395
      dz2     :     0.005893  d :     0.081658
      dxz     :     0.008171
      dyz     :     0.007599
      dx2y2   :     0.027985
      dxy     :     0.032009
  8 C s       :     2.894828  s :     2.894828
      pz      :     0.942883  p :     3.125857
      px      :     1.075593
      py      :     1.107381
      dz2     :     0.005555  d :     0.083104
      dxz     :     0.011904
      dyz     :     0.004759
      dx2y2   :     0.030440
      dxy     :     0.030446
  9 C s       :     2.838784  s :     2.838784
      pz      :     0.978803  p :     3.069847
      px      :     1.015064
      py      :     1.075980
      dz2     :     0.007475  d :     0.097803
      dxz     :     0.007668
      dyz     :     0.012505
      dx2y2   :     0.039843
      dxy     :     0.030312
 10 C s       :     2.713081  s :     2.713081
      pz      :     0.751993  p :     2.671985
      px      :     0.963865
      py      :     0.956128
      dz2     :     0.015098  d :     0.254573
      dxz     :     0.016886
      dyz     :     0.048758
      dx2y2   :     0.115445
      dxy     :     0.058385
 11 O s       :     3.542231  s :     3.542231
      pz      :     1.472920  p :     4.691116
      px      :     1.663411
      py      :     1.554785
      dz2     :     0.025765  d :     0.213064
      dxz     :     0.017808
      dyz     :     0.035101
      dx2y2   :     0.068856
      dxy     :     0.065534
 12 H s       :     0.786992  s :     0.786992
      pz      :     0.020782  p :     0.040394
      px      :     0.006493
      py      :     0.013119
 13 H s       :     0.786993  s :     0.786993
      pz      :     0.020779  p :     0.040394
      px      :     0.006494
      py      :     0.013121
 14 H s       :     0.749453  s :     0.749453
      pz      :     0.007545  p :     0.043285
      px      :     0.011129
      py      :     0.024611
 15 H s       :     0.770102  s :     0.770102
      pz      :     0.021176  p :     0.040999
      px      :     0.006649
      py      :     0.013174
 16 H s       :     0.770104  s :     0.770104
      pz      :     0.021175  p :     0.040999
      px      :     0.006650
      py      :     0.013174
 17 H s       :     0.772908  s :     0.772908
      pz      :     0.009193  p :     0.045471
      px      :     0.009141
      py      :     0.027136
 18 H s       :     0.774462  s :     0.774462
      pz      :     0.009031  p :     0.045380
      px      :     0.017299
      py      :     0.019050
 19 H s       :     0.767298  s :     0.767298
      pz      :     0.008248  p :     0.045379
      px      :     0.009684
      py      :     0.027447


                      *****************************
                      * MAYER POPULATION ANALYSIS *
                      *****************************

  NA   - Mulliken gross atomic population
  ZA   - Total nuclear charge
  QA   - Mulliken gross atomic charge
  VA   - Mayer's total valence
  BVA  - Mayer's bonded valence
  FA   - Mayer's free valence

  ATOM       NA         ZA         QA         VA         BVA        FA
  0 C      6.4206     6.0000    -0.4206     3.8021     3.8021    -0.0000
  1 N      6.8568     7.0000     0.1432     3.1358     3.1358    -0.0000
  2 C      6.3794     6.0000    -0.3794     3.8741     3.8741    -0.0000
  3 C      5.7588     6.0000     0.2412     3.5029     3.5029     0.0000
  4 C      6.3509     6.0000    -0.3509     3.7842     3.7842    -0.0000
  5 C      5.8323     6.0000     0.1677     3.8115     3.8115    -0.0000
  6 Br    35.1213    35.0000    -0.1213     1.1212     1.1212    -0.0000
  7 C      6.1867     6.0000    -0.1867     3.7617     3.7617    -0.0000
  8 C      6.2674     6.0000    -0.2674     3.7287     3.7287    -0.0000
  9 C      5.8281     6.0000     0.1719     3.6442     3.6442    -0.0000
 10 C      5.8709     6.0000     0.1291     4.0541     4.0541    -0.0000
 11 O      8.4364     8.0000    -0.4364     2.0966     2.0966    -0.0000
 12 H      0.8552     1.0000     0.1448     0.9582     0.9582    -0.0000
 13 H      0.8552     1.0000     0.1448     0.9582     0.9582     0.0000
 14 H      0.8036     1.0000     0.1964     0.9558     0.9558    -0.0000
 15 H      0.8413     1.0000     0.1587     0.9508     0.9508    -0.0000
 16 H      0.8413     1.0000     0.1587     0.9508     0.9508    -0.0000
 17 H      0.8325     1.0000     0.1675     0.9677     0.9677    -0.0000
 18 H      0.8348     1.0000     0.1652     0.9658     0.9658     0.0000
 19 H      0.8266     1.0000     0.1734     0.9619     0.9619    -0.0000

  Mayer bond orders larger than 0.100000
B(  0-C ,  1-N ) :   0.9132 B(  0-C , 12-H ) :   0.9521 B(  0-C , 13-H ) :   0.9521 
B(  0-C , 14-H ) :   0.9554 B(  1-N ,  2-C ) :   1.0980 B(  1-N ,  3-C ) :  -0.1138 
B(  1-N , 10-C ) :   1.1223 B(  2-C ,  3-C ) :   0.8959 B(  2-C , 15-H ) :   0.9223 
B(  2-C , 16-H ) :   0.9223 B(  3-C ,  4-C ) :   1.3421 B(  3-C ,  9-C ) :   1.3769 
B(  4-C ,  5-C ) :   1.4189 B(  4-C , 17-H ) :   0.9049 B(  5-C ,  6-Br) :   0.9858 
B(  5-C ,  7-C ) :   1.3827 B(  7-C ,  8-C ) :   1.3603 B(  7-C , 18-H ) :   0.9437 
B(  8-C ,  9-C ) :   1.3711 B(  8-C , 19-H ) :   0.9521 B(  9-C , 10-C ) :   0.9260 
B(  9-C , 11-O ) :  -0.1177 B( 10-C , 11-O ) :   2.0101 

-------
TIMINGS
-------

Total SCF time: 0 days 0 hours 0 min 6 sec 

Total time                  ....       6.125 sec
Sum of individual times     ....       5.631 sec  ( 91.9%)

Fock matrix formation       ....       4.573 sec  ( 74.7%)
  Split-RI-J                ....       1.156 sec  ( 25.3% of F)
  XC integration            ....       2.970 sec  ( 64.9% of F)
    Basis function eval.    ....       0.435 sec  ( 14.6% of XC)
    Density eval.           ....       0.914 sec  ( 30.8% of XC)
    XC-Functional eval.     ....       0.314 sec  ( 10.6% of XC)
    XC-Potential eval.      ....       1.014 sec  ( 34.1% of XC)
Diagonalization             ....       0.184 sec  (  3.0%)
Density matrix formation    ....       0.013 sec  (  0.2%)
Population analysis         ....       0.019 sec  (  0.3%)
Initial guess               ....       0.072 sec  (  1.2%)
Orbital Transformation      ....       0.000 sec  (  0.0%)
Orbital Orthonormalization  ....       0.000 sec  (  0.0%)
DIIS solution               ....       0.064 sec  (  1.1%)
SOSCF solution              ....       0.145 sec  (  2.4%)
Grid generation             ....       0.560 sec  (  9.1%)

Maximum memory used throughout the entire SCF-calculation: 39.1 MB


-------------------------------------------------------------------------------
                          DFT DISPERSION CORRECTION                            
                                                                               
                                 DFTD4 V2.5                                    
-------------------------------------------------------------------------------
The R2SCAN3C composite method is recognized
Using three-body term ABC
Active option DFTDOPT                   ...         5   

Starting D4
-------------------------   ----------------
Dispersion correction           -0.008312761
-------------------------   ----------------

------------------   -----------------
gCP correction             0.012312979
------------------   -----------------

-------------------------   --------------------
FINAL SINGLE POINT ENERGY     -3051.808326168735
-------------------------   --------------------



           ************************************************************
           *        Program running with 16 parallel MPI-processes    *
           *              working on a common directory               *
           ************************************************************
------------------------------------------------------------------------------
                         ORCA SCF GRADIENT CALCULATION
------------------------------------------------------------------------------

Gradient of the Kohn-Sham DFT energy:
Kohn-Sham wavefunction type      ... RKS
Hartree-Fock exchange scaling    ...    0.000
Number of operators              ...    1
Number of atoms                  ...   20
Basis set dimensions             ...  295
Integral neglect threshold       ... 2.5e-11
Integral primitive cutoff        ... 2.5e-12
SHARK Integral package           ... ON

Nuc. rep. gradient       (SHARK) ... done (  0.0 sec)
HCore & Overlap gradient (SHARK) ... done (  0.0 sec)
RI-J gradient            (SHARK) ... done (  0.2 sec)
Exchange-correlation gradient    ... done
Dispersion correction            ... Starting D4
Starting D4
Starting D4
Starting D4


------------------- 
Dispersion Gradient 
------------------- 
   1  :    0.000104435   -0.000035534   -0.000000004
   2  :    0.000111199   -0.000037710    0.000000001
   3  :    0.000041549   -0.000096323    0.000000002
   4  :   -0.000002465   -0.000029250    0.000000004
   5  :   -0.000088790   -0.000059722    0.000000002
   6  :   -0.000112385    0.000007513   -0.000000000
   7  :   -0.000228225   -0.000036266   -0.000000002
   8  :   -0.000088945    0.000072855   -0.000000002
   9  :   -0.000026335    0.000116561   -0.000000001
  10  :    0.000019026    0.000041221    0.000000003
  11  :    0.000097117    0.000058228    0.000000006
  12  :    0.000082769    0.000086602   -0.000000000
  13  :    0.000040690   -0.000022233   -0.000016459
  14  :    0.000040691   -0.000022234    0.000016453
  15  :    0.000042501    0.000005314   -0.000000001
  16  :    0.000014358   -0.000047266   -0.000021931
  17  :    0.000014358   -0.000047266    0.000021932
  18  :   -0.000034708   -0.000045005    0.000000001
  19  :   -0.000030393    0.000035686   -0.000000001
  20  :    0.000000421    0.000058446   -0.000000001

  |G| =    0.002259399

Starting D4
Starting D4
Starting D4
Starting D4
Starting D4
Starting D4
Starting D4
Starting D4
Starting D4
Starting D4
Starting D4
Starting D4
done
gCP correction                   ... done

------------------
CARTESIAN GRADIENT
------------------

   1   C   :    0.000651005    0.000399114   -0.000002174
   2   N   :   -0.000028574    0.003486982   -0.000007207
   3   C   :    0.002221124   -0.002483353   -0.000003690
   4   C   :   -0.000164666    0.003054549    0.000001480
   5   C   :   -0.000414690    0.002858973    0.000001212
   6   C   :   -0.002720675   -0.000889574    0.000000218
   7   Br  :    0.006233987    0.001162011   -0.000000208
   8   C   :    0.001095284   -0.001520523    0.000001057
   9   C   :    0.000164569   -0.000798938   -0.000003119
  10   C   :   -0.006615539   -0.000488190   -0.000011223
  11   C   :    0.012773921    0.003560188    0.000033019
  12   O   :   -0.010577318   -0.013802268   -0.000011423
  13   H   :   -0.001455576    0.002050504    0.002788315
  14   H   :   -0.001457106    0.002051454   -0.002787690
  15   H   :   -0.002231409   -0.002498288    0.000000398
  16   H   :    0.000464863    0.002894740    0.003250566
  17   H   :    0.000465944    0.002896001   -0.003249956
  18   H   :    0.000688457    0.002653822   -0.000000206
  19   H   :    0.001558961   -0.002137411    0.000000388
  20   H   :   -0.000655692   -0.002446172    0.000000241

Difference to translation invariance:
           :   -0.0000031318    0.0000036201   -0.0000000003

Difference to rotation invariance:
           :    0.0000001388   -0.0000000344   -0.0000065283

Norm of the cartesian gradient     ...    0.0267403041
RMS gradient                       ...    0.0034521584
MAX gradient                       ...    0.0138022684

-------
[...]
     31      -0.023487  -0.011564   0.013005  -0.635167   0.001593  -0.002822
     32      -0.000007  -0.000007   0.000002   0.000086  -0.000000  -0.000000
     33      -0.015466  -0.023791   0.025395   0.286584  -0.000149   0.000425
     34      -0.013578  -0.015905   0.013299   0.365516  -0.000318   0.000573
     35       0.000003   0.000004  -0.000004  -0.000074   0.000000  -0.000000
     36       0.263165   0.005400   0.013447   0.194230   0.022166   0.129599
     37      -0.405596   0.000642   0.002135  -0.016291  -0.067074  -0.341701
     38       0.343675   0.006274  -0.003343   0.067859  -0.104707  -0.534005
     39       0.263133   0.005400   0.013453   0.194236   0.022179   0.129655
     40      -0.405536   0.000645   0.002133  -0.016271  -0.067090  -0.341765
     41      -0.343796  -0.006273   0.003340  -0.067882   0.104684   0.533861
     42      -0.173988   0.006378  -0.006211   0.028582   0.036867   0.203805
     43       0.126299  -0.008819   0.000853  -0.079429   0.055045   0.289524
     44       0.000024  -0.000001  -0.000000  -0.000009   0.000003   0.000017
     45      -0.127801  -0.157403  -0.017855  -0.078280  -0.014426  -0.000629
     46      -0.258456   0.069625  -0.063248  -0.024262   0.390291  -0.075052
     47       0.181881  -0.049498   0.042657   0.041985   0.572044  -0.108267
     48      -0.127805  -0.157396  -0.017873  -0.078303  -0.014444  -0.000626
     49      -0.258444   0.069613  -0.063246  -0.024287   0.390213  -0.075021
     50      -0.181892   0.049508  -0.042661  -0.041986  -0.571867   0.108211
     51      -0.023993  -0.090496  -0.382547   0.035252   0.000414   0.000147
     52       0.004630   0.244846   0.109139  -0.017247  -0.004453   0.001424
     53      -0.000001  -0.000003   0.000001  -0.000002  -0.000000   0.000000
     54      -0.020558  -0.329360   0.131486  -0.039373  -0.000400   0.000306
     55      -0.017714  -0.280020  -0.088533  -0.016116   0.000741  -0.000526
     56       0.000001   0.000012   0.000008   0.000006   0.000000   0.000000
     57      -0.026546   0.097230   0.444252  -0.039710  -0.000084  -0.000100
     58       0.003449  -0.231339  -0.047107  -0.029164   0.000406  -0.000915
     59      -0.000002   0.000012   0.000035  -0.000014   0.000000   0.000000
                 54         55         56         57         58         59    
      0      -0.000001   0.000008   0.037218  -0.000071   0.000056  -0.000089
      1       0.000001  -0.000011   0.083441  -0.000110  -0.000028  -0.000033
      2      -0.002832   0.093891   0.000006  -0.000000   0.000000   0.000000
      3       0.000000   0.000000   0.000260   0.000099  -0.000180   0.000121
      4       0.000001  -0.000000   0.000561  -0.000053   0.000118  -0.000032
      5       0.000562  -0.000613  -0.000000  -0.000000   0.000000  -0.000000
      6      -0.000003  -0.000000  -0.000496  -0.000032  -0.000081   0.000006
      7       0.000012   0.000000   0.000019  -0.000129  -0.000365   0.000096
      8      -0.094023  -0.003503   0.000000  -0.000000   0.000000   0.000000
      9       0.000000  -0.000000  -0.000006   0.001096   0.003435  -0.000086
     10       0.000000   0.000000   0.000005   0.000572   0.000018   0.000350
     11      -0.000701  -0.000126   0.000000   0.000000   0.000000  -0.000000
     12      -0.000000   0.000000  -0.000005  -0.006131  -0.028016   0.000475
     13      -0.000000  -0.000000  -0.000017  -0.018408  -0.080441   0.003115
     14       0.000320  -0.000012   0.000000   0.000000   0.000001  -0.000000
     15      -0.000000  -0.000000  -0.000004  -0.001310  -0.002851   0.001998
     16       0.000000  -0.000000   0.000002   0.000105   0.002120   0.002873
     17       0.000067   0.000006  -0.000000   0.000000  -0.000000  -0.000000
     18      -0.000000  -0.000000  -0.000005   0.000035   0.000049  -0.000060
     19      -0.000000  -0.000000   0.000008   0.000012   0.000020  -0.000001
     20       0.000004   0.000012   0.000000  -0.000000   0.000000  -0.000000
     21       0.000000  -0.000000   0.000022  -0.018193   0.006568   0.055830
     22      -0.000000   0.000000  -0.000027   0.023979  -0.006998  -0.059577
     23      -0.000056   0.000017   0.000000  -0.000001   0.000000   0.000003
     24       0.000000  -0.000000  -0.000025  -0.024515   0.005139  -0.013596
     25       0.000000   0.000000  -0.000120  -0.074322   0.015985  -0.031936
     26      -0.000076   0.000011  -0.000000   0.000001  -0.000000   0.000000
     27      -0.000000   0.000000   0.000040  -0.001875   0.000485  -0.001191
     28      -0.000000  -0.000000  -0.000083   0.001688   0.000559   0.001319
     29      -0.000219   0.000019  -0.000000  -0.000000  -0.000000  -0.000000
     30       0.000000   0.000000   0.000603  -0.000520   0.000252  -0.000317
     31      -0.000000   0.000000   0.000155  -0.000601   0.000075  -0.000277
     32      -0.000543   0.000594  -0.000000   0.000000   0.000000   0.000000
     33       0.000000  -0.000000  -0.000331   0.000208  -0.000127   0.000117
     34       0.000000  -0.000000   0.000020   0.000310  -0.000086   0.000149
     35      -0.000043  -0.000110   0.000000  -0.000000   0.000000  -0.000000
     36      -0.007332   0.139067   0.050446   0.000074  -0.000138   0.000167
     37       0.013014  -0.393228  -0.120075  -0.000013   0.000250  -0.000205
     38       0.018457  -0.566400  -0.204558   0.000089   0.000327  -0.000226
     39       0.007341  -0.139156   0.050474   0.000074  -0.000138   0.000167
     40      -0.013033   0.393377  -0.120119  -0.000013   0.000250  -0.000205
     41       0.018477  -0.566362   0.204534  -0.000089  -0.000327   0.000226
     42       0.000005  -0.000013  -0.542532   0.000732  -0.000278   0.000410
     43       0.000007  -0.000023  -0.761368   0.001116  -0.000242   0.000743
     44       0.000514   0.020952  -0.000042   0.000000  -0.000000  -0.000000
     45      -0.021483  -0.003322  -0.000927  -0.000059  -0.001563  -0.000068
     46       0.422083   0.012878  -0.001135   0.000239   0.002080  -0.000597
     47       0.562358   0.019050  -0.001713   0.000417   0.002016  -0.000531
     48       0.021510   0.003324  -0.000927  -0.000059  -0.001563  -0.000068
     49      -0.422236  -0.012880  -0.001135   0.000239   0.002081  -0.000597
     50       0.562504   0.019050   0.001713  -0.000417  -0.002017   0.000531
     51       0.000000   0.000000   0.000012   0.073425   0.322805  -0.010869
     52       0.000002   0.000000   0.000165   0.208944   0.915228  -0.031724
     53      -0.001345  -0.000094   0.000000  -0.000001  -0.000006   0.000000
     54      -0.000000   0.000000  -0.000029   0.242797  -0.077657  -0.624868
     55       0.000000  -0.000000   0.000090  -0.268198   0.084490   0.677869
     56      -0.000249   0.000025  -0.000000   0.000012  -0.000004  -0.000030
     57      -0.000000   0.000000   0.000471   0.289861  -0.061923   0.123603
     58      -0.000000   0.000000   0.001379   0.853599  -0.182958   0.354588
     59       0.000298   0.000008  -0.000000  -0.000009   0.000002  -0.000004


-----------
IR SPECTRUM
-----------

 Mode   freq       eps      Int      T**2         TX        TY        TZ
       cm**-1   L/(mol*cm) km/mol    a.u.
----------------------------------------------------------------------------
  6:     62.80   0.000006    0.03  0.000031  ( 0.000004 -0.000002 -0.005580)
  7:    103.26   0.000704    3.56  0.002127  (-0.000000  0.000011 -0.046120)
  8:    128.80   0.000552    2.79  0.001337  (-0.000004  0.000003  0.036563)
  9:    156.66   0.000355    1.80  0.000708  (-0.025285  0.008266 -0.000004)
 10:    163.47   0.000002    0.01  0.000003  (-0.000022  0.000013 -0.001755)
 11:    229.72   0.001102    5.57  0.001497  (-0.000019  0.000002 -0.038694)
 12:    239.14   0.000060    0.30  0.000078  ( 0.007398  0.004856 -0.000002)
 13:    264.11   0.000004    0.02  0.000005  (-0.000004 -0.000008 -0.002193)
 14:    292.64   0.000650    3.28  0.000693  ( 0.012244 -0.023306 -0.000008)
 15:    341.96   0.003171   16.02  0.002893  ( 0.052032 -0.013643 -0.000003)
 16:    418.25   0.000986    4.98  0.000736  (-0.000003 -0.000001  0.027121)
 17:    513.72   0.000044    0.22  0.000026  (-0.002815  0.004302 -0.000005)
 18:    516.71   0.000077    0.39  0.000047  ( 0.000003  0.000003 -0.006826)
 19:    550.08   0.000660    3.34  0.000374  ( 0.018788  0.004626  0.000001)
 20:    626.34   0.001544    7.81  0.000769  (-0.012717 -0.024653 -0.000006)
 21:    665.08   0.002232   11.28  0.001047  (-0.000024  0.000003 -0.032363)
 22:    689.71   0.000684    3.46  0.000309  (-0.017188 -0.003747  0.000005)
 23:    754.71   0.003152   15.93  0.001303  (-0.000010  0.000003 -0.036100)
 24:    781.87   0.000492    2.49  0.000196  (-0.013862 -0.002072 -0.000025)
 25:    839.39   0.004301   21.74  0.001599  ( 0.000001 -0.000003 -0.039990)
 26:    867.65   0.001592    8.04  0.000573  ( 0.000008  0.000006 -0.023927)
 27:    874.28   0.006933   35.04  0.002475  ( 0.049701  0.002130  0.000005)
 28:    953.77   0.002953   14.92  0.000966  (-0.031004 -0.002183 -0.000001)
 29:    966.54   0.000066    0.33  0.000021  ( 0.000001  0.000002  0.004604)
 30:   1002.76   0.000013    0.07  0.000004  ( 0.000006  0.000002 -0.002029)
 31:   1060.77   0.008524   43.07  0.002508  (-0.020417  0.045724 -0.000000)
 32:   1070.70   0.006146   31.06  0.001791  (-0.042212  0.003093  0.000000)
 33:   1131.86   0.002390   12.08  0.000659  (-0.011036  0.023174 -0.000001)
 34:   1139.32   0.000017    0.09  0.000005  ( 0.000003  0.000001 -0.002176)
 35:   1194.36   0.004792   24.22  0.001252  (-0.035360  0.001275 -0.000008)
 36:   1196.80   0.000283    1.43  0.000074  ( 0.000024  0.000001 -0.008594)
 37:   1223.81   0.004162   21.03  0.001061  ( 0.027533 -0.017412 -0.000000)
 38:   1240.02   0.001822    9.21  0.000459  ( 0.007585  0.020024  0.000002)
 39:   1291.69   0.007921   40.03  0.001914  ( 0.038581 -0.020620 -0.000002)
 40:   1297.37   0.002044   10.33  0.000492  ( 0.021982  0.002928 -0.000001)
 41:   1369.78   0.001112    5.62  0.000253  ( 0.009555  0.012729 -0.000001)
 42:   1414.99   0.020185  102.01  0.004452  ( 0.056430 -0.035599 -0.000001)
 43:   1438.39   0.004372   22.09  0.000948  ( 0.030508  0.004216  0.000001)
 44:   1448.02   0.003556   17.97  0.000766  (-0.007553 -0.026631 -0.000001)
 45:   1479.29   0.009376   47.38  0.001978  (-0.044168  0.005196 -0.000000)
 46:   1483.06   0.002272   11.48  0.000478  (-0.000001  0.000001 -0.021864)
 47:   1490.16   0.001788    9.04  0.000374  ( 0.019344 -0.000442  0.000002)
 48:   1518.03   0.003777   19.09  0.000776  ( 0.013258 -0.024508 -0.000001)
 49:   1620.15   0.005806   29.34  0.001118  (-0.031711 -0.010617  0.000000)
 50:   1642.64   0.010143   51.26  0.001927  (-0.043892  0.000577  0.000001)
 51:   1765.15   0.084945  429.28  0.015018  (-0.066661 -0.102829 -0.000002)
 52:   2974.57   0.004618   23.34  0.000485  (-0.009431 -0.019889 -0.000000)
 53:   2990.33   0.015311   77.38  0.001598  (-0.030157  0.026238  0.000004)
 54:   3008.81   0.002045   10.33  0.000212  (-0.000001  0.000008 -0.014562)
 55:   3051.82   0.003838   19.40  0.000392  ( 0.000004 -0.000004  0.019811)
 56:   3121.04   0.000071    0.36  0.000007  ( 0.002574  0.000718  0.000000)
 57:   3186.95   0.000087    0.44  0.000009  ( 0.001610 -0.002432  0.000000)
 58:   3188.83   0.000076    0.38  0.000007  (-0.001924 -0.001937  0.000000)
 59:   3203.92   0.000065    0.33  0.000006  ( 0.002025 -0.001480  0.000000)

* The epsilon (eps) is given for a Dirac delta lineshape.
** The dipole moment derivative (T) already includes vibrational overlap.

The first frequency considered to be a vibration is 6
The total number of vibrations considered is 54


--------------------------
THERMOCHEMISTRY AT 298.15K
--------------------------

Temperature         ... 298.15 K
Pressure            ... 1.00 atm
Total Mass          ... 226.07 AMU

Throughout the following assumptions are being made:
  (1) The electronic state is orbitally nondegenerate
  (2) There are no thermally accessible electronically excited states
  (3) Hindered rotations indicated by low frequency modes are not
      treated as such but are treated as vibrations and this may
      cause some error
  (4) All equations used are the standard statistical mechanics
      equations for an ideal gas
  (5) All vibrations are strictly harmonic

freq.      62.80  E(vib)   ...       0.51 
freq.     103.26  E(vib)   ...       0.46 
freq.     128.80  E(vib)   ...       0.43 
freq.     156.66  E(vib)   ...       0.40 
freq.     163.47  E(vib)   ...       0.39 
freq.     229.72  E(vib)   ...       0.32 
freq.     239.14  E(vib)   ...       0.31 
freq.     264.11  E(vib)   ...       0.29 
freq.     292.64  E(vib)   ...       0.27 
freq.     341.96  E(vib)   ...       0.23 
freq.     418.25  E(vib)   ...       0.18 
freq.     513.72  E(vib)   ...       0.13 
freq.     516.71  E(vib)   ...       0.13 
freq.     550.08  E(vib)   ...       0.12 
freq.     626.34  E(vib)   ...       0.09 
freq.     665.08  E(vib)   ...       0.08 
freq.     689.71  E(vib)   ...       0.07 
freq.     754.71  E(vib)   ...       0.06 
freq.     781.87  E(vib)   ...       0.05 
freq.     839.39  E(vib)   ...       0.04 
freq.     867.65  E(vib)   ...       0.04 
freq.     874.28  E(vib)   ...       0.04 
freq.     953.77  E(vib)   ...       0.03 
freq.     966.54  E(vib)   ...       0.03 
freq.    1002.76  E(vib)   ...       0.02 
freq.    1060.77  E(vib)   ...       0.02 
freq.    1070.70  E(vib)   ...       0.02 
freq.    1131.86  E(vib)   ...       0.01 
freq.    1139.32  E(vib)   ...       0.01 
freq.    1194.36  E(vib)   ...       0.01 
freq.    1196.80  E(vib)   ...       0.01 
freq.    1223.81  E(vib)   ...       0.01 
freq.    1240.02  E(vib)   ...       0.01 
freq.    1291.69  E(vib)   ...       0.01 
freq.    1297.37  E(vib)   ...       0.01 
freq.    1369.78  E(vib)   ...       0.01 
freq.    1414.99  E(vib)   ...       0.00 
freq.    1438.39  E(vib)   ...       0.00 
freq.    1448.02  E(vib)   ...       0.00 
freq.    1479.29  E(vib)   ...       0.00 
freq.    1483.06  E(vib)   ...       0.00 
freq.    1490.16  E(vib)   ...       0.00 
freq.    1518.03  E(vib)   ...       0.00 
freq.    1620.15  E(vib)   ...       0.00 
freq.    1642.64  E(vib)   ...       0.00 
freq.    1765.15  E(vib)   ...       0.00 
freq.    2974.57  E(vib)   ...       0.00 
freq.    2990.33  E(vib)   ...       0.00 
freq.    3008.81  E(vib)   ...       0.00 
freq.    3051.82  E(vib)   ...       0.00 
freq.    3121.04  E(vib)   ...       0.00 
freq.    3186.95  E(vib)   ...       0.00 
freq.    3188.83  E(vib)   ...       0.00 
freq.    3203.92  E(vib)   ...       0.00 

------------
INNER ENERGY
------------

The inner energy is: U= E(el) + E(ZPE) + E(vib) + E(rot) + E(trans)
    E(el)   - is the total energy from the electronic structure calculation
              = E(kin-el) + E(nuc-el) + E(el-el) + E(nuc-nuc)
    E(ZPE)  - the the zero temperature vibrational energy from the frequency calculation
    E(vib)  - the the finite temperature correction to E(ZPE) due to population
              of excited vibrational states
    E(rot)  - is the rotational thermal energy
    E(trans)- is the translational thermal energy

Summary of contributions to the inner energy U:
Electronic energy                ...  -3051.80901040 Eh
Zero point energy                ...      0.15091962 Eh      94.70 kcal/mol
Thermal vibrational correction   ...      0.00778189 Eh       4.88 kcal/mol
Thermal rotational correction    ...      0.00141627 Eh       0.89 kcal/mol
Thermal translational correction ...      0.00141627 Eh       0.89 kcal/mol
-----------------------------------------------------------------------
Total thermal energy                  -3051.64747635 Eh


Summary of corrections to the electronic energy:
(perhaps to be used in another calculation)
Total thermal correction                  0.01061443 Eh       6.66 kcal/mol
Non-thermal (ZPE) correction              0.15091962 Eh      94.70 kcal/mol
-----------------------------------------------------------------------
Total correction                          0.16153405 Eh     101.36 kcal/mol


--------
ENTHALPY
--------

The enthalpy is H = U + kB*T
                kB is Boltzmann's constant
Total free energy                 ...  -3051.64747635 Eh 
Thermal Enthalpy correction       ...      0.00094421 Eh       0.59 kcal/mol
-----------------------------------------------------------------------
Total Enthalpy                    ...  -3051.64653214 Eh


Note: Only C1 symmetry has been detected, increase convergence thresholds 
      if your molecule has a higher symmetry. Symmetry factor of 1.0 is   
      used for the rotational entropy correction. 
 

Note: Rotational entropy computed according to Herzberg 
Infrared and Raman Spectra, Chapter V,1, Van Nostrand Reinhold, 1945 
Point Group:  C1, Symmetry Number:   1  
Rotational constants in cm-1:     0.076339     0.009738     0.008665 

Vibrational entropy computed according to the QRRHO of S. Grimme
Chem.Eur.J. 2012 18 9955


-------
ENTROPY
-------

The entropy contributions are T*S = T*(S(el)+S(vib)+S(rot)+S(trans))
     S(el)   - electronic entropy
     S(vib)  - vibrational entropy
     S(rot)  - rotational entropy
     S(trans)- translational entropy
The entropies will be listed as multiplied by the temperature to get
units of energy

Electronic entropy                ...      0.00000000 Eh      0.00 kcal/mol
Vibrational entropy               ...      0.01337710 Eh      8.39 kcal/mol
Rotational entropy                ...      0.01515361 Eh      9.51 kcal/mol
Translational entropy             ...      0.02002645 Eh     12.57 kcal/mol
-----------------------------------------------------------------------
Final entropy term                ...      0.04855717 Eh     30.47 kcal/mol

In case the symmetry of your molecule has not been determined correctly
or in case you have a reason to use a different symmetry number we print 
out the resulting rotational entropy values for sn=1,12 :
 --------------------------------------------------------
|  sn= 1 | S(rot)=       0.01515361 Eh      9.51 kcal/mol|
|  sn= 2 | S(rot)=       0.01449916 Eh      9.10 kcal/mol|
|  sn= 3 | S(rot)=       0.01411633 Eh      8.86 kcal/mol|
|  sn= 4 | S(rot)=       0.01384470 Eh      8.69 kcal/mol|
|  sn= 5 | S(rot)=       0.01363401 Eh      8.56 kcal/mol|
|  sn= 6 | S(rot)=       0.01346187 Eh      8.45 kcal/mol|
|  sn= 7 | S(rot)=       0.01331632 Eh      8.36 kcal/mol|
|  sn= 8 | S(rot)=       0.01319025 Eh      8.28 kcal/mol|
|  sn= 9 | S(rot)=       0.01307904 Eh      8.21 kcal/mol|
|  sn=10 | S(rot)=       0.01297956 Eh      8.14 kcal/mol|
|  sn=11 | S(rot)=       0.01288957 Eh      8.09 kcal/mol|
|  sn=12 | S(rot)=       0.01280741 Eh      8.04 kcal/mol|
 --------------------------------------------------------


-------------------
GIBBS FREE ENERGY
-------------------

The Gibbs free energy is G = H - T*S

Total enthalpy                    ...  -3051.64653214 Eh 
Total entropy correction          ...     -0.04855717 Eh    -30.47 kcal/mol
-----------------------------------------------------------------------
Final Gibbs free energy         ...  -3051.69508930 Eh

For completeness - the Gibbs free energy minus the electronic energy
G-E(el)                           ...      0.11392110 Eh     71.49 kcal/mol


Timings for individual modules:

Sum of individual times         ...      118.122 sec (=   1.969 min)
GTO integral calculation        ...        2.581 sec (=   0.043 min)   2.2 %
SCF iterations                  ...       26.842 sec (=   0.447 min)  22.7 %
SCF Gradient evaluation         ...        5.064 sec (=   0.084 min)   4.3 %
Geometry relaxation             ...        0.131 sec (=   0.002 min)   0.1 %
Analytical frequency calculation...       83.504 sec (=   1.392 min)  70.7 %
                             ****ORCA TERMINATED NORMALLY****
TOTAL RUN TIME: 0 days 0 hours 1 minutes 59 seconds 620 msec
