Job Start Time: Thu Apr 18 14:07:09 MDT 2024
SLURM Job ID: 254456
SLURM Job Name: arbr_14_r2scan3c
SLURM Job Nodes: node11
SLURM Memory / CPU: 8000

                                 *****************
                                 * O   R   C   A *
                                 *****************

                                            #,                                       
                                            ###                                      
                                            ####                                     
                                            #####                                    
                                            ######                                   
                                           ########,                                 
                                     ,,################,,,,,                         
                               ,,#################################,,                 
                          ,,##########################################,,             
                       ,#########################################, ''#####,          
                    ,#############################################,,   '####,        
                  ,##################################################,,,,####,       
                ,###########''''           ''''###############################       
              ,#####''   ,,,,##########,,,,          '''####'''          '####       
            ,##' ,,,,###########################,,,                        '##       
           ' ,,###''''                  '''############,,,                           
         ,,##''                                '''############,,,,        ,,,,,,###''
      ,#''                                            '''#######################'''  
     '                                                          ''''####''''         
             ,#######,   #######,   ,#######,      ##                                
            ,#'     '#,  ##    ##  ,#'     '#,    #''#        ######   ,####,        
            ##       ##  ##   ,#'  ##            #'  '#       #        #'  '#        
            ##       ##  #######   ##           ,######,      #####,   #    #        
            '#,     ,#'  ##    ##  '#,     ,#' ,#      #,         ##   #,  ,#        
             '#######'   ##     ##  '#######'  #'      '#     #####' # '####'        



                  #######################################################
                  #                        -***-                        #
                  #          Department of theory and spectroscopy      #
                  #    Directorship and core code : Frank Neese         #
                  #        Max Planck Institute fuer Kohlenforschung    #
                  #                Kaiser Wilhelm Platz 1               #
                  #                 D-45470 Muelheim/Ruhr               #
                  #                      Germany                        #
                  #                                                     #
                  #                  All rights reserved                #
                  #                        -***-                        #
                  #######################################################


                         Program Version 5.0.3 -  RELEASE  -


 With contributions from (in alphabetic order):
   Daniel Aravena         : Magnetic Suceptibility
   Michael Atanasov       : Ab Initio Ligand Field Theory (pilot matlab implementation)
   Alexander A. Auer      : GIAO ZORA, VPT2 properties, NMR spectrum
   Ute Becker             : Parallelization
   Giovanni Bistoni       : ED, misc. LED, open-shell LED, HFLD
   Martin Brehm           : Molecular dynamics
   Dmytro Bykov           : SCF Hessian
   Vijay G. Chilkuri      : MRCI spin determinant printing, contributions to CSF-ICE
   Dipayan Datta          : RHF DLPNO-CCSD density
   Achintya Kumar Dutta   : EOM-CC, STEOM-CC
   Dmitry Ganyushin       : Spin-Orbit,Spin-Spin,Magnetic field MRCI
   Miquel Garcia          : C-PCM and meta-GGA Hessian, CC/C-PCM, Gaussian charge scheme
   Yang Guo               : DLPNO-NEVPT2, F12-NEVPT2, CIM, IAO-localization
   Andreas Hansen         : Spin unrestricted coupled pair/coupled cluster methods
   Benjamin Helmich-Paris : MC-RPA, TRAH-SCF, COSX integrals
   Lee Huntington         : MR-EOM, pCC
   Robert Izsak           : Overlap fitted RIJCOSX, COSX-SCS-MP3, EOM
   Marcus Kettner         : VPT2
   Christian Kollmar      : KDIIS, OOCD, Brueckner-CCSD(T), CCSD density, CASPT2, CASPT2-K
   Simone Kossmann        : Meta GGA functionals, TD-DFT gradient, OOMP2, MP2 Hessian
   Martin Krupicka        : Initial AUTO-CI
   Lucas Lang             : DCDCAS
   Marvin Lechner         : AUTO-CI (C++ implementation), FIC-MRCC
   Dagmar Lenk            : GEPOL surface, SMD
   Dimitrios Liakos       : Extrapolation schemes; Compound Job, initial MDCI parallelization
   Dimitrios Manganas     : Further ROCIS development; embedding schemes
   Dimitrios Pantazis     : SARC Basis sets
   Anastasios Papadopoulos: AUTO-CI, single reference methods and gradients
   Taras Petrenko         : DFT Hessian,TD-DFT gradient, ASA, ECA, R-Raman, ABS, FL, XAS/XES, NRVS
   Peter Pinski           : DLPNO-MP2, DLPNO-MP2 Gradient
   Christoph Reimann      : Effective Core Potentials
   Marius Retegan         : Local ZFS, SOC
   Christoph Riplinger    : Optimizer, TS searches, QM/MM, DLPNO-CCSD(T), (RO)-DLPNO pert. Triples
   Tobias Risthaus        : Range-separated hybrids, TD-DFT gradient, RPA, STAB
   Michael Roemelt        : Original ROCIS implementation
   Masaaki Saitow         : Open-shell DLPNO-CCSD energy and density
   Barbara Sandhoefer     : DKH picture change effects
   Avijit Sen             : IP-ROCIS
   Kantharuban Sivalingam : CASSCF convergence, NEVPT2, FIC-MRCI
   Bernardo de Souza      : ESD, SOC TD-DFT
   Georgi Stoychev        : AutoAux, RI-MP2 NMR, DLPNO-MP2 response
   Willem Van den Heuvel  : Paramagnetic NMR
   Boris Wezisla          : Elementary symmetry handling
   Frank Wennmohs         : Technical directorship


 We gratefully acknowledge several colleagues who have allowed us to
 interface, adapt or use parts of their codes:
   Stefan Grimme, W. Hujo, H. Kruse, P. Pracht,  : VdW corrections, initial TS optimization,
                  C. Bannwarth, S. Ehlert          DFT functionals, gCP, sTDA/sTD-DF
   Ed Valeev, F. Pavosevic, A. Kumar             : LibInt (2-el integral package), F12 methods
   Garnet Chan, S. Sharma, J. Yang, R. Olivares  : DMRG
   Ulf Ekstrom                                   : XCFun DFT Library
   Mihaly Kallay                                 : mrcc  (arbitrary order and MRCC methods)
   Jiri Pittner, Ondrej Demel                    : Mk-CCSD
   Frank Weinhold                                : gennbo (NPA and NBO analysis)
   Christopher J. Cramer and Donald G. Truhlar   : smd solvation model
   Lars Goerigk                                  : TD-DFT with DH, B97 family of functionals
   V. Asgeirsson, H. Jonsson                     : NEB implementation
   FAccTs GmbH                                   : IRC, NEB, NEB-TS, DLPNO-Multilevel, CI-OPT
                                                   MM, QMMM, 2- and 3-layer-ONIOM, Crystal-QMMM,
                                                   LR-CPCM, SF, NACMEs, symmetry and pop. for TD-DFT,
                                                   nearIR, NL-DFT gradient (VV10), updates on ESD,
                                                   ML-optimized integration grids
   S Lehtola, MJT Oliveira, MAL Marques          : LibXC Library
   Liviu Ungur et al                             : ANISO software


 Your calculation uses the libint2 library for the computation of 2-el integrals
 For citations please refer to: http://libint.valeyev.net

 Your ORCA version has been built with support for libXC version: 5.1.0
 For citations please refer to: https://tddft.org/programs/libxc/

 This ORCA versions uses:
   CBLAS   interface :  Fast vector & matrix operations
   LAPACKE interface :  Fast linear algebra routines
   SCALAPACK package :  Parallel linear algebra routines
   Shared memory     :  Shared parallel matrices
   BLAS/LAPACK       :  OpenBLAS 0.3.15  USE64BITINT DYNAMIC_ARCH NO_AFFINITY Zen SINGLE_THREADED
        Core in use  :  Zen
   Copyright (c) 2011-2014, The OpenBLAS Project


Your calculation utilizes the geometrical counterpoise correction gCP
Please cite in your paper:
H.Kruse, S. Grimme J.Chem.Phys., 136, (2012), 154101 
   

Your calculation utilizes the atom-pairwise dispersion correction
based on tight binding partial charges (D4)
Cite in your paper:
E.Caldeweyher, C.Bannwarth, S.Grimme, J.Chem.Phys., (2017), 147, 034112.
E.Caldeweyher, S.Ehlert, A.Hansen, H.Neugebauer, S.Grimme, J.Chem.Phys., (2018), in progress.
   

================================================================================

----- Orbital basis set information -----
Your calculation utilizes the basis: def2-mTZVPP
   Stefan Grimme, Andreas Hansen, Sebastian Ehlert, and Jan-Michael Mewes 
   J. Chem. Phys. 154, 000000 (2021). DOI: 10.1063/5.0040021

----- AuxJ basis set information -----
Your calculation utilizes the basis: def2-mTZVPP/J
   Stefan Grimme, Andreas Hansen, Sebastian Ehlert, and Jan-Michael Mewes 
   J. Chem. Phys. 154, 000000 (2021). DOI: 10.1063/5.0040021

================================================================================
                                        WARNINGS
                       Please study these warnings very carefully!
================================================================================

Using LibXC functional ID 497 : Re-regularized SCAN exchange by Furness et al
[ 1]  J. W. Furness, A. D. Kaplan, J. Ning, J. P. Perdew, and J. Sun, J. Phys. Chem. Lett. 11, 8208 (2020)
[ 2]  J. W. Furness, A. D. Kaplan, J. Ning, J. P. Perdew, and J. Sun, J. Phys. Chem. Lett. 11, 9248 (2020)
Using LibXC functional ID 498 : Re-regularized SCAN correlation by Furness et al
[ 1]  J. W. Furness, A. D. Kaplan, J. Ning, J. P. Perdew, and J. Sun, J. Phys. Chem. Lett. 11, 8208 (2020)
[ 2]  J. W. Furness, A. D. Kaplan, J. Ning, J. P. Perdew, and J. Sun, J. Phys. Chem. Lett. 11, 9248 (2020)
Using LibXC functional ID 497 : Re-regularized SCAN exchange by Furness et al
[ 1]  J. W. Furness, A. D. Kaplan, J. Ning, J. P. Perdew, and J. Sun, J. Phys. Chem. Lett. 11, 8208 (2020)
[ 2]  J. W. Furness, A. D. Kaplan, J. Ning, J. P. Perdew, and J. Sun, J. Phys. Chem. Lett. 11, 9248 (2020)
Using LibXC functional ID 498 : Re-regularized SCAN correlation by Furness et al
[ 1]  J. W. Furness, A. D. Kaplan, J. Ning, J. P. Perdew, and J. Sun, J. Phys. Chem. Lett. 11, 8208 (2020)
[ 2]  J. W. Furness, A. D. Kaplan, J. Ning, J. P. Perdew, and J. Sun, J. Phys. Chem. Lett. 11, 9248 (2020)

WARNING: Geometry Optimization
  ===> : Switching off AutoStart
         For restart on a previous wavefunction, please use MOREAD

INFO   : the flag for use of the SHARK integral package has been found!

================================================================================
                                       INPUT FILE
================================================================================
NAME = /tmp/254456/arbr_14_r2scan3c.inp
|  1> %maxcore 4000
|  2> %PAL NPROCS 16 END
|  3> ! r2scan-3c opt freq
|  4> 
|  5> # arbr_14_rdkit_conf_1_r2scan3ccreated by GaussianPrep
|  6> 
|  7> * xyz 0 1
|  8> Br  1.776657  -0.006392  0.000004
|  9> C  -0.12749  -0.013383  -0.000027
| 10> C  -0.793528  1.207165  -0.000008
| 11> C  -2.176264  1.170826  0.000003
| 12> C  -2.822229  -0.058113  0.000008
| 13> C  -2.046833  -1.205244  0.000004
| 14> N  -0.713359  -1.185518  -0.000009
| 15> H  -0.243178  2.136197  -0.000003
| 16> H  -2.742135  2.093562  0.000011
| 17> H  -3.900869  -0.127665  0.00002
| 18> H  -2.505238  -2.18727  0.000011
| 19> 
| 20> *
| 21> 
| 22>                          ****END OF INPUT****
================================================================================

                       *****************************
                       * Geometry Optimization Run *
                       *****************************

Geometry optimization settings:
Update method            Update   .... BFGS
Choice of coordinates    CoordSys .... Z-matrix Internals
Initial Hessian          InHess   .... Almoef's Model

Convergence Tolerances:
Energy Change            TolE     ....  5.0000e-06 Eh
Max. Gradient            TolMAXG  ....  3.0000e-04 Eh/bohr
RMS Gradient             TolRMSG  ....  1.0000e-04 Eh/bohr
Max. Displacement        TolMAXD  ....  4.0000e-03 bohr
RMS Displacement         TolRMSD  ....  2.0000e-03 bohr
Strict Convergence                ....  False
------------------------------------------------------------------------------
                        ORCA OPTIMIZATION COORDINATE SETUP
------------------------------------------------------------------------------

The optimization will be done in new redundant internal coordinates
Making redundant internal coordinates   ...  (new redundants) done
Evaluating the initial hessian          ...  (Almloef) done
Evaluating the coordinates              ...  done
Calculating the B-matrix                .... done
Calculating the G-matrix                .... done
Diagonalizing the G-matrix              .... done
The first mode is                       ....   20
The number of degrees of freedom        ....   27

    -----------------------------------------------------------------
                    Redundant Internal Coordinates


    -----------------------------------------------------------------
         Definition                    Initial Value    Approx d2E/dq
    -----------------------------------------------------------------
      1. B(C   1,Br  0)                  1.9042         0.317631   
      2. B(C   2,C   1)                  1.3904         0.623770   
      3. B(C   3,C   2)                  1.3832         0.640569   
      4. B(C   4,C   3)                  1.3884         0.628557   
      5. B(C   5,C   4)                  1.3846         0.637288   
      6. B(N   6,C   5)                  1.3336         0.688377   
      7. B(N   6,C   1)                  1.3104         0.749679   
      8. B(H   7,C   2)                  1.0798         0.373838   
      9. B(H   8,C   3)                  1.0824         0.370257   
     10. B(H   9,C   4)                  1.0809         0.372369   
     11. B(H  10,C   5)                  1.0837         0.368466   
     12. A(Br  0,C   1,N   6)          116.7676         0.422161   
     13. A(Br  0,C   1,C   2)          118.4104         0.411232   
     14. A(C   2,C   1,N   6)          124.8220         0.446749   
     15. A(C   3,C   2,H   7)          122.1475         0.357128   
     16. A(C   1,C   2,H   7)          120.7371         0.355520   
     17. A(C   1,C   2,C   3)          117.1153         0.437102   
     18. A(C   4,C   3,H   8)          120.7535         0.355401   
     19. A(C   2,C   3,C   4)          119.2331         0.437705   
     20. A(C   2,C   3,H   8)          120.0134         0.356545   
     21. A(C   5,C   4,H   9)          120.3671         0.356578   
     22. A(C   3,C   4,H   9)          121.4171         0.355744   
     23. A(C   3,C   4,C   5)          118.2158         0.437300   
     24. A(C   4,C   5,H  10)          120.9206         0.355941   
     25. A(C   4,C   5,N   6)          123.2090         0.441615   
     26. A(N   6,C   5,H  10)          115.8705         0.358406   
     27. A(C   1,N   6,C   5)          117.4048         0.451809   
     28. D(H   7,C   2,C   1,N   6)    179.9987         0.026944   
     29. D(C   3,C   2,C   1,N   6)     -0.0014         0.026944   
     30. D(C   3,C   2,C   1,Br  0)   -179.9984         0.026944   
     31. D(H   7,C   2,C   1,Br  0)      0.0016         0.026944   
     32. D(C   4,C   3,C   2,H   7)   -179.9994         0.028513   
     33. D(H   8,C   3,C   2,C   1)   -179.9996         0.028513   
     34. D(C   4,C   3,C   2,C   1)      0.0006         0.028513   
     35. D(H   8,C   3,C   2,H   7)      0.0004         0.028513   
     36. D(H   9,C   4,C   3,H   8)     -0.0000         0.027385   
     37. D(H   9,C   4,C   3,C   2)    179.9998         0.027385   
     38. D(C   5,C   4,C   3,H   8)   -179.9997         0.027385   
     39. D(C   5,C   4,C   3,C   2)      0.0001         0.027385   
     40. D(H  10,C   5,C   4,C   3)    179.9998         0.028202   
     41. D(N   6,C   5,C   4,H   9)   -179.9999         0.028202   
     42. D(N   6,C   5,C   4,C   3)     -0.0002         0.028202   
     43. D(H  10,C   5,C   4,H   9)      0.0001         0.028202   
     44. D(C   1,N   6,C   5,H  10)    179.9995         0.035374   
     45. D(C   1,N   6,C   5,C   4)     -0.0004         0.035374   
     46. D(C   5,N   6,C   1,C   2)      0.0013         0.042681   
     47. D(C   5,N   6,C   1,Br  0)    179.9983         0.042681   
    -----------------------------------------------------------------

Number of atoms                         .... 11
Number of degrees of freedom            .... 47

         *************************************************************
         *                GEOMETRY OPTIMIZATION CYCLE   1            *
         *************************************************************
---------------------------------
CARTESIAN COORDINATES (ANGSTROEM)
---------------------------------
  Br     1.776657   -0.006392    0.000004
  C     -0.127490   -0.013383   -0.000027
  C     -0.793528    1.207165   -0.000008
  C     -2.176264    1.170826    0.000003
  C     -2.822229   -0.058113    0.000008
  C     -2.046833   -1.205244    0.000004
  N     -0.713359   -1.185518   -0.000009
  H     -0.243178    2.136197   -0.000003
  H     -2.742135    2.093562    0.000011
  H     -3.900869   -0.127665    0.000020
  H     -2.505238   -2.187270    0.000011

----------------------------
CARTESIAN COORDINATES (A.U.)
----------------------------
  NO LB      ZA    FRAG     MASS         X           Y           Z
   0 Br   35.0000    0    79.900    3.357395   -0.012079    0.000008
   1 C     6.0000    0    12.011   -0.240921   -0.025290   -0.000051
   2 C     6.0000    0    12.011   -1.499551    2.281211   -0.000015
   3 C     6.0000    0    12.011   -4.112543    2.212540    0.000006
   4 C     6.0000    0    12.011   -5.333240   -0.109818    0.000015
   5 C     6.0000    0    12.011   -3.867954   -2.277581    0.000008
   6 N     7.0000    0    14.007   -1.348053   -2.240304   -0.000017
   7 H     1.0000    0     1.008   -0.459540    4.036827   -0.000006
   8 H     1.0000    0     1.008   -5.181884    3.956259    0.000021
   9 H     1.0000    0     1.008   -7.371574   -0.241252    0.000038
  10 H     1.0000    0     1.008   -4.734214   -4.133341    0.000021

--------------------------------
INTERNAL COORDINATES (ANGSTROEM)
--------------------------------
 Br     0   0   0     0.000000000000     0.00000000     0.00000000
 C      1   0   0     1.904159833798     0.00000000     0.00000000
 C      2   1   0     1.390447423713   118.41039490     0.00000000
 C      3   2   1     1.383213421254   117.11533767   180.00159502
 C      4   3   2     1.388366611155   119.23309734     0.00000000
 C      5   4   3     1.384611312966   118.21583790     0.00000000
 N      2   1   3     1.310398009656   116.76764647   180.00274672
 H      3   2   1     1.079808121635   120.73713704     0.00000000
 H      4   3   2     1.082428618617   120.01343418   180.00042046
 H      5   4   3     1.080880072186   121.41707476   179.99978733
 H      6   5   4     1.083748222029   120.92058025   179.99979245

---------------------------
INTERNAL COORDINATES (A.U.)
---------------------------
 Br     0   0   0     0.000000000000     0.00000000     0.00000000
 C      1   0   0     3.598340601092     0.00000000     0.00000000
 C      2   1   0     2.627564834433   118.41039490     0.00000000
 C      3   2   1     2.613894550935   117.11533767   180.00159502
 C      4   3   2     2.623632668564   119.23309734     0.00000000
 C      5   4   3     2.616536183435   118.21583790     0.00000000
 N      2   1   3     2.476293364685   116.76764647   180.00274672
 H      3   2   1     2.040541627074   120.73713704     0.00000000
 H      4   3   2     2.045493648705   120.01343418   180.00042046
 H      5   4   3     2.042567320044   121.41707476   179.99978733
 H      6   5   4     2.047987337758   120.92058025   179.99979245

---------------------
BASIS SET INFORMATION
---------------------
There are 4 groups of distinct atoms

 Group   1 Type Br  : 17s13p7d contracted to 6s5p3d pattern {842111/64111/511}
 Group   2 Type C   : 11s6p1d contracted to 5s3p1d pattern {62111/411/1}
 Group   3 Type N   : 11s6p2d contracted to 5s3p2d pattern {62111/411/11}
 Group   4 Type H   : 4s1p contracted to 2s1p pattern {31/1}

Atom   0Br   basis set group =>   1
Atom   1C    basis set group =>   2
Atom   2C    basis set group =>   2
Atom   3C    basis set group =>   2
Atom   4C    basis set group =>   2
Atom   5C    basis set group =>   2
Atom   6N    basis set group =>   3
Atom   7H    basis set group =>   4
Atom   8H    basis set group =>   4
Atom   9H    basis set group =>   4
Atom  10H    basis set group =>   4
---------------------------------
AUXILIARY/J BASIS SET INFORMATION
---------------------------------
There are 4 groups of distinct atoms

 Group   1 Type Br  : 19s5p5d3f1g contracted to 8s4p3d2f1g pattern {121111111/2111/311/21/1}
 Group   2 Type C   : 8s3p3d contracted to 6s3p3d pattern {311111/111/111}
 Group   3 Type N   : 8s3p3d contracted to 6s3p3d pattern {311111/111/111}
 Group   4 Type H   : 5s2p1d contracted to 3s1p1d pattern {311/2/1}

Atom   0Br   basis set group =>   1
Atom   1C    basis set group =>   2
Atom   2C    basis set group =>   2
Atom   3C    basis set group =>   2
Atom   4C    basis set group =>   2
Atom   5C    basis set group =>   2
Atom   6N    basis set group =>   3
Atom   7H    basis set group =>   4
Atom   8H    basis set group =>   4
Atom   9H    basis set group =>   4
Atom  10H    basis set group =>   4


           ************************************************************
           *        Program running with 16 parallel MPI-processes    *
           *              working on a common directory               *
           ************************************************************
------------------------------------------------------------------------------
                           ORCA GTO INTEGRAL CALCULATION
                           -- RI-GTO INTEGRALS CHOSEN --
------------------------------------------------------------------------------
------------------------------------------------------------------------------
                   ___                                                        
                  /   \      - P O W E R E D   B Y -                         
                 /     \                                                     
                 |  |  |   _    _      __       _____    __    __             
                 |  |  |  | |  | |    /  \     |  _  \  |  |  /  |          
                  \  \/   | |  | |   /    \    | | | |  |  | /  /          
                 / \  \   | |__| |  /  /\  \   | |_| |  |  |/  /          
                |  |  |   |  __  | /  /__\  \  |    /   |      \           
                |  |  |   | |  | | |   __   |  |    \   |  |\   \          
                \     /   | |  | | |  |  |  |  | |\  \  |  | \   \       
                 \___/    |_|  |_| |__|  |__|  |_| \__\ |__|  \__/        
                                                                              
                      - O R C A' S   B I G   F R I E N D -                    
                                      &                                       
                       - I N T E G R A L  F E E D E R -                       
                                                                              
 v1 FN, 2020, v2 2021                                                         
------------------------------------------------------------------------------


Reading SHARK input file /tmp/254456/arbr_14_r2scan3c.SHARKINP.tmp ... ok
----------------------
SHARK INTEGRAL PACKAGE
----------------------

Number of atoms                             ...     11
Number of basis functions                   ...    175
Number of shells                            ...     81
Maximum angular momentum                    ...      2
Integral batch strategy                     ... SHARK/LIBINT Hybrid
RI-J (if used) integral strategy            ... SPLIT-RIJ (Revised 2003 algorithm where possible)
Printlevel                                  ...      1
Contraction scheme used                     ... SEGMENTED contraction
Coulomb Range Separation                    ... NOT USED
Exchange Range Separation                   ... NOT USED
Finite Nucleus Model                        ... NOT USED
Auxiliary Coulomb fitting basis             ... AVAILABLE
   # of basis functions in Aux-J            ...    282
   # of shells in Aux-J                     ...    110
   Maximum angular momentum in Aux-J        ...      4
Auxiliary J/K fitting basis                 ... NOT available
Auxiliary Correlation fitting basis         ... NOT available
Auxiliary 'external' fitting basis          ... NOT available
Integral threshold                          ...     2.500000e-11
Primitive cut-off                           ...     2.500000e-12
Primitive pair pre-selection threshold      ...     2.500000e-12

Calculating pre-screening integrals         ... done (  0.0 sec) Dimension = 81
Organizing shell pair data                  ... done (  0.0 sec)
Shell pair information
Total number of shell pairs                 ...      3321
Shell pairs after pre-screening             ...      3027
Total number of primitive shell pairs       ...     14071
Primitive shell pairs kept                  ...      9053
          la=0 lb=0:    869 shell pairs
          la=1 lb=0:   1093 shell pairs
          la=1 lb=1:    358 shell pairs
          la=2 lb=0:    402 shell pairs
          la=2 lb=1:    254 shell pairs
          la=2 lb=2:     51 shell pairs

Calculating one electron integrals          ... done (  0.0 sec)
Calculating RI/J V-Matrix + Cholesky decomp.... done (  0.0 sec)
Calculating Nuclear repulsion               ... done (  0.0 sec) ENN=    438.415290545847 Eh

SHARK setup successfully completed in   0.1 seconds

Maximum memory used throughout the entire GTOINT-calculation: 16.2 MB


           ************************************************************
           *        Program running with 16 parallel MPI-processes    *
           *              working on a common directory               *
           ************************************************************
-------------------------------------------------------------------------------
                                 ORCA SCF
-------------------------------------------------------------------------------

------------
SCF SETTINGS
------------
Hamiltonian:
 Density Functional     Method          .... DFT(GTOs)
  Functional kind                       .... Exchange
  Functional name                       .... Re-regularized SCAN exchange by Furness et al
  Functional family                     .... MGGA
  Functional refs                              
    [ 0] J. W. Furness, A. D. Kaplan, J. Ning, J. P. Perdew, and J. Sun, J. Phys. Chem. Lett. 11, 8208 (2020)
    [ 1] J. W. Furness, A. D. Kaplan, J. Ning, J. P. Perdew, and J. Sun, J. Phys. Chem. Lett. 11, 9248 (2020)
  Functional external parameters         .... 8
 Parameter  0 :         c1 parameter
 Parameter  1 :         c2 parameter
 Parameter  2 :          d parameter
 Parameter  3 :         k1 parameter
 Parameter  4 :       taur parameter
 Parameter  5 :     alphar parameter
 Parameter  6 :        eta parameter
 Parameter  7 :        dp2 parameter
  Functional kind                       .... Correlation
  Functional name                       .... Re-regularized SCAN correlation by Furness et al
  Functional family                     .... MGGA
  Functional refs                              
    [ 0] J. W. Furness, A. D. Kaplan, J. Ning, J. P. Perdew, and J. Sun, J. Phys. Chem. Lett. 11, 8208 (2020)
    [ 1] J. W. Furness, A. D. Kaplan, J. Ning, J. P. Perdew, and J. Sun, J. Phys. Chem. Lett. 11, 9248 (2020)
  Functional external parameters         .... 0
 Gradients option       PostSCFGGA      .... off
   Density functional embedding theory  .... OFF
 RI-approximation to the Coulomb term is turned on
   Number of AuxJ basis functions       .... 282


General Settings:
 Integral files         IntName         .... /tmp/254456/arbr_14_r2scan3c
 Hartree-Fock type      HFTyp           .... RHF
 Total Charge           Charge          ....    0
 Multiplicity           Mult            ....    1
 Number of Electrons    NEL             ....   76
 Basis Dimension        Dim             ....  175
 Nuclear Repulsion      ENuc            ....    438.4152905458 Eh

Convergence Acceleration:
 DIIS                   CNVDIIS         .... on
   Start iteration      DIISMaxIt       ....    12
   Startup error        DIISStart       ....  0.200000
   # of expansion vecs  DIISMaxEq       ....     5
   Bias factor          DIISBfac        ....   1.050
   Max. coefficient     DIISMaxC        ....  10.000
 Trust-Rad. Augm. Hess. CNVTRAH         .... auto
   Auto Start mean grad. ratio tolernc. ....  1.125000
   Auto Start start iteration           ....    20
   Auto Start num. interpolation iter.  ....    10
   Max. Number of Micro iterations      ....    16
   Max. Number of Macro iterations      .... Maxiter - #DIIS iter
   Number of Davidson start vectors     ....     2
   Converg. threshold I  (grad. norm)   ....   1.000e-05
   Converg. threshold II (energy diff.) ....   1.000e-08
   Grad. Scal. Fac. for Micro threshold ....   0.100
   Minimum threshold for Micro iter.    ....   0.010
   NR start threshold (gradient norm)   ....   0.001
   Initial trust radius                 ....   0.400
   Minimum AH scaling param. (alpha)    ....   1.000
   Maximum AH scaling param. (alpha)    .... 1000.000
   Orbital update algorithm             .... Taylor
   White noise on init. David. guess    .... on
   Maximum white noise                  ....   0.010
   Quad. conv. algorithm                .... NR
   COSX micro iterations for RIJONX calc.... off
 SOSCF                  CNVSOSCF        .... on
   Start iteration      SOSCFMaxIt      ....   150
   Startup grad/error   SOSCFStart      ....  0.003300
 Level Shifting         CNVShift        .... on
   Level shift para.    LevelShift      ....    0.2500
   Turn off err/grad.   ShiftErr        ....    0.0010
 Zerner damping         CNVZerner       .... off
 Static damping         CNVDamp         .... on
   Fraction old density DampFac         ....    0.7000
   Max. Damping (<1)    DampMax         ....    0.9800
   Min. Damping (>=0)   DampMin         ....    0.0000
   Turn off err/grad.   DampErr         ....    0.1000
 Fernandez-Rico         CNVRico         .... off

SCF Procedure:
 Maximum # iterations   MaxIter         ....   125
 SCF integral mode      SCFMode         .... Direct
   Integral package                     .... SHARK and LIBINT hybrid scheme
 Reset frequency        DirectResetFreq ....    20
 Integral Threshold     Thresh          ....  2.500e-11 Eh
 Primitive CutOff       TCut            ....  2.500e-12 Eh

Convergence Tolerance:
 Convergence Check Mode ConvCheckMode   .... Total+1el-Energy
 Convergence forced     ConvForced      .... 0
 Energy Change          TolE            ....  1.000e-08 Eh
 1-El. energy change                    ....  1.000e-05 Eh
 Orbital Gradient       TolG            ....  1.000e-05
 Orbital Rotation angle TolX            ....  1.000e-05
 DIIS Error             TolErr          ....  5.000e-07


Diagonalization of the overlap matrix:
Smallest eigenvalue                        ... 8.697e-05
Time for diagonalization                   ...    0.004 sec
Threshold for overlap eigenvalues          ... 1.000e-08
Number of eigenvalues below threshold      ... 0
Time for construction of square roots      ...    0.002 sec
Total time needed                          ...    0.011 sec

Time for model grid setup =    0.058 sec

------------------------------
INITIAL GUESS: MODEL POTENTIAL
------------------------------
Loading Hartree-Fock densities                     ... done
Calculating cut-offs                               ... done
Initializing the effective Hamiltonian             ... done
Setting up the integral package (SHARK)            ... done
Starting the Coulomb interaction                   ... done (   0.0 sec)
Reading the grid                                   ... done
Mapping shells                                     ... done
Starting the XC term evaluation                    ... done (   0.0 sec)
  promolecular density results
     # of electrons  =     75.997773904
     EX              =   -122.571493720
     EC              =     -3.082399961
     EX+EC           =   -125.653893680
Transforming the Hamiltonian                       ... done (   0.1 sec)
Diagonalizing the Hamiltonian                      ... done (   0.0 sec)
Back transforming the eigenvectors                 ... done (   0.0 sec)
Now organizing SCF variables                       ... done
                      ------------------
                      INITIAL GUESS DONE (   0.2 sec)
                      ------------------
-------------------
DFT GRID GENERATION
-------------------

General Integration Accuracy     IntAcc      ... 4.388
Radial Grid Type                 RadialGrid  ... OptM3 with GC (2021)
Angular Grid (max. ang.)         AngularGrid ... 4 (Lebedev-302)
Angular grid pruning method      GridPruning ... 4 (adaptive)
Weight generation scheme         WeightScheme... Becke
Basis function cutoff            BFCut       ... 1.0000e-11
Integration weight cutoff        WCut        ... 1.0000e-14
Angular grids for H and He will be reduced by one unit
Partially contracted basis set               ... off
Rotationally invariant grid construction     ... off

Total number of grid points                  ...    60368
Total number of batches                      ...      949
Average number of points per batch           ...       63
Average number of grid points per atom       ...     5488
Time for grid setup =    0.304 sec

--------------
SCF ITERATIONS
--------------
ITER       Energy         Delta-E        Max-DP      RMS-DP      [F,P]     Damp
               ***  Starting incremental Fock matrix formation  ***
  0  -2821.6213725463   0.000000000000 0.03809023  0.00147677  0.1932153 0.7000
  1  -2821.6902551179  -0.068882571620 0.02434451  0.00114606  0.0842506 0.7000
                               ***Turning on DIIS***
  2  -2821.7153010256  -0.025045907690 0.06027968  0.00203300  0.0283299 0.0000
  3  -2821.7515928479  -0.036291822267 0.02391811  0.00096203  0.0443741 0.0000
  4  -2821.7634498339  -0.011856986000 0.01069278  0.00035737  0.0082084 0.0000
  5  -2821.7640495957  -0.000599761804 0.00477584  0.00013685  0.0048496 0.0000
                      *** Initiating the SOSCF procedure ***
                           *** Shutting down DIIS ***
                      *** Re-Reading the Fockian *** 
                      *** Removing any level shift *** 
ITER      Energy       Delta-E        Grad      Rot      Max-DP    RMS-DP
  6  -2821.76413259  -0.0000829973  0.000413  0.000413  0.002038  0.000053
               *** Restarting incremental Fock matrix formation ***
  7  -2821.76413853  -0.0000059351  0.000181  0.000986  0.000787  0.000033
  8  -2821.76413924  -0.0000007104  0.000170  0.000518  0.000538  0.000018
  9  -2821.76413959  -0.0000003547  0.000122  0.000367  0.000363  0.000012
 10  -2821.76413987  -0.0000002773  0.000080  0.000143  0.000153  0.000005
 11  -2821.76413993  -0.0000000555  0.000043  0.000182  0.000112  0.000004
 12  -2821.76413998  -0.0000000543  0.000024  0.000050  0.000086  0.000002
 13  -2821.76413998  -0.0000000040  0.000019  0.000033  0.000029  0.000001
 14  -2821.76413999  -0.0000000041  0.000009  0.000012  0.000080  0.000001
 15  -2821.76414000  -0.0000000075  0.000006  0.000005  0.000038  0.000001
                  ***Gradient check signals convergence***
              ***Rediagonalizing the Fockian in SOSCF/NRSCF***

               *****************************************************
               *                     SUCCESS                       *
               *           SCF CONVERGED AFTER  16 CYCLES          *
               *****************************************************


----------------
TOTAL SCF ENERGY
----------------

Total Energy       :        -2821.76414000 Eh          -76784.10588 eV

Components:
Nuclear Repulsion  :          438.41529055 Eh           11929.88656 eV
Electronic Energy  :        -3260.17943054 Eh          -88713.99244 eV
One Electron Energy:        -4787.49210504 Eh         -130274.28319 eV
Two Electron Energy:         1527.31267449 Eh           41560.29076 eV

Virial components:
Potential Energy   :        -5639.07304537 Eh         -153446.97866 eV
Kinetic Energy     :         2817.30890537 Eh           76662.87278 eV
Virial Ratio       :            2.00158138


DFT components:
N(Alpha)           :       38.000019102914 electrons
N(Beta)            :       38.000019102914 electrons
N(Total)           :       76.000038205827 electrons
E(X)               :     -123.694448933061 Eh       
E(C)               :       -3.060735687967 Eh       
E(XC)              :     -126.755184621028 Eh       
DFET-embed. en.    :        0.000000000000 Eh       

---------------
SCF CONVERGENCE
---------------

  Last Energy change         ...    4.8294e-10  Tolerance :   1.0000e-08
  Last MAX-Density change    ...    1.4992e-05  Tolerance :   1.0000e-07
  Last RMS-Density change    ...    3.9922e-07  Tolerance :   5.0000e-09
  Last Orbital Gradient      ...    1.9423e-06  Tolerance :   1.0000e-05
  Last Orbital Rotation      ...    4.0387e-06  Tolerance :   1.0000e-05

             **** THE GBW FILE WAS UPDATED (/tmp/254456/arbr_14_r2scan3c.gbw) ****
             **** DENSITY /tmp/254456/arbr_14_r2scan3c.scfp WAS UPDATED ****
             **** ENERGY FILE WAS UPDATED (/tmp/254456/arbr_14_r2scan3c.en.tmp) ****
             **** THE GBW FILE WAS UPDATED (/tmp/254456/arbr_14_r2scan3c.gbw) ****
             **** DENSITY /tmp/254456/arbr_14_r2scan3c.scfp WAS UPDATED ****
----------------
ORBITAL ENERGIES
----------------

  NO   OCC          E(Eh)            E(eV) 
   0   2.0000    -482.228624    -13122.1080 
   1   2.0000     -62.300007     -1695.2694 
   2   2.0000     -56.081198     -1526.0470 
   3   2.0000     -56.077450     -1525.9450 
   4   2.0000     -56.077219     -1525.9387 
   5   2.0000     -14.176747      -385.7689 
   6   2.0000     -10.132397      -275.7165 
   7   2.0000     -10.087528      -274.4956 
   8   2.0000     -10.072267      -274.0803 
   9   2.0000     -10.065679      -273.9010 
  10   2.0000     -10.059595      -273.7355 
  11   2.0000      -8.632036      -234.8896 
  12   2.0000      -6.439595      -175.2303 
  13   2.0000      -6.426273      -174.8678 
  14   2.0000      -6.425272      -174.8405 
  15   2.0000      -2.537175       -69.0401 
  16   2.0000      -2.534226       -68.9598 
  17   2.0000      -2.533498       -68.9400 
  18   2.0000      -2.523291       -68.6622 
  19   2.0000      -2.523274       -68.6618 
  20   2.0000      -0.942989       -25.6600 
  21   2.0000      -0.795299       -21.6412 
  22   2.0000      -0.786596       -21.4044 
  23   2.0000      -0.715695       -19.4751 
  24   2.0000      -0.624320       -16.9886 
  25   2.0000      -0.600847       -16.3499 
  26   2.0000      -0.506830       -13.7915 
  27   2.0000      -0.476574       -12.9682 
  28   2.0000      -0.448797       -12.2124 
  29   2.0000      -0.409712       -11.1488 
  30   2.0000      -0.405177       -11.0254 
  31   2.0000      -0.390025       -10.6131 
  32   2.0000      -0.352560        -9.5937 
  33   2.0000      -0.305276        -8.3070 
  34   2.0000      -0.286920        -7.8075 
  35   2.0000      -0.267668        -7.2836 
  36   2.0000      -0.248412        -6.7596 
  37   2.0000      -0.241737        -6.5780 
  38   0.0000      -0.071242        -1.9386 
  39   0.0000      -0.058190        -1.5834 
  40   0.0000      -0.019434        -0.5288 
  41   0.0000       0.079914         2.1746 
  42   0.0000       0.090721         2.4686 
  43   0.0000       0.109822         2.9884 
  44   0.0000       0.117484         3.1969 
  45   0.0000       0.125390         3.4120 
  46   0.0000       0.138008         3.7554 
  47   0.0000       0.167956         4.5703 
  48   0.0000       0.187593         5.1047 
  49   0.0000       0.199473         5.4279 
  50   0.0000       0.211243         5.7482 
  51   0.0000       0.215904         5.8750 
  52   0.0000       0.230689         6.2774 
  53   0.0000       0.239602         6.5199 
  54   0.0000       0.246635         6.7113 
  55   0.0000       0.251134         6.8337 
  56   0.0000       0.258950         7.0464 
  57   0.0000       0.278718         7.5843 
  58   0.0000       0.297445         8.0939 
  59   0.0000       0.305339         8.3087 
  60   0.0000       0.310577         8.4512 
  61   0.0000       0.314345         8.5538 
  62   0.0000       0.331657         9.0249 
  63   0.0000       0.347386         9.4528 
  64   0.0000       0.347669         9.4606 
  65   0.0000       0.380184        10.3453 
  66   0.0000       0.424267        11.5449 
  67   0.0000       0.437039        11.8924 
  68   0.0000       0.457826        12.4581 
  69   0.0000       0.458522        12.4770 
  70   0.0000       0.479251        13.0411 
  71   0.0000       0.485416        13.2088 
  72   0.0000       0.520508        14.1637 
  73   0.0000       0.527944        14.3661 
  74   0.0000       0.536227        14.5915 
  75   0.0000       0.550621        14.9832 
  76   0.0000       0.557692        15.1756 
  77   0.0000       0.591165        16.0864 
  78   0.0000       0.626650        17.0520 
  79   0.0000       0.640170        17.4199 
  80   0.0000       0.654191        17.8014 
  81   0.0000       0.661409        17.9979 
  82   0.0000       0.682941        18.5838 
  83   0.0000       0.693175        18.8622 
  84   0.0000       0.742775        20.2119 
  85   0.0000       0.756165        20.5763 
  86   0.0000       0.768735        20.9183 
  87   0.0000       0.927506        25.2387 
  88   0.0000       0.977629        26.6026 
  89   0.0000       1.061408        28.8824 
  90   0.0000       1.070613        29.1328 
  91   0.0000       1.110908        30.2293 
  92   0.0000       1.148755        31.2592 
  93   0.0000       1.246463        33.9180 
  94   0.0000       1.270916        34.5834 
  95   0.0000       1.293896        35.2087 
  96   0.0000       1.300153        35.3790 
  97   0.0000       1.336528        36.3688 
  98   0.0000       1.348088        36.6833 
  99   0.0000       1.368744        37.2454 
 100   0.0000       1.399444        38.0808 
 101   0.0000       1.408414        38.3249 
 102   0.0000       1.421585        38.6833 
 103   0.0000       1.449413        39.4405 
 104   0.0000       1.451338        39.4929 
 105   0.0000       1.459205        39.7070 
 106   0.0000       1.478628        40.2355 
 107   0.0000       1.490585        40.5609 
 108   0.0000       1.513292        41.1788 
 109   0.0000       1.515482        41.2384 
 110   0.0000       1.526146        41.5285 
 111   0.0000       1.583525        43.0899 
 112   0.0000       1.590105        43.2689 
 113   0.0000       1.612672        43.8830 
 114   0.0000       1.655431        45.0466 
 115   0.0000       1.700324        46.2682 
 116   0.0000       1.743758        47.4501 
 117   0.0000       1.760947        47.9178 
 118   0.0000       1.806270        49.1511 
 119   0.0000       1.894444        51.5504 
 120   0.0000       1.905579        51.8534 
 121   0.0000       2.007705        54.6324 
 122   0.0000       2.019220        54.9458 
 123   0.0000       2.066855        56.2420 
 124   0.0000       2.080074        56.6017 
 125   0.0000       2.100422        57.1554 
 126   0.0000       2.137297        58.1588 
 127   0.0000       2.159516        58.7634 
 128   0.0000       2.167609        58.9836 
 129   0.0000       2.226601        60.5889 
 130   0.0000       2.232197        60.7412 
 131   0.0000       2.248992        61.1982 
 132   0.0000       2.253615        61.3240 
 133   0.0000       2.285777        62.1992 
 134   0.0000       2.295779        62.4713 
 135   0.0000       2.302420        62.6520 
 136   0.0000       2.351856        63.9973 
 137   0.0000       2.358413        64.1757 
 138   0.0000       2.372239        64.5519 
 139   0.0000       2.463318        67.0303 
 140   0.0000       2.472612        67.2832 
 141   0.0000       2.516006        68.4640 
 142   0.0000       2.537525        69.0496 
 143   0.0000       2.602035        70.8050 
 144   0.0000       2.630166        71.5705 
 145   0.0000       2.662570        72.4522 
 146   0.0000       2.699592        73.4596 
 147   0.0000       2.721335        74.0513 
 148   0.0000       2.768914        75.3460 
 149   0.0000       2.781458        75.6873 
 150   0.0000       2.781899        75.6993 
 151   0.0000       2.835564        77.1596 
 152   0.0000       2.898153        78.8627 
 153   0.0000       2.939524        79.9885 
 154   0.0000       2.967592        80.7523 
 155   0.0000       2.990768        81.3829 
 156   0.0000       3.037563        82.6563 
 157   0.0000       3.137958        85.3882 
 158   0.0000       3.146625        85.6240 
 159   0.0000       3.220191        87.6258 
 160   0.0000       3.231977        87.9466 
 161   0.0000       3.279072        89.2281 
 162   0.0000       3.364012        91.5394 
 163   0.0000       3.410665        92.8089 
 164   0.0000       3.572854        97.2223 
 165   0.0000       3.738649       101.7338 
 166   0.0000       3.990707       108.5927 
 167   0.0000       4.074128       110.8626 
 168   0.0000       7.488256       203.7658 
 169   0.0000      21.580869       587.2453 
 170   0.0000      21.933122       596.8306 
 171   0.0000      21.985983       598.2690 
 172   0.0000      22.192086       603.8773 
 173   0.0000      22.206004       604.2561 
 174   0.0000      31.883225       867.5867 

                    ********************************
                    * MULLIKEN POPULATION ANALYSIS *
                    ********************************

-----------------------
MULLIKEN ATOMIC CHARGES
-----------------------
   0 Br:   -0.115648
   1 C :    0.111026
   2 C :   -0.202871
   3 C :   -0.138489
   4 C :   -0.097183
   5 C :   -0.081733
   6 N :   -0.099309
   7 H :    0.171394
   8 H :    0.156030
   9 H :    0.155775
  10 H :    0.141008
Sum of atomic charges:    0.0000000

--------------------------------
MULLIKEN REDUCED ORBITAL CHARGES
--------------------------------
  0 Brs       :     7.969812  s :     7.969812
      pz      :     5.919075  p :    17.101871
      px      :     5.215286
      py      :     5.967510
      dz2     :     2.006148  d :    10.043964
      dxz     :     2.012814
      dyz     :     2.000293
      dx2y2   :     2.018234
      dxy     :     2.006475
  1 C s       :     3.168094  s :     3.168094
      pz      :     0.959989  p :     2.652835
      px      :     0.764031
      py      :     0.928815
      dz2     :     0.004133  d :     0.068045
      dxz     :     0.006820
      dyz     :     0.010327
      dx2y2   :     0.025577
      dxy     :     0.021187
  2 C s       :     3.156017  s :     3.156017
      pz      :     1.000627  p :     3.008967
      px      :     0.990139
      py      :     1.018201
      dz2     :     0.003351  d :     0.037887
      dxz     :     0.005115
      dyz     :     0.003317
      dx2y2   :     0.012147
      dxy     :     0.013957
  3 C s       :     3.216882  s :     3.216882
      pz      :     0.935137  p :     2.882202
      px      :     0.943559
      py      :     1.003507
      dz2     :     0.003235  d :     0.039405
      dxz     :     0.005952
      dyz     :     0.003703
      dx2y2   :     0.013026
      dxy     :     0.013490
  4 C s       :     3.129825  s :     3.129825
      pz      :     1.003300  p :     2.929890
      px      :     1.024302
      py      :     0.902288
      dz2     :     0.003280  d :     0.037467
      dxz     :     0.002554
      dyz     :     0.005602
      dx2y2   :     0.013007
      dxy     :     0.013024
  5 C s       :     3.244694  s :     3.244694
      pz      :     0.908278  p :     2.780891
      px      :     0.897921
      py      :     0.974691
      dz2     :     0.003824  d :     0.056148
      dxz     :     0.008897
      dyz     :     0.003284
      dx2y2   :     0.018212
      dxy     :     0.021932
  6 N s       :     3.440608  s :     3.440608
      pz      :     1.166689  p :     3.599228
      px      :     1.074779
      py      :     1.357761
      dz2     :     0.002611  d :     0.059473
      dxz     :     0.009288
      dyz     :     0.013319
      dx2y2   :     0.030668
      dxy     :     0.003586
  7 H s       :     0.809042  s :     0.809042
      pz      :     0.004045  p :     0.019563
      px      :     0.005537
      py      :     0.009982
  8 H s       :     0.824707  s :     0.824707
      pz      :     0.003773  p :     0.019262
      px      :     0.005651
      py      :     0.009838
  9 H s       :     0.824749  s :     0.824749
      pz      :     0.004155  p :     0.019476
      px      :     0.012203
      py      :     0.003118
 10 H s       :     0.840051  s :     0.840051
      pz      :     0.003646  p :     0.018941
      px      :     0.004297
      py      :     0.010998


                     *******************************
                     * LOEWDIN POPULATION ANALYSIS *
                     *******************************

----------------------
LOEWDIN ATOMIC CHARGES
----------------------
   0 Br:    0.231544
   1 C :   -0.009398
   2 C :   -0.154558
   3 C :   -0.114955
   4 C :   -0.149264
   5 C :    0.096144
   6 N :   -0.617628
   7 H :    0.180360
   8 H :    0.174641
   9 H :    0.174187
  10 H :    0.188927

-------------------------------
LOEWDIN REDUCED ORBITAL CHARGES
-------------------------------
  0 Brs       :     7.673959  s :     7.673959
      pz      :     5.895692  p :    17.034811
      px      :     5.219700
      py      :     5.919419
      dz2     :     2.009814  d :    10.059686
      dxz     :     2.014198
      dyz     :     2.000379
      dx2y2   :     2.027766
      dxy     :     2.007529
  1 C s       :     2.845231  s :     2.845231
      pz      :     0.920903  p :     3.020940
      px      :     1.003367
      py      :     1.096670
      dz2     :     0.009326  d :     0.143226
      dxz     :     0.011053
      dyz     :     0.019550
      dx2y2   :     0.058280
      dxy     :     0.045018
  2 C s       :     2.906672  s :     2.906672
      pz      :     0.987215  p :     3.166629
      px      :     1.108130
      py      :     1.071284
      dz2     :     0.005989  d :     0.081257
      dxz     :     0.009019
      dyz     :     0.005317
      dx2y2   :     0.028199
      dxy     :     0.032734
  3 C s       :     2.908522  s :     2.908522
      pz      :     0.924372  p :     3.123794
      px      :     1.096385
      py      :     1.103037
      dz2     :     0.005517  d :     0.082639
      dxz     :     0.010659
      dyz     :     0.006054
      dx2y2   :     0.029439
      dxy     :     0.030970
  4 C s       :     2.905678  s :     2.905678
      pz      :     0.983150  p :     3.163951
      px      :     1.089764
      py      :     1.091038
      dz2     :     0.005726  d :     0.079635
      dxz     :     0.003532
      dyz     :     0.010334
      dx2y2   :     0.031169
      dxy     :     0.028874
  5 C s       :     2.832534  s :     2.832534
      pz      :     0.865158  p :     2.948037
      px      :     1.021684
      py      :     1.061195
      dz2     :     0.007974  d :     0.123285
      dxz     :     0.016485
      dyz     :     0.005531
      dx2y2   :     0.040195
      dxy     :     0.053100
  6 N s       :     3.231581  s :     3.231581
      pz      :     1.146759  p :     3.905070
      px      :     1.298011
      py      :     1.460300
      dz2     :     0.055452  d :     0.480976
      dxz     :     0.080067
      dyz     :     0.050884
      dx2y2   :     0.148105
      dxy     :     0.146468
  7 H s       :     0.773537  s :     0.773537
      pz      :     0.009040  p :     0.046103
      px      :     0.012798
      py      :     0.024265
  8 H s       :     0.781005  s :     0.781005
      pz      :     0.007949  p :     0.044354
      px      :     0.013069
      py      :     0.023337
  9 H s       :     0.780316  s :     0.780316
      pz      :     0.009122  p :     0.045497
      px      :     0.029257
      py      :     0.007118
 10 H s       :     0.770188  s :     0.770188
      pz      :     0.007578  p :     0.040885
      px      :     0.008013
      py      :     0.025293


                      *****************************
                      * MAYER POPULATION ANALYSIS *
                      *****************************

  NA   - Mulliken gross atomic population
  ZA   - Total nuclear charge
  QA   - Mulliken gross atomic charge
  VA   - Mayer's total valence
  BVA  - Mayer's bonded valence
  FA   - Mayer's free valence

  ATOM       NA         ZA         QA         VA         BVA        FA
  0 Br    35.1156    35.0000    -0.1156     1.1409     1.1409    -0.0000
  1 C      5.8890     6.0000     0.1110     3.9672     3.9672    -0.0000
  2 C      6.2029     6.0000    -0.2029     3.8895     3.8895    -0.0000
  3 C      6.1385     6.0000    -0.1385     3.8668     3.8668    -0.0000
  4 C      6.0972     6.0000    -0.0972     3.7177     3.7177    -0.0000
  5 C      6.0817     6.0000    -0.0817     3.9411     3.9411     0.0000
  6 N      7.0993     7.0000    -0.0993     2.9206     2.9206     0.0000
  7 H      0.8286     1.0000     0.1714     0.9619     0.9619     0.0000
  8 H      0.8440     1.0000     0.1560     0.9664     0.9664    -0.0000
  9 H      0.8442     1.0000     0.1558     0.9673     0.9673    -0.0000
 10 H      0.8590     1.0000     0.1410     0.9676     0.9676     0.0000

  Mayer bond orders larger than 0.100000
B(  0-Br,  1-C ) :   1.0086 B(  1-C ,  2-C ) :   1.3986 B(  1-C ,  6-N ) :   1.4411 
B(  2-C ,  3-C ) :   1.4197 B(  2-C ,  7-H ) :   0.9182 B(  3-C ,  4-C ) :   1.3847 
B(  3-C ,  6-N ) :   0.1003 B(  3-C ,  8-H ) :   0.9457 B(  4-C ,  5-C ) :   1.3872 
B(  4-C ,  9-H ) :   0.9340 B(  5-C ,  6-N ) :   1.4363 B(  5-C , 10-H ) :   0.9785 


-------
TIMINGS
-------

Total SCF time: 0 days 0 hours 0 min 2 sec 

Total time                  ....       2.723 sec
Sum of individual times     ....       2.559 sec  ( 94.0%)

Fock matrix formation       ....       1.924 sec  ( 70.6%)
  Split-RI-J                ....       0.360 sec  ( 18.7% of F)
  XC integration            ....       1.457 sec  ( 75.7% of F)
    Basis function eval.    ....       0.189 sec  ( 13.0% of XC)
    Density eval.           ....       0.336 sec  ( 23.1% of XC)
    XC-Functional eval.     ....       0.206 sec  ( 14.1% of XC)
    XC-Potential eval.      ....       0.375 sec  ( 25.8% of XC)
Diagonalization             ....       0.043 sec  (  1.6%)
Density matrix formation    ....       0.006 sec  (  0.2%)
Population analysis         ....       0.010 sec  (  0.4%)
Initial guess               ....       0.129 sec  (  4.7%)
Orbital Transformation      ....       0.000 sec  (  0.0%)
Orbital Orthonormalization  ....       0.000 sec  (  0.0%)
DIIS solution               ....       0.038 sec  (  1.4%)
SOSCF solution              ....       0.048 sec  (  1.8%)
Grid generation             ....       0.361 sec  ( 13.3%)

Maximum memory used throughout the entire SCF-calculation: 20.8 MB


-------------------------------------------------------------------------------
                          DFT DISPERSION CORRECTION                            
                                                                               
                                 DFTD4 V2.5                                    
-------------------------------------------------------------------------------
The R2SCAN3C composite method is recognized
Using three-body term ABC
Active option DFTDOPT                   ...         5   

Starting D4
-------------------------   ----------------
Dispersion correction           -0.003745611
-------------------------   ----------------

------------------   -----------------
gCP correction             0.004671451
------------------   -----------------

-------------------------   --------------------
FINAL SINGLE POINT ENERGY     -2821.763214154951
-------------------------   --------------------



           ************************************************************
           *        Program running with 16 parallel MPI-processes    *
           *              working on a common directory               *
           ************************************************************
------------------------------------------------------------------------------
                         ORCA SCF GRADIENT CALCULATION
------------------------------------------------------------------------------

Gradient of the Kohn-Sham DFT energy:
Kohn-Sham wavefunction type      ... RKS
Hartree-Fock exchange scaling    ...    0.000
Number of operators              ...    1
Number of atoms                  ...   11
Basis set dimensions             ...  175
Integral neglect threshold       ... 2.5e-11
Integral primitive cutoff        ... 2.5e-12
SHARK Integral package           ... ON

Nuc. rep. gradient       (SHARK) ... done (  0.0 sec)
HCore & Overlap gradient (SHARK) ... done (  0.0 sec)
RI-J gradient            (SHARK) ... done (  0.2 sec)
Exchange-correlation gradient    ... done
Dispersion correction            ... Starting D4
Starting D4
Starting D4
Starting D4


------------------- 
Dispersion Gradient 
------------------- 
   1  :    0.000189434   -0.000001594    0.000000000
   2  :    0.000038390   -0.000003598   -0.000000001
   3  :    0.000012088    0.000036481   -0.000000000
   4  :   -0.000046676    0.000040436    0.000000000
   5  :   -0.000066472   -0.000007427    0.000000000
   6  :   -0.000046378   -0.000046056    0.000000000
   7  :    0.000016605   -0.000042023   -0.000000000
   8  :    0.000013447    0.000033925   -0.000000000
   9  :   -0.000024517    0.000031663    0.000000000
  10  :   -0.000036344   -0.000002754    0.000000000
  11  :   -0.000019485   -0.000035644    0.000000000

  |G| =    0.000791440

Starting D4
Starting D4
Starting D4
Starting D4
Starting D4
Starting D4
Starting D4
Starting D4
Starting D4
Starting D4
Starting D4
Starting D4
done
gCP correction                   ... done

------------------
CARTESIAN GRADIENT
------------------

   1   Br  :   -0.007522749   -0.000280485    0.000001020
   2   C   :    0.003318739   -0.001169343   -0.000004394
   3   C   :   -0.001801638   -0.001044232    0.000001464
   4   C   :    0.001169563   -0.000825479   -0.000000026
   5   C   :    0.000937229    0.000321512   -0.000000030
   6   C   :    0.003251236    0.000620292    0.000000598
   7   N   :   -0.004137970    0.004278191    0.000001515
   8   H   :   -0.001101257   -0.002729495    0.000000277
   9   H   :    0.001239302   -0.002329966   -0.000000178
  10   H   :    0.002944065    0.000018223   -0.000000006
  11   H   :    0.001733573    0.003144191   -0.000000239

Difference to translation invariance:
           :    0.0000300926    0.0000034094    0.0000000002

Difference to rotation invariance:
           :   -0.0000000062   -0.0000000721   -0.0001010231

Norm of the cartesian gradient     ...    0.0126485899
RMS gradient                       ...    0.0022018369
MAX gradient                       ...    0.0075227492

-------
TIMINGS
-------

Total SCF gradient time            ...        0.542 sec

One electron gradient       ....       0.013 sec  (  2.4%)
RI-J Coulomb gradient       ....       0.188 sec  ( 34.6%)
XC gradient                 ....       0.185 sec  ( 34.2%)

Maximum memory used throughout the entire SCFGRAD-calculation: 28.8 MB
------------------------------------------------------------------------------
                         ORCA GEOMETRY RELAXATION STEP
------------------------------------------------------------------------------

Reading the OPT-File                    .... done
Getting information on internals        .... done
Copying old internal coords+grads       .... done
Making the new internal coordinates     .... (new redundants).... done
Validating the new internal coordinates .... (new redundants).... done
Calculating the B-matrix                .... done
Calculating the G,G- and P matrices     .... done
Transforming gradient to internals      .... done
Projecting the internal gradient        .... done
Number of atoms                         ....  11
Number of internal coordinates          ....  47
Current Energy                          .... -2821.763214155 Eh
Current gradient norm                   ....     0.012648590 Eh/bohr
Maximum allowed component of the step   ....  0.300
Current trust radius                    ....  0.300
Evaluating the initial hessian          ....  (Almloef) done
Projecting the Hessian                  .... done
Forming the augmented Hessian           .... done
Diagonalizing the augmented Hessian     .... done
Last element of RFO vector              ....  0.999424861
Lowest eigenvalues of augmented Hessian:
 -0.000491808  0.027555841  0.027763271  0.027836756  0.028079879
Length of the computed step             ....  0.033930396
The final length of the internal step   ....  0.033930396
Converting the step to cartesian space:
 Initial RMS(Int)=    0.0049492569
Transforming coordinates:
 Iter   0:  RMS(Cart)=    0.0082621609 RMS(Int)=    2.4248194386
 Iter   1:  RMS(Cart)=    0.0000048067 RMS(Int)=    0.9164967678
 Iter   2:  RMS(Cart)=    0.0000000249 RMS(Int)=    0.0000000122
done
Storing new coordinates                 .... done

                                .--------------------.
          ----------------------|Geometry convergence|-------------------------
          Item                value                   Tolerance       Converged
          ---------------------------------------------------------------------
          RMS gradient        0.0022440293            0.0001000000      NO
          MAX gradient        0.0075262885            0.0003000000      NO
          RMS step            0.0049492569            0.0020000000      NO
          MAX step            0.0236584152            0.0040000000      NO
          ........................................................
          Max(Bonds)      0.0125      Max(Angles)    0.08
          Max(Dihed)        0.00      Max(Improp)    0.00
          ---------------------------------------------------------------------

The optimization has not yet converged - more geometry cycles are needed


    ---------------------------------------------------------------------------
                         Redundant Internal Coordinates
                            (Angstroem and degrees)

        Definition                    Value    dE/dq     Step     New-Value
    ----------------------------------------------------------------------------
     1. B(C   1,Br  0)                1.9042 -0.007526  0.0125    1.9167   
     2. B(C   2,C   1)                1.3904 -0.003682  0.0031    1.3936   
     3. B(C   3,C   2)                1.3832 -0.004466  0.0036    1.3868   
     4. B(C   4,C   3)                1.3884 -0.004124  0.0034    1.3918   
     5. B(C   5,C   4)                1.3846 -0.003706  0.0031    1.3877   
     6. B(N   6,C   5)                1.3336 -0.006810  0.0053    1.3389   
     7. B(N   6,C   1)                1.3104 -0.005483  0.0039    1.3143   
     8. B(H   7,C   2)                1.0798 -0.002911  0.0041    1.0839   
     9. B(H   8,C   3)                1.0824 -0.002633  0.0038    1.0862   
    10. B(H   9,C   4)                1.0809 -0.002937  0.0042    1.0850   
    11. B(H  10,C   5)                1.0837 -0.003581  0.0051    1.0889   
    12. A(Br  0,C   1,N   6)          116.77 -0.000535    0.07    116.84   
    13. A(Br  0,C   1,C   2)          118.41  0.000365   -0.06    118.35   
    14. A(C   2,C   1,N   6)          124.82  0.000170   -0.01    124.81   
    15. A(C   3,C   2,H   7)          122.15  0.000444   -0.06    122.08   
    16. A(C   1,C   2,H   7)          120.74 -0.000452    0.08    120.82   
    17. A(C   1,C   2,C   3)          117.12  0.000008   -0.02    117.10   
    18. A(C   4,C   3,H   8)          120.75  0.000183   -0.01    120.75   
    19. A(C   2,C   3,C   4)          119.23 -0.000706    0.07    119.30   
    20. A(C   2,C   3,H   8)          120.01  0.000523   -0.06    119.95   
    21. A(C   5,C   4,H   9)          120.37 -0.000076    0.02    120.39   
    22. A(C   3,C   4,H   9)          121.42  0.000279   -0.04    121.38   
    23. A(C   3,C   4,C   5)          118.22 -0.000204    0.01    118.23   
    24. A(C   4,C   5,H  10)          120.92 -0.000061   -0.00    120.92   
    25. A(C   4,C   5,N   6)          123.21  0.000616   -0.07    123.14   
    26. A(N   6,C   5,H  10)          115.87 -0.000555    0.08    115.95   
    27. A(C   1,N   6,C   5)          117.40  0.000116    0.02    117.42   
    28. D(H   7,C   2,C   1,N   6)    180.00 -0.000001    0.00    180.00   
    29. D(C   3,C   2,C   1,N   6)     -0.00 -0.000001    0.00      0.00   
    30. D(C   3,C   2,C   1,Br  0)   -180.00  0.000001   -0.00   -180.00   
    31. D(H   7,C   2,C   1,Br  0)      0.00  0.000001   -0.00     -0.00   
    32. D(C   4,C   3,C   2,H   7)   -180.00  0.000000   -0.00   -180.00   
    33. D(H   8,C   3,C   2,C   1)   -180.00  0.000000   -0.00   -180.00   
    34. D(C   4,C   3,C   2,C   1)      0.00  0.000000   -0.00     -0.00   
    35. D(H   8,C   3,C   2,H   7)      0.00  0.000000   -0.00     -0.00   
    36. D(H   9,C   4,C   3,H   8)     -0.00  0.000000   -0.00     -0.00   
    37. D(H   9,C   4,C   3,C   2)    180.00 -0.000000    0.00    180.00   
    38. D(C   5,C   4,C   3,H   8)   -180.00  0.000000   -0.00   -180.00   
    39. D(C   5,C   4,C   3,C   2)      0.00  0.000000   -0.00     -0.00   
    40. D(H  10,C   5,C   4,C   3)    180.00 -0.000000    0.00    180.00   
    41. D(N   6,C   5,C   4,H   9)   -180.00 -0.000000    0.00   -180.00   
    42. D(N   6,C   5,C   4,C   3)     -0.00 -0.000000    0.00      0.00   
    43. D(H  10,C   5,C   4,H   9)      0.00  0.000000   -0.00     -0.00   
    44. D(C   1,N   6,C   5,H  10)    180.00 -0.000000    0.00    180.00   
    45. D(C   1,N   6,C   5,C   4)     -0.00 -0.000000    0.00     -0.00   
    46. D(C   5,N   6,C   1,C   2)      0.00  0.000001   -0.00     -0.00   
    47. D(C   5,N   6,C   1,Br  0)    180.00 -0.000001    0.00    180.00   
    ----------------------------------------------------------------------------

         *************************************************************
         *                GEOMETRY OPTIMIZATION CYCLE   2            *
         *************************************************************
---------------------------------
CARTESIAN COORDINATES (ANGSTROEM)
---------------------------------
  Br     1.792911   -0.004464   -0.000019
  C     -0.123747   -0.013685    0.000001
  C     -0.791484    1.209492   -0.000001
  C     -2.177804    1.172382    0.000005
  C     -2.826222   -0.059097    0.000008
  C     -2.050199   -1.209526    0.000002
  N     -0.711423   -1.189314   -0.000000
  H     -0.240514    2.142938   -0.000007
  H     -2.745095    2.098655    0.000006
  H     -3.909113   -0.127475    0.000013
  H     -2.511777   -2.195739    0.000004

----------------------------
CARTESIAN COORDINATES (A.U.)
----------------------------
  NO LB      ZA    FRAG     MASS         X           Y           Z
   0 Br   35.0000    0    79.900    3.388110   -0.008436   -0.000036
   1 C     6.0000    0    12.011   -0.233847   -0.025861    0.000002
   2 C     6.0000    0    12.011   -1.495687    2.285608   -0.000002
   3 C     6.0000    0    12.011   -4.115452    2.215480    0.000009
   4 C     6.0000    0    12.011   -5.340786   -0.111678    0.000015
   5 C     6.0000    0    12.011   -3.874315   -2.285674    0.000005
   6 N     7.0000    0    14.007   -1.344395   -2.247477   -0.000001
   7 H     1.0000    0     1.008   -0.454505    4.049566   -0.000012
   8 H     1.0000    0     1.008   -5.187477    3.965883    0.000012
   9 H     1.0000    0     1.008   -7.387153   -0.240894    0.000025
  10 H     1.0000    0     1.008   -4.746570   -4.149345    0.000008

--------------------------------
INTERNAL COORDINATES (ANGSTROEM)
--------------------------------
 Br     0   0   0     0.000000000000     0.00000000     0.00000000
 C      1   0   0     1.916679327959     0.00000000     0.00000000
 C      2   1   0     1.393568854021   118.35465989     0.00000000
 C      3   2   1     1.386816592624   117.09693048   179.99958447
 C      4   3   2     1.391756709913   119.30181420     0.00000000
 C      5   4   3     1.387695544140   118.22988563     0.00000000
 N      2   1   3     1.314331138619   116.83532185   179.99918234
 H      3   2   1     1.083923659713   120.81832203     0.00000000
 H      4   3   2     1.086186759081   119.95179389   179.99982630
 H      5   4   3     1.085047683033   121.38154002   179.99994712
 H      6   5   4     1.088884219983   120.91730358   180.00000148

---------------------------
INTERNAL COORDINATES (A.U.)
---------------------------
 Br     0   0   0     0.000000000000     0.00000000     0.00000000
 C      1   0   0     3.621999016391     0.00000000     0.00000000
 C      2   1   0     2.633463482862   118.35465989     0.00000000
 C      3   2   1     2.620703558038   117.09693048   179.99958447
 C      4   3   2     2.630039026784   119.30181420     0.00000000
 C      5   4   3     2.622364535688   118.22988563     0.00000000
 N      2   1   3     2.483725901274   116.83532185   179.99918234
 H      3   2   1     2.048318866936   120.81832203     0.00000000
 H      4   3   2     2.052595504954   119.95179389   179.99982630
 H      5   4   3     2.050442963177   121.38154002   179.99994712
 H      6   5   4     2.057692967316   120.91730358   180.00000148



           ************************************************************
           *        Program running with 16 parallel MPI-processes    *
           *              working on a common directory               *
           ************************************************************
------------------------------------------------------------------------------
                   ___                                                        
                  /   \      - P O W E R E D   B Y -                         
                 /     \                                                     
                 |  |  |   _    _      __       _____    __    __             
                 |  |  |  | |  | |    /  \     |  _  \  |  |  /  |          
                  \  \/   | |  | |   /    \    | | | |  |  | /  /          
                 / \  \   | |__| |  /  /\  \   | |_| |  |  |/  /          
                |  |  |   |  __  | /  /__\  \  |    /   |      \           
                |  |  |   | |  | | |   __   |  |    \   |  |\   \          
                \     /   | |  | | |  |  |  |  | |\  \  |  | \   \       
                 \___/    |_|  |_| |__|  |__|  |_| \__\ |__|  \__/        
                                                                              
                      - O R C A' S   B I G   F R I E N D -                    
                                      &                                       
                       - I N T E G R A L  F E E D E R -                       
                                                                              
 v1 FN, 2020, v2 2021                                                         
------------------------------------------------------------------------------


Reading SHARK input file /tmp/254456/arbr_14_r2scan3c.SHARKINP.tmp ... ok
----------------------
SHARK INTEGRAL PACKAGE
----------------------

Number of atoms                             ...     11
Number of basis functions                   ...    175
Number of shells                            ...     81
Maximum angular momentum                    ...      2
Integral batch strategy                     ... SHARK/LIBINT Hybrid
RI-J (if used) integral strategy            ... SPLIT-RIJ (Revised 2003 algorithm where possible)
Printlevel                                  ...      1
Contraction scheme used                     ... SEGMENTED contraction
Coulomb Range Separation                    ... NOT USED
Exchange Range Separation                   ... NOT USED
Finite Nucleus Model                        ... NOT USED
Auxiliary Coulomb fitting basis             ... AVAILABLE
   # of basis functions in Aux-J            ...    282
   # of shells in Aux-J                     ...    110
   Maximum angular momentum in Aux-J        ...      4
Auxiliary J/K fitting basis                 ... NOT available
Auxiliary Correlation fitting basis         ... NOT available
Auxiliary 'external' fitting basis          ... NOT available
Integral threshold                          ...     2.500000e-11
Primitive cut-off                           ...     2.500000e-12
Primitive pair pre-selection threshold      ...     2.500000e-12

Calculating pre-screening integrals         ... done (  0.0 sec) Dimension = 81
Organizing shell pair data                  ... done (  0.0 sec)
Shell pair information
Total number of shell pairs                 ...      3321
Shell pairs after pre-screening             ...      3024
Total number of primitive shell pairs       ...     14071
Primitive shell pairs kept                  ...      9036
          la=0 lb=0:    867 shell pairs
          la=1 lb=0:   1093 shell pairs
          la=1 lb=1:    358 shell pairs
          la=2 lb=0:    401 shell pairs
          la=2 lb=1:    254 shell pairs
          la=2 lb=2:     51 shell pairs

Calculating one electron integrals          ... done (  0.0 sec)
Calculating RI/J V-Matrix + Cholesky decomp.... done (  0.0 sec)
Calculating Nuclear repulsion               ... done (  0.0 sec) ENN=    436.589838727513 Eh

SHARK setup successfully completed in   0.1 seconds

Maximum memory used throughout the entire GTOINT-calculation: 16.2 MB


           ************************************************************
           *        Program running with 16 parallel MPI-processes    *
           *              working on a common directory               *
           ************************************************************

Diagonalization of the overlap matrix:
Smallest eigenvalue                        ... 8.855e-05
Time for diagonalization                   ...    0.004 sec
Threshold for overlap eigenvalues          ... 1.000e-08
Number of eigenvalues below threshold      ... 0
Time for construction of square roots      ...    0.002 sec
Total time needed                          ...    0.017 sec

-------------------
DFT GRID GENERATION
-------------------

General Integration Accuracy     IntAcc      ... 4.388
Radial Grid Type                 RadialGrid  ... OptM3 with GC (2021)
Angular Grid (max. ang.)         AngularGrid ... 4 (Lebedev-302)
Angular grid pruning method      GridPruning ... 4 (adaptive)
Weight generation scheme         WeightScheme... Becke
Basis function cutoff            BFCut       ... 1.0000e-11
Integration weight cutoff        WCut        ... 1.0000e-14
Angular grids for H and He will be reduced by one unit
Partially contracted basis set               ... off
Rotationally invariant grid construction     ... off

Total number of grid points                  ...    60380
Total number of batches                      ...      950
Average number of points per batch           ...       63
Average number of grid points per atom       ...     5489
Time for grid setup =    0.308 sec

--------------
SCF ITERATIONS
--------------
ITER       Energy         Delta-E        Max-DP      RMS-DP      [F,P]     Damp
               ***  Starting incremental Fock matrix formation  ***
                      *** Initiating the SOSCF procedure ***
                      *** Re-Reading the Fockian *** 
                      *** Removing any level shift *** 
ITER      Energy       Delta-E        Grad      Rot      Max-DP    RMS-DP
  0  -2821.76431073 -2821.7643107266  0.001005  0.001005  0.002933  0.000118
               *** Restarting incremental Fock matrix formation ***
  1  -2821.76436621  -0.0000554854  0.000595  0.001544  0.003093  0.000083
  2  -2821.76435325   0.0000129666  0.001114  0.001298  0.002099  0.000048
  3  -2821.76437398  -0.0000207372  0.000243  0.000931  0.000371  0.000018
  4  -2821.76437203   0.0000019487  0.000422  0.000620  0.000247  0.000012
  5  -2821.76437477  -0.0000027341  0.000023  0.000076  0.000108  0.000004
  6  -2821.76437474   0.0000000291  0.000037  0.000059  0.000061  0.000002
  7  -2821.76437479  -0.0000000468  0.000014  0.000057  0.000061  0.000002
  8  -2821.76437478   0.0000000059  0.000023  0.000034  0.000030  0.000001
  9  -2821.76437478  -0.0000000036  0.000003  0.000017  0.000019  0.000001
 10  -2821.76437479  -0.0000000071  0.000005  0.000010  0.000012  0.000000
                  ***Gradient check signals convergence***
              ***Rediagonalizing the Fockian in SOSCF/NRSCF***

               *****************************************************
               *                     SUCCESS                       *
               *           SCF CONVERGED AFTER  11 CYCLES          *
               *****************************************************

Total Energy       :        -2821.76437479 Eh          -76784.11227 eV
  Last Energy change         ...   -3.0514e-10  Tolerance :   1.0000e-08
  Last MAX-Density change    ...    1.1430e-05  Tolerance :   1.0000e-07
             **** THE GBW FILE WAS UPDATED (/tmp/254456/arbr_14_r2scan3c.gbw) ****
             **** DENSITY /tmp/254456/arbr_14_r2scan3c.scfp WAS UPDATED ****
             **** ENERGY FILE WAS UPDATED (/tmp/254456/arbr_14_r2scan3c.en.tmp) ****
             **** THE GBW FILE WAS UPDATED (/tmp/254456/arbr_14_r2scan3c.gbw) ****
             **** DENSITY /tmp/254456/arbr_14_r2scan3c.scfp WAS UPDATED ****
Total SCF time: 0 days 0 hours 0 min 1 sec 

Maximum memory used throughout the entire SCF-calculation: 20.7 MB


-------------------------------------------------------------------------------
                          DFT DISPERSION CORRECTION                            
                                                                               
                                 DFTD4 V2.5                                    
-------------------------------------------------------------------------------
Starting D4
-------------------------   ----------------
Dispersion correction           -0.003736505
-------------------------   ----------------

------------------   -----------------
gCP correction             0.004607289
------------------   -----------------

-------------------------   --------------------
FINAL SINGLE POINT ENERGY     -2821.763504007235
-------------------------   --------------------



[...]
     20      -0.261155  -0.000001  -0.000002   0.255753   0.055584   0.000001
     21      -0.000003  -0.365743   0.314717  -0.000002   0.000002   0.094756
     22       0.000000   0.341199   0.028912   0.000001  -0.000000   0.262719
     23      -0.445219   0.000002  -0.000001  -0.486391   0.333347  -0.000001
     24       0.000001  -0.362342   0.213889   0.000002   0.000003   0.198328
     25      -0.000000  -0.130553   0.001606   0.000000  -0.000000  -0.359583
     26       0.186308   0.000001  -0.000002   0.511095   0.528005  -0.000001
     27       0.000004  -0.005727   0.380535  -0.000000  -0.000001  -0.065150
     28       0.000000  -0.299906  -0.028451  -0.000000   0.000000   0.287763
     29       0.655787  -0.000000  -0.000003  -0.080427  -0.287743   0.000001
     30       0.000000   0.358021   0.304303  -0.000002   0.000003   0.044955
     31      -0.000000  -0.084289  -0.006594   0.000000  -0.000000  -0.331782
     32       0.035990  -0.000001  -0.000000  -0.528171   0.572825  -0.000000
                 12         13         14         15         16         17    
      0      -0.033910  -0.000000   0.000000   0.000000  -0.000000  -0.000000
      1       0.001152  -0.000000   0.000000  -0.000000  -0.000000  -0.000000
      2       0.000000   0.001147   0.002652   0.000518   0.000403  -0.000062
      3       0.369888  -0.000001  -0.000001  -0.000000   0.000000   0.000001
      4      -0.010502  -0.000000   0.000000   0.000000  -0.000000   0.000001
      5      -0.000001  -0.254056  -0.121621  -0.017087  -0.024338  -0.014770
      6       0.037265   0.000001   0.000000   0.000001   0.000000   0.000001
      7      -0.312520  -0.000000  -0.000000  -0.000000   0.000000   0.000003
      8      -0.000001   0.145682   0.089007   0.113980   0.060113  -0.056072
      9       0.002755  -0.000001   0.000000   0.000000  -0.000000   0.000001
     10      -0.217376  -0.000000  -0.000000  -0.000000  -0.000000  -0.000001
     11       0.000001  -0.205037   0.051701   0.026260  -0.072857   0.114579
     12      -0.343701   0.000000   0.000000  -0.000000  -0.000000  -0.000003
     13       0.034314  -0.000000   0.000000   0.000000  -0.000000   0.000000
     14       0.000001   0.157500   0.070932  -0.080194  -0.068547  -0.089080
     15       0.065263  -0.000001   0.000000  -0.000000   0.000000  -0.000001
     16       0.296141   0.000000  -0.000000   0.000000   0.000000   0.000001
     17      -0.000000  -0.205240   0.025655  -0.061933   0.143608   0.044622
     18       0.075790   0.000001   0.000000   0.000000   0.000000   0.000002
     19       0.171559   0.000000   0.000000  -0.000000  -0.000000  -0.000004
     20      -0.000001   0.230826   0.023994   0.009286  -0.011209   0.009656
     21      -0.247387   0.000003  -0.000002  -0.000004  -0.000002  -0.000000
     22      -0.146435  -0.000000   0.000000   0.000000   0.000001   0.000005
     23      -0.000001   0.617065  -0.413827  -0.715663  -0.277214   0.376621
     24       0.399329   0.000000  -0.000003  -0.000001   0.000002  -0.000004
     25       0.022503  -0.000000   0.000000  -0.000000  -0.000000  -0.000002
     26      -0.000001   0.005900  -0.551570  -0.156661   0.427457  -0.697499
     27      -0.337890   0.000003  -0.000003   0.000003   0.000002  -0.000001
     28      -0.059962  -0.000000  -0.000000   0.000000   0.000000   0.000004
     29       0.000001   0.577135  -0.611207   0.527639   0.304021   0.503287
     30       0.254127  -0.000001  -0.000002   0.000002  -0.000004  -0.000003
     31       0.210243   0.000000   0.000000  -0.000000   0.000001   0.000001
     32       0.000000  -0.195170  -0.345377   0.400694  -0.782970  -0.303058
                 18         19         20         21         22         23    
      0      -0.000006   0.005123   0.005452   0.004496   0.000340  -0.001664
      1      -0.000459  -0.000446   0.000021  -0.002114  -0.000129  -0.001758
      2      -0.000000  -0.000000   0.000000  -0.000000  -0.000000  -0.000000
      3       0.023254  -0.107517  -0.250366  -0.172453  -0.002842   0.012966
      4       0.058926   0.012624  -0.019049   0.068213  -0.009248   0.007502
      5       0.000000   0.000001   0.000001   0.000001   0.000000   0.000000
      6       0.148672  -0.075828   0.092998  -0.099899  -0.037717  -0.110570
      7       0.365664   0.017751   0.011167  -0.087955   0.019861  -0.000642
      8       0.000002   0.000001  -0.000001   0.000000   0.000000   0.000001
      9       0.051634   0.078070   0.032200   0.088929   0.062578   0.063907
     10      -0.084167  -0.247904  -0.030316  -0.041775   0.035830   0.011056
     11      -0.000006  -0.000001   0.000000  -0.000001  -0.000000  -0.000000
     12      -0.372857   0.154401  -0.090070  -0.039418   0.008801   0.015842
     13       0.003354   0.040514  -0.070714   0.071866  -0.047223  -0.107814
     14       0.000006  -0.000000   0.000000   0.000000  -0.000000   0.000000
     15      -0.066869   0.020982   0.108866   0.037869  -0.028150  -0.186272
     16       0.023981   0.227235   0.129665  -0.070858  -0.001248   0.015208
     17      -0.000002  -0.000001  -0.000000  -0.000000   0.000000   0.000001
     18       0.223857  -0.029473  -0.004973   0.093731  -0.007442   0.197671
     19      -0.362860  -0.064876   0.036450   0.018298  -0.006264   0.079822
     20      -0.000001   0.000000  -0.000000  -0.000000   0.000000  -0.000001
     21      -0.058420  -0.455639   0.618737  -0.160192  -0.422458   0.479228
     22       0.508358   0.228581  -0.304995  -0.072661   0.245609  -0.354113
     23      -0.000017   0.000001  -0.000003   0.000001   0.000002  -0.000003
     24       0.016816  -0.182697   0.134964   0.504376   0.573799   0.017393
     25      -0.089598  -0.428658   0.034824   0.202820   0.348227  -0.023021
     26       0.000033   0.000004  -0.000003  -0.000002  -0.000003  -0.000000
     27      -0.403690   0.171733  -0.057859  -0.078241   0.038261   0.005652
     28       0.250510   0.115948  -0.576688   0.686959  -0.524589   0.043955
     29      -0.000023  -0.000004   0.000002   0.000001  -0.000000  -0.000000
     30      -0.089163  -0.365349   0.208568   0.279276  -0.144952  -0.684872
     31       0.027225   0.422617   0.091438  -0.182804   0.052172   0.253351
     32       0.000015   0.000004  -0.000003  -0.000002   0.000001   0.000004
                 24         25         26         27         28         29    
      0       0.001448   0.000434  -0.000629   0.002360  -0.002597  -0.000020
      1      -0.000184  -0.000966   0.000507  -0.000140   0.000658  -0.000001
      2      -0.000000  -0.000000   0.000000  -0.000000   0.000000   0.000000
      3       0.024991  -0.080199  -0.085621   0.087463   0.036202   0.001338
      4       0.276111   0.086600  -0.113879   0.053505  -0.297750   0.001418
      5      -0.000000   0.000000   0.000000  -0.000001  -0.000000  -0.000000
      6       0.079850   0.075733   0.136788  -0.271515  -0.131340  -0.001073
      7      -0.077191  -0.135798  -0.035282   0.017101   0.212490  -0.001523
      8      -0.000000  -0.000000  -0.000001   0.000001   0.000001   0.000000
      9      -0.116128   0.087353  -0.049436   0.356925  -0.057243  -0.001987
     10      -0.088827   0.037378   0.063241   0.136497  -0.233354   0.003991
     11       0.000000  -0.000000   0.000000  -0.000002   0.000000   0.000000
     12       0.010362  -0.039057  -0.065154  -0.175102  -0.029272   0.014713
     13       0.087846   0.150822  -0.058318  -0.022309   0.397403   0.003869
     14      -0.000000   0.000000   0.000000   0.000001   0.000000  -0.000000
     15       0.074693  -0.097188   0.134122   0.260430   0.095301  -0.032949
     16      -0.102879  -0.071020  -0.058601  -0.083280  -0.196710  -0.078142
     17      -0.000000   0.000000  -0.000001  -0.000001  -0.000000   0.000000
     18      -0.068780   0.104612   0.037262  -0.169329   0.061235  -0.000903
     19      -0.085758   0.018458   0.103515  -0.049717   0.146584  -0.000186
     20       0.000001  -0.000000  -0.000000   0.000001  -0.000000  -0.000000
     21       0.301979  -0.349809  -0.390264   0.119505   0.363113   0.011709
     22      -0.210831   0.093067   0.278795  -0.234292  -0.060064   0.018568
     23      -0.000002   0.000002   0.000002  -0.000001  -0.000002  -0.000000
     24       0.338981  -0.520822  -0.147670  -0.440356   0.272253   0.028212
     25       0.185901  -0.340861   0.024038  -0.359148  -0.058028  -0.047010
     26      -0.000001   0.000003   0.000000   0.000002  -0.000001  -0.000000
     27       0.023030  -0.002501  -0.103957  -0.197043   0.026335  -0.194226
     28      -0.137879  -0.604001   0.325607  -0.104518  -0.514415  -0.016786
     29       0.000000   0.000000   0.000001   0.000001  -0.000000   0.000001
     30      -0.702024   0.020874  -0.668481  -0.392839  -0.277821   0.406284
     31       0.236362  -0.138160   0.309867   0.190349  -0.051440   0.886560
     32       0.000003  -0.000000   0.000003   0.000002   0.000002  -0.000002
                 30         31         32    
      0       0.000007   0.000027   0.000057
      1       0.000004   0.000002  -0.000001
      2      -0.000000  -0.000000   0.000000
      3      -0.000685   0.000048  -0.002913
      4      -0.000372   0.000484   0.002620
      5       0.000000   0.000000   0.000000
      6      -0.006211  -0.006901  -0.043437
      7      -0.014772  -0.014880  -0.073027
      8       0.000000   0.000000   0.000000
      9      -0.040995  -0.013415   0.015003
     10       0.066067   0.028163  -0.019508
     11       0.000000   0.000000  -0.000000
     12       0.030114  -0.080342   0.009974
     13      -0.000941  -0.005083   0.001959
     14      -0.000000   0.000000  -0.000000
     15       0.004345  -0.003612   0.000657
     16       0.010888  -0.015504   0.002902
     17      -0.000000   0.000000   0.000000
     18      -0.000017   0.000572   0.000571
     19      -0.000122   0.000305   0.000364
     20       0.000000  -0.000000  -0.000000
     21       0.099575   0.097715   0.485009
     22       0.174435   0.169798   0.824366
     23      -0.000000  -0.000000  -0.000002
     24       0.469729   0.172388  -0.135920
     25      -0.766451  -0.289729   0.217121
     26      -0.000002  -0.000001   0.000001
     27      -0.358291   0.901845  -0.103958
     28      -0.018501   0.055284  -0.007718
     29       0.000002  -0.000004   0.000000
     30      -0.051300   0.059830  -0.010726
     31      -0.113451   0.141502  -0.025237
     32       0.000000  -0.000000   0.000000


-----------
IR SPECTRUM
-----------

 Mode   freq       eps      Int      T**2         TX        TY        TZ
       cm**-1   L/(mol*cm) km/mol    a.u.
----------------------------------------------------------------------------
  6:    153.32   0.000241    1.22  0.000491  ( 0.000002 -0.000003  0.022147)
  7:    261.47   0.000283    1.43  0.000338  (-0.009045 -0.016006  0.000000)
  8:    307.92   0.001553    7.85  0.001574  ( 0.039420  0.004435 -0.000000)
  9:    407.76   0.000813    4.11  0.000622  ( 0.000000  0.000002 -0.024945)
 10:    471.74   0.001045    5.28  0.000691  ( 0.000001 -0.000001  0.026292)
 11:    621.79   0.000519    2.62  0.000260  (-0.000656 -0.016119 -0.000000)
 12:    713.46   0.007892   39.88  0.003452  ( 0.058754  0.000096 -0.000000)
 13:    742.72   0.000338    1.71  0.000142  ( 0.000001  0.000002  0.011915)
 14:    764.35   0.011716   59.21  0.004783  (-0.000000 -0.000001 -0.069161)
 15:    888.38   0.000002    0.01  0.000001  (-0.000000 -0.000000 -0.000746)
 16:    969.29   0.000021    0.11  0.000007  ( 0.000001 -0.000000 -0.002593)
 17:    999.08   0.000001    0.00  0.000000  ( 0.000001 -0.000000  0.000508)
 18:   1002.10   0.001593    8.05  0.000496  (-0.000850  0.022256 -0.000000)
 19:   1063.74   0.003273   16.54  0.000960  (-0.026897  0.015388  0.000000)
 20:   1096.50   0.013496   68.20  0.003841  (-0.061015 -0.010872  0.000000)
 21:   1127.13   0.009171   46.35  0.002539  (-0.050328  0.002501  0.000000)
 22:   1176.73   0.000577    2.92  0.000153  ( 0.009071  0.008411 -0.000000)
 23:   1303.65   0.000900    4.55  0.000216  (-0.014611 -0.001435  0.000000)
 24:   1319.01   0.000605    3.05  0.000143  ( 0.009387  0.007410 -0.000000)
 25:   1440.17   0.014271   72.12  0.003092  (-0.053306 -0.015837  0.000000)
 26:   1477.63   0.012634   63.85  0.002668  (-0.051606 -0.002246  0.000000)
 27:   1598.78   0.016142   81.58  0.003151  ( 0.056098 -0.001949 -0.000000)
 28:   1604.90   0.006823   34.48  0.001327  (-0.003569 -0.036250  0.000000)
 29:   3149.70   0.002187   11.05  0.000217  (-0.010395 -0.010422  0.000000)
 30:   3176.18   0.000744    3.76  0.000073  (-0.000627  0.008524  0.000000)
 31:   3195.38   0.001047    5.29  0.000102  (-0.010063 -0.000975  0.000000)
 32:   3208.88   0.000083    0.42  0.000008  ( 0.001998 -0.002030 -0.000000)

* The epsilon (eps) is given for a Dirac delta lineshape.
** The dipole moment derivative (T) already includes vibrational overlap.

The first frequency considered to be a vibration is 6
The total number of vibrations considered is 27


--------------------------
THERMOCHEMISTRY AT 298.15K
--------------------------

Temperature         ... 298.15 K
Pressure            ... 1.00 atm
Total Mass          ... 157.99 AMU

Throughout the following assumptions are being made:
  (1) The electronic state is orbitally nondegenerate
  (2) There are no thermally accessible electronically excited states
  (3) Hindered rotations indicated by low frequency modes are not
      treated as such but are treated as vibrations and this may
      cause some error
  (4) All equations used are the standard statistical mechanics
      equations for an ideal gas
  (5) All vibrations are strictly harmonic

freq.     153.32  E(vib)   ...       0.40 
freq.     261.47  E(vib)   ...       0.30 
freq.     307.92  E(vib)   ...       0.26 
freq.     407.76  E(vib)   ...       0.19 
freq.     471.74  E(vib)   ...       0.15 
freq.     621.79  E(vib)   ...       0.09 
freq.     713.46  E(vib)   ...       0.07 
freq.     742.72  E(vib)   ...       0.06 
freq.     764.35  E(vib)   ...       0.06 
freq.     888.38  E(vib)   ...       0.04 
freq.     969.29  E(vib)   ...       0.03 
freq.     999.08  E(vib)   ...       0.02 
freq.    1002.10  E(vib)   ...       0.02 
freq.    1063.74  E(vib)   ...       0.02 
freq.    1096.50  E(vib)   ...       0.02 
freq.    1127.13  E(vib)   ...       0.01 
freq.    1176.73  E(vib)   ...       0.01 
freq.    1303.65  E(vib)   ...       0.01 
freq.    1319.01  E(vib)   ...       0.01 
freq.    1440.17  E(vib)   ...       0.00 
freq.    1477.63  E(vib)   ...       0.00 
freq.    1598.78  E(vib)   ...       0.00 
freq.    1604.90  E(vib)   ...       0.00 
freq.    3149.70  E(vib)   ...       0.00 
freq.    3176.18  E(vib)   ...       0.00 
freq.    3195.38  E(vib)   ...       0.00 
freq.    3208.88  E(vib)   ...       0.00 

------------
INNER ENERGY
------------

The inner energy is: U= E(el) + E(ZPE) + E(vib) + E(rot) + E(trans)
    E(el)   - is the total energy from the electronic structure calculation
              = E(kin-el) + E(nuc-el) + E(el-el) + E(nuc-nuc)
    E(ZPE)  - the the zero temperature vibrational energy from the frequency calculation
    E(vib)  - the the finite temperature correction to E(ZPE) due to population
              of excited vibrational states
    E(rot)  - is the rotational thermal energy
    E(trans)- is the translational thermal energy

Summary of contributions to the inner energy U:
Electronic energy                ...  -2821.76354133 Eh
Zero point energy                ...      0.07800846 Eh      48.95 kcal/mol
Thermal vibrational correction   ...      0.00281384 Eh       1.77 kcal/mol
Thermal rotational correction    ...      0.00141627 Eh       0.89 kcal/mol
Thermal translational correction ...      0.00141627 Eh       0.89 kcal/mol
-----------------------------------------------------------------------
Total thermal energy                  -2821.67988649 Eh


Summary of corrections to the electronic energy:
(perhaps to be used in another calculation)
Total thermal correction                  0.00564638 Eh       3.54 kcal/mol
Non-thermal (ZPE) correction              0.07800846 Eh      48.95 kcal/mol
-----------------------------------------------------------------------
Total correction                          0.08365484 Eh      52.49 kcal/mol


--------
ENTHALPY
--------

The enthalpy is H = U + kB*T
                kB is Boltzmann's constant
Total free energy                 ...  -2821.67988649 Eh 
Thermal Enthalpy correction       ...      0.00094421 Eh       0.59 kcal/mol
-----------------------------------------------------------------------
Total Enthalpy                    ...  -2821.67894228 Eh


Note: Rotational entropy computed according to Herzberg 
Infrared and Raman Spectra, Chapter V,1, Van Nostrand Reinhold, 1945 
Point Group:  Cs, Symmetry Number:   1  
Rotational constants in cm-1:     0.196988     0.033633     0.028728 

Vibrational entropy computed according to the QRRHO of S. Grimme
Chem.Eur.J. 2012 18 9955


-------
ENTROPY
-------

The entropy contributions are T*S = T*(S(el)+S(vib)+S(rot)+S(trans))
     S(el)   - electronic entropy
     S(vib)  - vibrational entropy
     S(rot)  - rotational entropy
     S(trans)- translational entropy
The entropies will be listed as multiplied by the temperature to get
units of energy

Electronic entropy                ...      0.00000000 Eh      0.00 kcal/mol
Vibrational entropy               ...      0.00440903 Eh      2.77 kcal/mol
Rotational entropy                ...      0.01355509 Eh      8.51 kcal/mol
Translational entropy             ...      0.01951903 Eh     12.25 kcal/mol
-----------------------------------------------------------------------
Final entropy term                ...      0.03748315 Eh     23.52 kcal/mol

In case the symmetry of your molecule has not been determined correctly
or in case you have a reason to use a different symmetry number we print 
out the resulting rotational entropy values for sn=1,12 :
 --------------------------------------------------------
|  sn= 1 | S(rot)=       0.01355509 Eh      8.51 kcal/mol|
|  sn= 2 | S(rot)=       0.01290064 Eh      8.10 kcal/mol|
|  sn= 3 | S(rot)=       0.01251780 Eh      7.86 kcal/mol|
|  sn= 4 | S(rot)=       0.01224618 Eh      7.68 kcal/mol|
|  sn= 5 | S(rot)=       0.01203549 Eh      7.55 kcal/mol|
|  sn= 6 | S(rot)=       0.01186335 Eh      7.44 kcal/mol|
|  sn= 7 | S(rot)=       0.01171780 Eh      7.35 kcal/mol|
|  sn= 8 | S(rot)=       0.01159172 Eh      7.27 kcal/mol|
|  sn= 9 | S(rot)=       0.01148051 Eh      7.20 kcal/mol|
|  sn=10 | S(rot)=       0.01138104 Eh      7.14 kcal/mol|
|  sn=11 | S(rot)=       0.01129104 Eh      7.09 kcal/mol|
|  sn=12 | S(rot)=       0.01120889 Eh      7.03 kcal/mol|
 --------------------------------------------------------


-------------------
GIBBS FREE ENERGY
-------------------

The Gibbs free energy is G = H - T*S

Total enthalpy                    ...  -2821.67894228 Eh 
Total entropy correction          ...     -0.03748315 Eh    -23.52 kcal/mol
-----------------------------------------------------------------------
Final Gibbs free energy         ...  -2821.71642543 Eh

For completeness - the Gibbs free energy minus the electronic energy
G-E(el)                           ...      0.04711591 Eh     29.57 kcal/mol


Timings for individual modules:

Sum of individual times         ...       37.014 sec (=   0.617 min)
GTO integral calculation        ...        2.227 sec (=   0.037 min)   6.0 %
SCF iterations                  ...       11.752 sec (=   0.196 min)  31.7 %
SCF Gradient evaluation         ...        3.326 sec (=   0.055 min)   9.0 %
Geometry relaxation             ...        0.093 sec (=   0.002 min)   0.3 %
Analytical frequency calculation...       19.616 sec (=   0.327 min)  53.0 %
                             ****ORCA TERMINATED NORMALLY****
TOTAL RUN TIME: 0 days 0 hours 0 minutes 38 seconds 593 msec
