Job Start Time: Thu Apr 18 14:05:28 MDT 2024
SLURM Job ID: 254448
SLURM Job Name: arbr_05_r2scan3c
SLURM Job Nodes: node17
SLURM Memory / CPU: 8000

                                 *****************
                                 * O   R   C   A *
                                 *****************

                                            #,                                       
                                            ###                                      
                                            ####                                     
                                            #####                                    
                                            ######                                   
                                           ########,                                 
                                     ,,################,,,,,                         
                               ,,#################################,,                 
                          ,,##########################################,,             
                       ,#########################################, ''#####,          
                    ,#############################################,,   '####,        
                  ,##################################################,,,,####,       
                ,###########''''           ''''###############################       
              ,#####''   ,,,,##########,,,,          '''####'''          '####       
            ,##' ,,,,###########################,,,                        '##       
           ' ,,###''''                  '''############,,,                           
         ,,##''                                '''############,,,,        ,,,,,,###''
      ,#''                                            '''#######################'''  
     '                                                          ''''####''''         
             ,#######,   #######,   ,#######,      ##                                
            ,#'     '#,  ##    ##  ,#'     '#,    #''#        ######   ,####,        
            ##       ##  ##   ,#'  ##            #'  '#       #        #'  '#        
            ##       ##  #######   ##           ,######,      #####,   #    #        
            '#,     ,#'  ##    ##  '#,     ,#' ,#      #,         ##   #,  ,#        
             '#######'   ##     ##  '#######'  #'      '#     #####' # '####'        



                  #######################################################
                  #                        -***-                        #
                  #          Department of theory and spectroscopy      #
                  #    Directorship and core code : Frank Neese         #
                  #        Max Planck Institute fuer Kohlenforschung    #
                  #                Kaiser Wilhelm Platz 1               #
                  #                 D-45470 Muelheim/Ruhr               #
                  #                      Germany                        #
                  #                                                     #
                  #                  All rights reserved                #
                  #                        -***-                        #
                  #######################################################


                         Program Version 5.0.3 -  RELEASE  -


 With contributions from (in alphabetic order):
   Daniel Aravena         : Magnetic Suceptibility
   Michael Atanasov       : Ab Initio Ligand Field Theory (pilot matlab implementation)
   Alexander A. Auer      : GIAO ZORA, VPT2 properties, NMR spectrum
   Ute Becker             : Parallelization
   Giovanni Bistoni       : ED, misc. LED, open-shell LED, HFLD
   Martin Brehm           : Molecular dynamics
   Dmytro Bykov           : SCF Hessian
   Vijay G. Chilkuri      : MRCI spin determinant printing, contributions to CSF-ICE
   Dipayan Datta          : RHF DLPNO-CCSD density
   Achintya Kumar Dutta   : EOM-CC, STEOM-CC
   Dmitry Ganyushin       : Spin-Orbit,Spin-Spin,Magnetic field MRCI
   Miquel Garcia          : C-PCM and meta-GGA Hessian, CC/C-PCM, Gaussian charge scheme
   Yang Guo               : DLPNO-NEVPT2, F12-NEVPT2, CIM, IAO-localization
   Andreas Hansen         : Spin unrestricted coupled pair/coupled cluster methods
   Benjamin Helmich-Paris : MC-RPA, TRAH-SCF, COSX integrals
   Lee Huntington         : MR-EOM, pCC
   Robert Izsak           : Overlap fitted RIJCOSX, COSX-SCS-MP3, EOM
   Marcus Kettner         : VPT2
   Christian Kollmar      : KDIIS, OOCD, Brueckner-CCSD(T), CCSD density, CASPT2, CASPT2-K
   Simone Kossmann        : Meta GGA functionals, TD-DFT gradient, OOMP2, MP2 Hessian
   Martin Krupicka        : Initial AUTO-CI
   Lucas Lang             : DCDCAS
   Marvin Lechner         : AUTO-CI (C++ implementation), FIC-MRCC
   Dagmar Lenk            : GEPOL surface, SMD
   Dimitrios Liakos       : Extrapolation schemes; Compound Job, initial MDCI parallelization
   Dimitrios Manganas     : Further ROCIS development; embedding schemes
   Dimitrios Pantazis     : SARC Basis sets
   Anastasios Papadopoulos: AUTO-CI, single reference methods and gradients
   Taras Petrenko         : DFT Hessian,TD-DFT gradient, ASA, ECA, R-Raman, ABS, FL, XAS/XES, NRVS
   Peter Pinski           : DLPNO-MP2, DLPNO-MP2 Gradient
   Christoph Reimann      : Effective Core Potentials
   Marius Retegan         : Local ZFS, SOC
   Christoph Riplinger    : Optimizer, TS searches, QM/MM, DLPNO-CCSD(T), (RO)-DLPNO pert. Triples
   Tobias Risthaus        : Range-separated hybrids, TD-DFT gradient, RPA, STAB
   Michael Roemelt        : Original ROCIS implementation
   Masaaki Saitow         : Open-shell DLPNO-CCSD energy and density
   Barbara Sandhoefer     : DKH picture change effects
   Avijit Sen             : IP-ROCIS
   Kantharuban Sivalingam : CASSCF convergence, NEVPT2, FIC-MRCI
   Bernardo de Souza      : ESD, SOC TD-DFT
   Georgi Stoychev        : AutoAux, RI-MP2 NMR, DLPNO-MP2 response
   Willem Van den Heuvel  : Paramagnetic NMR
   Boris Wezisla          : Elementary symmetry handling
   Frank Wennmohs         : Technical directorship


 We gratefully acknowledge several colleagues who have allowed us to
 interface, adapt or use parts of their codes:
   Stefan Grimme, W. Hujo, H. Kruse, P. Pracht,  : VdW corrections, initial TS optimization,
                  C. Bannwarth, S. Ehlert          DFT functionals, gCP, sTDA/sTD-DF
   Ed Valeev, F. Pavosevic, A. Kumar             : LibInt (2-el integral package), F12 methods
   Garnet Chan, S. Sharma, J. Yang, R. Olivares  : DMRG
   Ulf Ekstrom                                   : XCFun DFT Library
   Mihaly Kallay                                 : mrcc  (arbitrary order and MRCC methods)
   Jiri Pittner, Ondrej Demel                    : Mk-CCSD
   Frank Weinhold                                : gennbo (NPA and NBO analysis)
   Christopher J. Cramer and Donald G. Truhlar   : smd solvation model
   Lars Goerigk                                  : TD-DFT with DH, B97 family of functionals
   V. Asgeirsson, H. Jonsson                     : NEB implementation
   FAccTs GmbH                                   : IRC, NEB, NEB-TS, DLPNO-Multilevel, CI-OPT
                                                   MM, QMMM, 2- and 3-layer-ONIOM, Crystal-QMMM,
                                                   LR-CPCM, SF, NACMEs, symmetry and pop. for TD-DFT,
                                                   nearIR, NL-DFT gradient (VV10), updates on ESD,
                                                   ML-optimized integration grids
   S Lehtola, MJT Oliveira, MAL Marques          : LibXC Library
   Liviu Ungur et al                             : ANISO software


 Your calculation uses the libint2 library for the computation of 2-el integrals
 For citations please refer to: http://libint.valeyev.net

 Your ORCA version has been built with support for libXC version: 5.1.0
 For citations please refer to: https://tddft.org/programs/libxc/

 This ORCA versions uses:
   CBLAS   interface :  Fast vector & matrix operations
   LAPACKE interface :  Fast linear algebra routines
   SCALAPACK package :  Parallel linear algebra routines
   Shared memory     :  Shared parallel matrices
   BLAS/LAPACK       :  OpenBLAS 0.3.15  USE64BITINT DYNAMIC_ARCH NO_AFFINITY Zen SINGLE_THREADED
        Core in use  :  Zen
   Copyright (c) 2011-2014, The OpenBLAS Project


Your calculation utilizes the geometrical counterpoise correction gCP
Please cite in your paper:
H.Kruse, S. Grimme J.Chem.Phys., 136, (2012), 154101 
   

Your calculation utilizes the atom-pairwise dispersion correction
based on tight binding partial charges (D4)
Cite in your paper:
E.Caldeweyher, C.Bannwarth, S.Grimme, J.Chem.Phys., (2017), 147, 034112.
E.Caldeweyher, S.Ehlert, A.Hansen, H.Neugebauer, S.Grimme, J.Chem.Phys., (2018), in progress.
   

================================================================================

----- Orbital basis set information -----
Your calculation utilizes the basis: def2-mTZVPP
   Stefan Grimme, Andreas Hansen, Sebastian Ehlert, and Jan-Michael Mewes 
   J. Chem. Phys. 154, 000000 (2021). DOI: 10.1063/5.0040021

----- AuxJ basis set information -----
Your calculation utilizes the basis: def2-mTZVPP/J
   Stefan Grimme, Andreas Hansen, Sebastian Ehlert, and Jan-Michael Mewes 
   J. Chem. Phys. 154, 000000 (2021). DOI: 10.1063/5.0040021

================================================================================
                                        WARNINGS
                       Please study these warnings very carefully!
================================================================================

Using LibXC functional ID 497 : Re-regularized SCAN exchange by Furness et al
[ 1]  J. W. Furness, A. D. Kaplan, J. Ning, J. P. Perdew, and J. Sun, J. Phys. Chem. Lett. 11, 8208 (2020)
[ 2]  J. W. Furness, A. D. Kaplan, J. Ning, J. P. Perdew, and J. Sun, J. Phys. Chem. Lett. 11, 9248 (2020)
Using LibXC functional ID 498 : Re-regularized SCAN correlation by Furness et al
[ 1]  J. W. Furness, A. D. Kaplan, J. Ning, J. P. Perdew, and J. Sun, J. Phys. Chem. Lett. 11, 8208 (2020)
[ 2]  J. W. Furness, A. D. Kaplan, J. Ning, J. P. Perdew, and J. Sun, J. Phys. Chem. Lett. 11, 9248 (2020)
Using LibXC functional ID 497 : Re-regularized SCAN exchange by Furness et al
[ 1]  J. W. Furness, A. D. Kaplan, J. Ning, J. P. Perdew, and J. Sun, J. Phys. Chem. Lett. 11, 8208 (2020)
[ 2]  J. W. Furness, A. D. Kaplan, J. Ning, J. P. Perdew, and J. Sun, J. Phys. Chem. Lett. 11, 9248 (2020)
Using LibXC functional ID 498 : Re-regularized SCAN correlation by Furness et al
[ 1]  J. W. Furness, A. D. Kaplan, J. Ning, J. P. Perdew, and J. Sun, J. Phys. Chem. Lett. 11, 8208 (2020)
[ 2]  J. W. Furness, A. D. Kaplan, J. Ning, J. P. Perdew, and J. Sun, J. Phys. Chem. Lett. 11, 9248 (2020)

WARNING: Geometry Optimization
  ===> : Switching off AutoStart
         For restart on a previous wavefunction, please use MOREAD

INFO   : the flag for use of the SHARK integral package has been found!

================================================================================
                                       INPUT FILE
================================================================================
NAME = /tmp/254448/arbr_05_r2scan3c.inp
|  1> %maxcore 4000
|  2> %PAL NPROCS 16 END
|  3> ! r2scan-3c opt freq
|  4> 
|  5> # arbr_05_rdkit_conf_1_r2scan3ccreated by GaussianPrep
|  6> 
|  7> * xyz 0 1
|  8> Br  2.163342  -0.283878  -0.0
|  9> C  0.441051  0.502177  0.000001
| 10> C  0.266091  1.866448  0.000001
| 11> C  -1.030475  2.407981  -0.000001
| 12> C  -2.148997  1.60213  -0.0
| 13> C  -1.985162  0.211827  0.000003
| 14> C  -2.879273  -0.908728  -0.000001
| 15> C  -2.109848  -2.031806  0.0
| 16> N  -0.780199  -1.685414  -0.000004
| 17> C  -0.678166  -0.323247  0.000003
| 18> H  1.129712  2.516656  0.000001
| 19> H  -1.141065  3.48411  -0.000003
| 20> H  -3.139991  2.036949  -0.000002
| 21> H  -3.955575  -0.879117  -0.000005
| 22> H  -2.401867  -3.068655  0.0
| 23> H  0.001894  -2.317016  0.000017
| 24> 
| 25> *
| 26> 
| 27>                          ****END OF INPUT****
================================================================================

                       *****************************
                       * Geometry Optimization Run *
                       *****************************

Geometry optimization settings:
Update method            Update   .... BFGS
Choice of coordinates    CoordSys .... Z-matrix Internals
Initial Hessian          InHess   .... Almoef's Model

Convergence Tolerances:
Energy Change            TolE     ....  5.0000e-06 Eh
Max. Gradient            TolMAXG  ....  3.0000e-04 Eh/bohr
RMS Gradient             TolRMSG  ....  1.0000e-04 Eh/bohr
Max. Displacement        TolMAXD  ....  4.0000e-03 bohr
RMS Displacement         TolRMSD  ....  2.0000e-03 bohr
Strict Convergence                ....  False
------------------------------------------------------------------------------
                        ORCA OPTIMIZATION COORDINATE SETUP
------------------------------------------------------------------------------

The optimization will be done in new redundant internal coordinates
Making redundant internal coordinates   ...  (new redundants) done
Evaluating the initial hessian          ...  (Almloef) done
Evaluating the coordinates              ...  done
Calculating the B-matrix                .... done
Calculating the G-matrix                .... done
Diagonalizing the G-matrix              .... done
The first mode is                       ....   42
The number of degrees of freedom        ....   42

    -----------------------------------------------------------------
                    Redundant Internal Coordinates


    -----------------------------------------------------------------
         Definition                    Initial Value    Approx d2E/dq
    -----------------------------------------------------------------
      1. B(C   1,Br  0)                  1.8932         0.330693   
      2. B(C   2,C   1)                  1.3754         0.659116   
      3. B(C   3,C   2)                  1.4051         0.591054   
      4. B(C   4,C   3)                  1.3786         0.651562   
      5. B(C   5,C   4)                  1.3999         0.602431   
      6. B(C   6,C   5)                  1.4336         0.532415   
      7. B(C   7,C   6)                  1.3614         0.694099   
      8. B(N   8,C   7)                  1.3740         0.593413   
      9. B(C   9,N   8)                  1.3660         0.611214   
     10. B(C   9,C   5)                  1.4123         0.575689   
     11. B(C   9,C   1)                  1.3907         0.623254   
     12. B(H  10,C   2)                  1.0810         0.372173   
     13. B(H  11,C   3)                  1.0818         0.371117   
     14. B(H  12,C   4)                  1.0822         0.370580   
     15. B(H  13,C   6)                  1.0767         0.378118   
     16. B(H  14,C   7)                  1.0772         0.377456   
     17. B(H  15,N   8)                  1.0053         0.440274   
     18. A(C   2,C   1,C   9)          119.1009         0.439292   
     19. A(Br  0,C   1,C   9)          119.0592         0.414124   
     20. A(Br  0,C   1,C   2)          121.8400         0.418267   
     21. A(C   1,C   2,C   3)          119.9767         0.435112   
     22. A(C   1,C   2,H  10)          119.6676         0.358593   
     23. A(C   3,C   2,H  10)          120.3557         0.352024   
     24. A(C   2,C   3,C   4)          121.5600         0.434210   
     25. A(C   4,C   3,H  11)          119.9038         0.357718   
     26. A(C   2,C   3,H  11)          118.5362         0.351855   
     27. A(C   3,C   4,H  12)          120.5383         0.357630   
     28. A(C   5,C   4,H  12)          120.4113         0.352905   
     29. A(C   3,C   4,C   5)          119.0505         0.435703   
     30. A(C   4,C   5,C   6)          134.6922         0.420212   
     31. A(C   6,C   5,C   9)          106.3232         0.416826   
     32. A(C   4,C   5,C   9)          118.9846         0.426122   
     33. A(C   5,C   6,C   7)          106.9978         0.431002   
     34. A(C   7,C   6,H  13)          125.9911         0.362748   
     35. A(C   5,C   6,H  13)          127.0111         0.346800   
     36. A(C   6,C   7,N   8)          109.8134         0.436618   
     37. A(C   6,C   7,H  14)          129.8554         0.362639   
     38. A(N   8,C   7,H  14)          120.3312         0.350930   
     39. A(C   9,N   8,H  15)          124.6399         0.358856   
     40. A(C   7,N   8,H  15)          126.4746         0.357056   
     41. A(C   7,N   8,C   9)          108.8855         0.423976   
     42. A(C   5,C   9,N   8)          107.9801         0.424445   
     43. A(C   1,C   9,N   8)          130.6926         0.430527   
     44. A(C   1,C   9,C   5)          121.3274         0.428725   
     45. D(C   3,C   2,C   1,C   9)     -0.0002         0.030309   
     46. D(H  10,C   2,C   1,C   9)    179.9999         0.030309   
     47. D(C   3,C   2,C   1,Br  0)    179.9999         0.030309   
     48. D(H  10,C   2,C   1,Br  0)     -0.0000         0.030309   
     49. D(H  11,C   3,C   2,C   1)   -179.9999         0.024045   
     50. D(C   4,C   3,C   2,H  10)   -179.9999         0.024045   
     51. D(H  11,C   3,C   2,H  10)      0.0000         0.024045   
     52. D(C   4,C   3,C   2,C   1)      0.0001         0.024045   
     53. D(H  12,C   4,C   3,H  11)      0.0000         0.029569   
     54. D(H  12,C   4,C   3,C   2)   -180.0000         0.029569   
     55. D(C   5,C   4,C   3,C   2)     -0.0000         0.029569   
     56. D(C   5,C   4,C   3,H  11)   -180.0000         0.029569   
     57. D(C   9,C   5,C   4,C   3)     -0.0001         0.025030   
     58. D(C   6,C   5,C   4,H  12)      0.0003         0.025030   
     59. D(C   6,C   5,C   4,C   3)   -179.9997         0.025030   
     60. D(C   9,C   5,C   4,H  12)    179.9999         0.025030   
     61. D(H  13,C   6,C   5,C   9)   -179.9998         0.019353   
     62. D(H  13,C   6,C   5,C   4)     -0.0002         0.019353   
     63. D(C   7,C   6,C   5,C   9)      0.0001         0.019353   
     64. D(C   7,C   6,C   5,C   4)    179.9998         0.019353   
     65. D(H  14,C   7,C   6,H  13)     -0.0002         0.033883   
     66. D(H  14,C   7,C   6,C   5)    179.9999         0.033883   
     67. D(N   8,C   7,C   6,H  13)    179.9996         0.033883   
     68. D(N   8,C   7,C   6,C   5)     -0.0004         0.033883   
     69. D(H  15,N   8,C   7,H  14)     -0.0017         0.028331   
     70. D(H  15,N   8,C   7,C   6)    179.9985         0.028331   
     71. D(C   9,N   8,C   7,H  14)   -179.9997         0.028331   
     72. D(C   9,N   8,C   7,C   6)      0.0005         0.028331   
     73. D(N   8,C   9,C   1,Br  0)     -0.0005         0.026897   
     74. D(C   5,C   9,C   1,C   2)      0.0001         0.026897   
     75. D(C   5,C   9,C   1,Br  0)   -180.0000         0.026897   
     76. D(C   5,C   9,N   8,H  15)   -179.9984         0.030185   
     77. D(C   1,C   9,N   8,H  15)      0.0020         0.030185   
     78. D(C   1,C   9,N   8,C   7)   -179.9999         0.030185   
     79. D(N   8,C   9,C   5,C   6)      0.0001         0.022754   
     80. D(N   8,C   9,C   5,C   4)   -179.9996         0.022754   
     81. D(C   1,C   9,C   5,C   6)    179.9997         0.022754   
     82. D(C   5,C   9,N   8,C   7)     -0.0004         0.030185   
     83. D(C   1,C   9,C   5,C   4)      0.0000         0.022754   
     84. D(N   8,C   9,C   1,C   2)    179.9996         0.026897   
    -----------------------------------------------------------------

Number of atoms                         .... 16
Number of degrees of freedom            .... 84

         *************************************************************
         *                GEOMETRY OPTIMIZATION CYCLE   1            *
         *************************************************************
---------------------------------
CARTESIAN COORDINATES (ANGSTROEM)
---------------------------------
  Br     2.163342   -0.283878   -0.000000
  C      0.441051    0.502177    0.000001
  C      0.266091    1.866448    0.000001
  C     -1.030475    2.407981   -0.000001
  C     -2.148997    1.602130   -0.000000
  C     -1.985162    0.211827    0.000003
  C     -2.879273   -0.908728   -0.000001
  C     -2.109848   -2.031806    0.000000
  N     -0.780199   -1.685414   -0.000004
  C     -0.678166   -0.323247    0.000003
  H      1.129712    2.516656    0.000001
  H     -1.141065    3.484110   -0.000003
  H     -3.139991    2.036949   -0.000002
  H     -3.955575   -0.879117   -0.000005
  H     -2.401867   -3.068655    0.000000
  H      0.001894   -2.317016    0.000017

----------------------------
CARTESIAN COORDINATES (A.U.)
----------------------------
  NO LB      ZA    FRAG     MASS         X           Y           Z
   0 Br   35.0000    0    79.900    4.088124   -0.536452   -0.000000
   1 C     6.0000    0    12.011    0.833466    0.948977    0.000002
   2 C     6.0000    0    12.011    0.502839    3.527076    0.000002
   3 C     6.0000    0    12.011   -1.947316    4.550425   -0.000002
   4 C     6.0000    0    12.011   -4.061016    3.027587   -0.000000
   5 C     6.0000    0    12.011   -3.751413    0.400295    0.000006
   6 C     6.0000    0    12.011   -5.441037   -1.717247   -0.000002
   7 C     6.0000    0    12.011   -3.987035   -3.839557    0.000000
   8 N     7.0000    0    14.007   -1.474362   -3.184971   -0.000008
   9 C     6.0000    0    12.011   -1.281548   -0.610848    0.000006
  10 H     1.0000    0     1.008    2.134846    4.755791    0.000002
  11 H     1.0000    0     1.008   -2.156300    6.584014   -0.000006
  12 H     1.0000    0     1.008   -5.933723    3.849276   -0.000004
  13 H     1.0000    0     1.008   -7.474953   -1.661290   -0.000009
  14 H     1.0000    0     1.008   -4.538871   -5.798918    0.000000
  15 H     1.0000    0     1.008    0.003579   -4.378526    0.000032

--------------------------------
INTERNAL COORDINATES (ANGSTROEM)
--------------------------------
 Br     0   0   0     0.000000000000     0.00000000     0.00000000
 C      1   0   0     1.893190099199     0.00000000     0.00000000
 C      2   1   0     1.375444060310   121.83996272     0.00000000
 C      3   2   1     1.405112587108   119.97665874   179.99987023
 C      4   3   2     1.378581625689   121.56004689     0.00000000
 C      5   4   3     1.399922976111   119.05045359     0.00000000
 C      6   5   4     1.433554319990   134.69219425   180.00032570
 C      7   6   5     1.361366601878   106.99781257   179.99976200
 N      8   7   6     1.374028340640   109.81340015     0.00000000
 C      9   8   7     1.365983041266   108.88552642     0.00000000
 H      3   2   1     1.081023438647   119.66760348     0.00000000
 H      4   3   2     1.081796548684   118.53617886   180.00012327
 H      5   4   3     1.082190681350   120.53828523   180.00002623
 H      7   6   5     1.076709248842   127.01108429     0.00000000
 H      8   7   6     1.077186587905   129.85542259   179.99985510
 H      9   8   7     1.005281327537   126.47458959   179.99849308

---------------------------
INTERNAL COORDINATES (A.U.)
---------------------------
 Br     0   0   0     0.000000000000     0.00000000     0.00000000
 C      1   0   0     3.577610806938     0.00000000     0.00000000
 C      2   1   0     2.599212586514   121.83996272     0.00000000
 C      3   2   1     2.655277976959   119.97665874   179.99987023
 C      4   3   2     2.605141725807   121.56004689     0.00000000
 C      5   4   3     2.645471033433   119.05045359     0.00000000
 C      6   5   4     2.709025062881   134.69219425   180.00032570
 C      7   6   5     2.572610045417   106.99781257   179.99976200
 N      8   7   6     2.596537264055   109.81340015     0.00000000
 C      9   8   7     2.581333851574   108.88552642     0.00000000
 H      3   2   1     2.042838243393   119.66760348     0.00000000
 H      4   3   2     2.044299209634   118.53617886   180.00012327
 H      5   4   3     2.045044012433   120.53828523   180.00002623
 H      7   6   5     2.034685606171   127.01108429     0.00000000
 H      8   7   6     2.035587646273   129.85542259   179.99985510
 H      9   8   7     1.899706396589   126.47458959   179.99849308

---------------------
BASIS SET INFORMATION
---------------------
There are 4 groups of distinct atoms

 Group   1 Type Br  : 17s13p7d contracted to 6s5p3d pattern {842111/64111/511}
 Group   2 Type C   : 11s6p1d contracted to 5s3p1d pattern {62111/411/1}
 Group   3 Type N   : 11s6p2d contracted to 5s3p2d pattern {62111/411/11}
 Group   4 Type H   : 4s1p contracted to 2s1p pattern {31/1}

Atom   0Br   basis set group =>   1
Atom   1C    basis set group =>   2
Atom   2C    basis set group =>   2
Atom   3C    basis set group =>   2
Atom   4C    basis set group =>   2
Atom   5C    basis set group =>   2
Atom   6C    basis set group =>   2
Atom   7C    basis set group =>   2
Atom   8N    basis set group =>   3
Atom   9C    basis set group =>   2
Atom  10H    basis set group =>   4
Atom  11H    basis set group =>   4
Atom  12H    basis set group =>   4
Atom  13H    basis set group =>   4
Atom  14H    basis set group =>   4
Atom  15H    basis set group =>   4
---------------------------------
AUXILIARY/J BASIS SET INFORMATION
---------------------------------
There are 4 groups of distinct atoms

 Group   1 Type Br  : 19s5p5d3f1g contracted to 8s4p3d2f1g pattern {121111111/2111/311/21/1}
 Group   2 Type C   : 8s3p3d contracted to 6s3p3d pattern {311111/111/111}
 Group   3 Type N   : 8s3p3d contracted to 6s3p3d pattern {311111/111/111}
 Group   4 Type H   : 5s2p1d contracted to 3s1p1d pattern {311/2/1}

Atom   0Br   basis set group =>   1
Atom   1C    basis set group =>   2
Atom   2C    basis set group =>   2
Atom   3C    basis set group =>   2
Atom   4C    basis set group =>   2
Atom   5C    basis set group =>   2
Atom   6C    basis set group =>   2
Atom   7C    basis set group =>   2
Atom   8N    basis set group =>   3
Atom   9C    basis set group =>   2
Atom  10H    basis set group =>   4
Atom  11H    basis set group =>   4
Atom  12H    basis set group =>   4
Atom  13H    basis set group =>   4
Atom  14H    basis set group =>   4
Atom  15H    basis set group =>   4


           ************************************************************
           *        Program running with 16 parallel MPI-processes    *
           *              working on a common directory               *
           ************************************************************
------------------------------------------------------------------------------
                           ORCA GTO INTEGRAL CALCULATION
                           -- RI-GTO INTEGRALS CHOSEN --
------------------------------------------------------------------------------
------------------------------------------------------------------------------
                   ___                                                        
                  /   \      - P O W E R E D   B Y -                         
                 /     \                                                     
                 |  |  |   _    _      __       _____    __    __             
                 |  |  |  | |  | |    /  \     |  _  \  |  |  /  |          
                  \  \/   | |  | |   /    \    | | | |  |  | /  /          
                 / \  \   | |__| |  /  /\  \   | |_| |  |  |/  /          
                |  |  |   |  __  | /  /__\  \  |    /   |      \           
                |  |  |   | |  | | |   __   |  |    \   |  |\   \          
                \     /   | |  | | |  |  |  |  | |\  \  |  | \   \       
                 \___/    |_|  |_| |__|  |__|  |_| \__\ |__|  \__/        
                                                                              
                      - O R C A' S   B I G   F R I E N D -                    
                                      &                                       
                       - I N T E G R A L  F E E D E R -                       
                                                                              
 v1 FN, 2020, v2 2021                                                         
------------------------------------------------------------------------------


Reading SHARK input file /tmp/254448/arbr_05_r2scan3c.SHARKINP.tmp ... ok
----------------------
SHARK INTEGRAL PACKAGE
----------------------

Number of atoms                             ...     16
Number of basis functions                   ...    242
Number of shells                            ...    114
Maximum angular momentum                    ...      2
Integral batch strategy                     ... SHARK/LIBINT Hybrid
RI-J (if used) integral strategy            ... SPLIT-RIJ (Revised 2003 algorithm where possible)
Printlevel                                  ...      1
Contraction scheme used                     ... SEGMENTED contraction
Coulomb Range Separation                    ... NOT USED
Exchange Range Separation                   ... NOT USED
Finite Nucleus Model                        ... NOT USED
Auxiliary Coulomb fitting basis             ... AVAILABLE
   # of basis functions in Aux-J            ...    394
   # of shells in Aux-J                     ...    156
   Maximum angular momentum in Aux-J        ...      4
Auxiliary J/K fitting basis                 ... NOT available
Auxiliary Correlation fitting basis         ... NOT available
Auxiliary 'external' fitting basis          ... NOT available
Integral threshold                          ...     2.500000e-11
Primitive cut-off                           ...     2.500000e-12
Primitive pair pre-selection threshold      ...     2.500000e-12

Calculating pre-screening integrals         ... done (  0.0 sec) Dimension = 114
Organizing shell pair data                  ... done (  0.0 sec)
Shell pair information
Total number of shell pairs                 ...      6555
Shell pairs after pre-screening             ...      5758
Total number of primitive shell pairs       ...     26847
Primitive shell pairs kept                  ...     15938
          la=0 lb=0:   1695 shell pairs
          la=1 lb=0:   2136 shell pairs
          la=1 lb=1:    687 shell pairs
          la=2 lb=0:    707 shell pairs
          la=2 lb=1:    450 shell pairs
          la=2 lb=2:     83 shell pairs

Calculating one electron integrals          ... done (  0.0 sec)
Calculating RI/J V-Matrix + Cholesky decomp.... done (  0.0 sec)
Calculating Nuclear repulsion               ... done (  0.0 sec) ENN=    715.062268397103 Eh

SHARK setup successfully completed in   0.2 seconds

Maximum memory used throughout the entire GTOINT-calculation: 18.8 MB


           ************************************************************
           *        Program running with 16 parallel MPI-processes    *
           *              working on a common directory               *
           ************************************************************
-------------------------------------------------------------------------------
                                 ORCA SCF
-------------------------------------------------------------------------------

------------
SCF SETTINGS
------------
Hamiltonian:
 Density Functional     Method          .... DFT(GTOs)
  Functional kind                       .... Exchange
  Functional name                       .... Re-regularized SCAN exchange by Furness et al
  Functional family                     .... MGGA
  Functional refs                              
    [ 0] J. W. Furness, A. D. Kaplan, J. Ning, J. P. Perdew, and J. Sun, J. Phys. Chem. Lett. 11, 8208 (2020)
    [ 1] J. W. Furness, A. D. Kaplan, J. Ning, J. P. Perdew, and J. Sun, J. Phys. Chem. Lett. 11, 9248 (2020)
  Functional external parameters         .... 8
 Parameter  0 :         c1 parameter
 Parameter  1 :         c2 parameter
 Parameter  2 :          d parameter
 Parameter  3 :         k1 parameter
 Parameter  4 :       taur parameter
 Parameter  5 :     alphar parameter
 Parameter  6 :        eta parameter
 Parameter  7 :        dp2 parameter
  Functional kind                       .... Correlation
  Functional name                       .... Re-regularized SCAN correlation by Furness et al
  Functional family                     .... MGGA
  Functional refs                              
    [ 0] J. W. Furness, A. D. Kaplan, J. Ning, J. P. Perdew, and J. Sun, J. Phys. Chem. Lett. 11, 8208 (2020)
    [ 1] J. W. Furness, A. D. Kaplan, J. Ning, J. P. Perdew, and J. Sun, J. Phys. Chem. Lett. 11, 9248 (2020)
  Functional external parameters         .... 0
 Gradients option       PostSCFGGA      .... off
   Density functional embedding theory  .... OFF
 RI-approximation to the Coulomb term is turned on
   Number of AuxJ basis functions       .... 394


General Settings:
 Integral files         IntName         .... /tmp/254448/arbr_05_r2scan3c
 Hartree-Fock type      HFTyp           .... RHF
 Total Charge           Charge          ....    0
 Multiplicity           Mult            ....    1
 Number of Electrons    NEL             ....   96
 Basis Dimension        Dim             ....  242
 Nuclear Repulsion      ENuc            ....    715.0622683971 Eh

Convergence Acceleration:
 DIIS                   CNVDIIS         .... on
   Start iteration      DIISMaxIt       ....    12
   Startup error        DIISStart       ....  0.200000
   # of expansion vecs  DIISMaxEq       ....     5
   Bias factor          DIISBfac        ....   1.050
   Max. coefficient     DIISMaxC        ....  10.000
 Trust-Rad. Augm. Hess. CNVTRAH         .... auto
   Auto Start mean grad. ratio tolernc. ....  1.125000
   Auto Start start iteration           ....    20
   Auto Start num. interpolation iter.  ....    10
   Max. Number of Micro iterations      ....    16
   Max. Number of Macro iterations      .... Maxiter - #DIIS iter
   Number of Davidson start vectors     ....     2
   Converg. threshold I  (grad. norm)   ....   1.000e-05
   Converg. threshold II (energy diff.) ....   1.000e-08
   Grad. Scal. Fac. for Micro threshold ....   0.100
   Minimum threshold for Micro iter.    ....   0.010
   NR start threshold (gradient norm)   ....   0.001
   Initial trust radius                 ....   0.400
   Minimum AH scaling param. (alpha)    ....   1.000
   Maximum AH scaling param. (alpha)    .... 1000.000
   Orbital update algorithm             .... Taylor
   White noise on init. David. guess    .... on
   Maximum white noise                  ....   0.010
   Quad. conv. algorithm                .... NR
   COSX micro iterations for RIJONX calc.... off
 SOSCF                  CNVSOSCF        .... on
   Start iteration      SOSCFMaxIt      ....   150
   Startup grad/error   SOSCFStart      ....  0.003300
 Level Shifting         CNVShift        .... on
   Level shift para.    LevelShift      ....    0.2500
   Turn off err/grad.   ShiftErr        ....    0.0010
 Zerner damping         CNVZerner       .... off
 Static damping         CNVDamp         .... on
   Fraction old density DampFac         ....    0.7000
   Max. Damping (<1)    DampMax         ....    0.9800
   Min. Damping (>=0)   DampMin         ....    0.0000
   Turn off err/grad.   DampErr         ....    0.1000
 Fernandez-Rico         CNVRico         .... off

SCF Procedure:
 Maximum # iterations   MaxIter         ....   125
 SCF integral mode      SCFMode         .... Direct
   Integral package                     .... SHARK and LIBINT hybrid scheme
 Reset frequency        DirectResetFreq ....    20
 Integral Threshold     Thresh          ....  2.500e-11 Eh
 Primitive CutOff       TCut            ....  2.500e-12 Eh

Convergence Tolerance:
 Convergence Check Mode ConvCheckMode   .... Total+1el-Energy
 Convergence forced     ConvForced      .... 0
 Energy Change          TolE            ....  1.000e-08 Eh
 1-El. energy change                    ....  1.000e-05 Eh
 Orbital Gradient       TolG            ....  1.000e-05
 Orbital Rotation angle TolX            ....  1.000e-05
 DIIS Error             TolErr          ....  5.000e-07


Diagonalization of the overlap matrix:
Smallest eigenvalue                        ... 1.897e-05
Time for diagonalization                   ...    0.005 sec
Threshold for overlap eigenvalues          ... 1.000e-08
Number of eigenvalues below threshold      ... 0
Time for construction of square roots      ...    0.004 sec
Total time needed                          ...    0.010 sec

Time for model grid setup =    0.068 sec

------------------------------
INITIAL GUESS: MODEL POTENTIAL
------------------------------
Loading Hartree-Fock densities                     ... done
Calculating cut-offs                               ... done
Initializing the effective Hamiltonian             ... done
Setting up the integral package (SHARK)            ... done
Starting the Coulomb interaction                   ... done (   0.0 sec)
Reading the grid                                   ... done
Mapping shells                                     ... done
Starting the XC term evaluation                    ... done (   0.0 sec)
  promolecular density results
     # of electrons  =     95.994206816
     EX              =   -138.579050850
     EC              =     -3.769036165
     EX+EC           =   -142.348087015
Transforming the Hamiltonian                       ... done (   0.0 sec)
Diagonalizing the Hamiltonian                      ... done (   0.0 sec)
Back transforming the eigenvectors                 ... done (   0.0 sec)
Now organizing SCF variables                       ... done
                      ------------------
                      INITIAL GUESS DONE (   0.1 sec)
                      ------------------
-------------------
DFT GRID GENERATION
-------------------

General Integration Accuracy     IntAcc      ... 4.388
Radial Grid Type                 RadialGrid  ... OptM3 with GC (2021)
Angular Grid (max. ang.)         AngularGrid ... 4 (Lebedev-302)
Angular grid pruning method      GridPruning ... 4 (adaptive)
Weight generation scheme         WeightScheme... Becke
Basis function cutoff            BFCut       ... 1.0000e-11
Integration weight cutoff        WCut        ... 1.0000e-14
Angular grids for H and He will be reduced by one unit
Partially contracted basis set               ... off
Rotationally invariant grid construction     ... off

Total number of grid points                  ...    84527
Total number of batches                      ...     1327
Average number of points per batch           ...       63
Average number of grid points per atom       ...     5283
Time for grid setup =    0.377 sec

--------------
SCF ITERATIONS
--------------
ITER       Energy         Delta-E        Max-DP      RMS-DP      [F,P]     Damp
               ***  Starting incremental Fock matrix formation  ***
  0  -2937.0571641529   0.000000000000 0.05042428  0.00158220  0.1478835 0.7000
  1  -2937.1617074914  -0.104543338547 0.03410233  0.00123445  0.0755448 0.7000
                               ***Turning on DIIS***
  2  -2937.2011396461  -0.039432154669 0.06899034  0.00242205  0.0309662 0.0000
  3  -2937.2547548731  -0.053615227028 0.03179041  0.00107447  0.0465207 0.0000
  4  -2937.2744231024  -0.019668229314 0.01671554  0.00048062  0.0108590 0.0000
                      *** Initiating the SOSCF procedure ***
                           *** Shutting down DIIS ***
                      *** Re-Reading the Fockian *** 
                      *** Removing any level shift *** 
ITER      Energy       Delta-E        Grad      Rot      Max-DP    RMS-DP
  5  -2937.27536920  -0.0009461005  0.001689  0.001689  0.008185  0.000220
               *** Restarting incremental Fock matrix formation ***
  6  -2937.27545723  -0.0000880255  0.000343  0.002286  0.003869  0.000121
  7  -2937.27545670   0.0000005332  0.000696  0.001894  0.002844  0.000053
  8  -2937.27546550  -0.0000088023  0.000360  0.002034  0.001625  0.000046
  9  -2937.27546599  -0.0000004875  0.000258  0.000531  0.000656  0.000011
 10  -2937.27546681  -0.0000008240  0.000087  0.000296  0.000958  0.000020
 11  -2937.27546689  -0.0000000801  0.000118  0.000139  0.000264  0.000006
 12  -2937.27546709  -0.0000002002  0.000031  0.000168  0.000344  0.000007
 13  -2937.27546711  -0.0000000224  0.000023  0.000049  0.000107  0.000003
 14  -2937.27546713  -0.0000000186  0.000012  0.000059  0.000085  0.000002
 15  -2937.27546713  -0.0000000024  0.000010  0.000035  0.000043  0.000001
 16  -2937.27546715  -0.0000000130  0.000004  0.000015  0.000051  0.000001
 17  -2937.27546715  -0.0000000023  0.000004  0.000012  0.000035  0.000001
                  ***Gradient check signals convergence***
              ***Rediagonalizing the Fockian in SOSCF/NRSCF***

               *****************************************************
               *                     SUCCESS                       *
               *           SCF CONVERGED AFTER  18 CYCLES          *
               *****************************************************


----------------
TOTAL SCF ENERGY
----------------

Total Energy       :        -2937.27546714 Eh          -79927.32889 eV

Components:
Nuclear Repulsion  :          715.06226840 Eh           19457.83354 eV
Electronic Energy  :        -3652.33773554 Eh          -99385.16243 eV
One Electron Energy:        -5493.70777375 Eh         -149491.38852 eV
Two Electron Energy:         1841.37003822 Eh           50106.22609 eV

Virial components:
Potential Energy   :        -5869.60493113 Eh         -159720.07019 eV
Kinetic Energy     :         2932.32946399 Eh           79792.74130 eV
Virial Ratio       :            2.00168671


DFT components:
N(Alpha)           :       47.999973216942 electrons
N(Beta)            :       47.999973216942 electrons
N(Total)           :       95.999946433883 electrons
E(X)               :     -140.089024405973 Eh       
E(C)               :       -3.728586312102 Eh       
E(XC)              :     -143.817610718075 Eh       
DFET-embed. en.    :        0.000000000000 Eh       

---------------
SCF CONVERGENCE
---------------

  Last Energy change         ...    6.8239e-09  Tolerance :   1.0000e-08
  Last MAX-Density change    ...    4.6888e-05  Tolerance :   1.0000e-07
  Last RMS-Density change    ...    1.0797e-06  Tolerance :   5.0000e-09
  Last Orbital Gradient      ...    1.2391e-06  Tolerance :   1.0000e-05
  Last Orbital Rotation      ...    2.0702e-06  Tolerance :   1.0000e-05

             **** THE GBW FILE WAS UPDATED (/tmp/254448/arbr_05_r2scan3c.gbw) ****
             **** DENSITY /tmp/254448/arbr_05_r2scan3c.scfp WAS UPDATED ****
             **** ENERGY FILE WAS UPDATED (/tmp/254448/arbr_05_r2scan3c.en.tmp) ****
             **** THE GBW FILE WAS UPDATED (/tmp/254448/arbr_05_r2scan3c.gbw) ****
             **** DENSITY /tmp/254448/arbr_05_r2scan3c.scfp WAS UPDATED ****
----------------
ORBITAL ENERGIES
----------------

  NO   OCC          E(Eh)            E(eV) 
   0   2.0000    -482.235784    -13122.3028 
   1   2.0000     -62.306829     -1695.4550 
   2   2.0000     -56.087988     -1526.2318 
   3   2.0000     -56.084207     -1526.1288 
   4   2.0000     -56.084166     -1526.1277 
   5   2.0000     -14.216695      -386.8559 
   6   2.0000     -10.094140      -274.6755 
   7   2.0000     -10.077645      -274.2267 
   8   2.0000     -10.073869      -274.1239 
   9   2.0000     -10.043032      -273.2848 
  10   2.0000     -10.042365      -273.2666 
  11   2.0000     -10.038066      -273.1497 
  12   2.0000     -10.036351      -273.1030 
  13   2.0000     -10.030566      -272.9456 
  14   2.0000      -8.638815      -235.0741 
  15   2.0000      -6.446311      -175.4131 
  16   2.0000      -6.432575      -175.0393 
  17   2.0000      -6.432548      -175.0385 
  18   2.0000      -2.543852       -69.2217 
  19   2.0000      -2.540589       -69.1329 
  20   2.0000      -2.540582       -69.1327 
  21   2.0000      -2.530086       -68.8471 
  22   2.0000      -2.530062       -68.8465 
  23   2.0000      -0.963296       -26.2126 
  24   2.0000      -0.832936       -22.6653 
  25   2.0000      -0.786126       -21.3916 
  26   2.0000      -0.742530       -20.2053 
  27   2.0000      -0.709682       -19.3114 
  28   2.0000      -0.689545       -18.7635 
  29   2.0000      -0.597747       -16.2655 
  30   2.0000      -0.576377       -15.6840 
  31   2.0000      -0.563923       -15.3451 
  32   2.0000      -0.514376       -13.9969 
  33   2.0000      -0.461527       -12.5588 
  34   2.0000      -0.449967       -12.2442 
  35   2.0000      -0.421468       -11.4687 
  36   2.0000      -0.410937       -11.1822 
  37   2.0000      -0.401684       -10.9304 
  38   2.0000      -0.395441       -10.7605 
  39   2.0000      -0.375528       -10.2186 
  40   2.0000      -0.340883        -9.2759 
  41   2.0000      -0.335794        -9.1374 
  42   2.0000      -0.320983        -8.7344 
  43   2.0000      -0.299177        -8.1410 
  44   2.0000      -0.274197        -7.4613 
  45   2.0000      -0.251113        -6.8331 
  46   2.0000      -0.217533        -5.9194 
  47   2.0000      -0.198417        -5.3992 
  48   0.0000      -0.048348        -1.3156 
  49   0.0000      -0.020937        -0.5697 
  50   0.0000      -0.012534        -0.3411 
  51   0.0000       0.025930         0.7056 
  52   0.0000       0.067375         1.8334 
  53   0.0000       0.095637         2.6024 
  54   0.0000       0.102381         2.7859 
  55   0.0000       0.119301         3.2464 
  56   0.0000       0.123072         3.3490 
  57   0.0000       0.129933         3.5357 
  58   0.0000       0.135734         3.6935 
  59   0.0000       0.152576         4.1518 
  60   0.0000       0.161676         4.3994 
  61   0.0000       0.173150         4.7117 
  62   0.0000       0.180067         4.8999 
  63   0.0000       0.190295         5.1782 
  64   0.0000       0.197431         5.3724 
  65   0.0000       0.212120         5.7721 
  66   0.0000       0.220869         6.0101 
  67   0.0000       0.223896         6.0925 
  68   0.0000       0.235165         6.3992 
  69   0.0000       0.236715         6.4413 
  70   0.0000       0.250122         6.8062 
  71   0.0000       0.252779         6.8785 
  72   0.0000       0.257962         7.0195 
  73   0.0000       0.290419         7.9027 
  74   0.0000       0.293904         7.9975 
  75   0.0000       0.297002         8.0818 
  76   0.0000       0.299683         8.1548 
  77   0.0000       0.309050         8.4097 
  78   0.0000       0.317039         8.6271 
  79   0.0000       0.329673         8.9709 
  80   0.0000       0.352097         9.5810 
  81   0.0000       0.360144         9.8000 
  82   0.0000       0.363822         9.9001 
  83   0.0000       0.368450        10.0260 
  84   0.0000       0.376299        10.2396 
  85   0.0000       0.376912        10.2563 
  86   0.0000       0.410897        11.1811 
  87   0.0000       0.422307        11.4916 
  88   0.0000       0.450311        12.2536 
  89   0.0000       0.469924        12.7873 
  90   0.0000       0.473207        12.8766 
  91   0.0000       0.498924        13.5764 
  92   0.0000       0.501042        13.6340 
  93   0.0000       0.510612        13.8945 
  94   0.0000       0.516187        14.0462 
  95   0.0000       0.521662        14.1952 
  96   0.0000       0.535085        14.5604 
  97   0.0000       0.550890        14.9905 
  98   0.0000       0.560537        15.2530 
  99   0.0000       0.567856        15.4522 
 100   0.0000       0.580329        15.7916 
 101   0.0000       0.588129        16.0038 
 102   0.0000       0.603853        16.4317 
 103   0.0000       0.611719        16.6457 
 104   0.0000       0.623133        16.9563 
 105   0.0000       0.652559        17.7570 
 106   0.0000       0.661514        18.0007 
 107   0.0000       0.669416        18.2157 
 108   0.0000       0.678459        18.4618 
 109   0.0000       0.684406        18.6236 
 110   0.0000       0.689608        18.7652 
 111   0.0000       0.737546        20.0697 
 112   0.0000       0.757103        20.6018 
 113   0.0000       0.799294        21.7499 
 114   0.0000       0.811764        22.0892 
 115   0.0000       0.839945        22.8561 
 116   0.0000       0.920135        25.0381 
 117   0.0000       0.969957        26.3939 
 118   0.0000       1.032812        28.1042 
 119   0.0000       1.060991        28.8710 
 120   0.0000       1.086266        29.5588 
 121   0.0000       1.140509        31.0348 
 122   0.0000       1.187468        32.3126 
 123   0.0000       1.214718        33.0542 
 124   0.0000       1.237234        33.6668 
 125   0.0000       1.252427        34.0803 
 126   0.0000       1.290054        35.1042 
 127   0.0000       1.291300        35.1380 
 128   0.0000       1.326586        36.0982 
 129   0.0000       1.331168        36.2229 
 130   0.0000       1.336289        36.3623 
 131   0.0000       1.365541        37.1583 
 132   0.0000       1.369108        37.2553 
 133   0.0000       1.395826        37.9824 
 134   0.0000       1.396675        38.0054 
 135   0.0000       1.425275        38.7837 
 136   0.0000       1.428795        38.8795 
 137   0.0000       1.436849        39.0986 
 138   0.0000       1.451770        39.5047 
 139   0.0000       1.469153        39.9777 
 140   0.0000       1.471497        40.0415 
 141   0.0000       1.485992        40.4359 
 142   0.0000       1.492474        40.6123 
 143   0.0000       1.511468        41.1291 
 144   0.0000       1.514833        41.2207 
 145   0.0000       1.518900        41.3314 
 146   0.0000       1.525836        41.5201 
 147   0.0000       1.561730        42.4968 
 148   0.0000       1.564962        42.5848 
 149   0.0000       1.567579        42.6560 
 150   0.0000       1.580213        42.9998 
 151   0.0000       1.609132        43.7867 
 152   0.0000       1.624927        44.2165 
 153   0.0000       1.643167        44.7128 
 154   0.0000       1.663605        45.2690 
 155   0.0000       1.700258        46.2664 
 156   0.0000       1.717479        46.7350 
 157   0.0000       1.726424        46.9784 
 158   0.0000       1.751678        47.6656 
 159   0.0000       1.757070        47.8123 
 160   0.0000       1.803788        49.0836 
 161   0.0000       1.813629        49.3514 
 162   0.0000       1.829120        49.7729 
 163   0.0000       1.913813        52.0775 
 164   0.0000       2.000361        54.4326 
 165   0.0000       2.002314        54.4857 
 166   0.0000       2.024210        55.0816 
 167   0.0000       2.028032        55.1855 
 168   0.0000       2.053315        55.8735 
 169   0.0000       2.072165        56.3865 
 170   0.0000       2.099035        57.1177 
 171   0.0000       2.133549        58.0568 
 172   0.0000       2.134924        58.0942 
 173   0.0000       2.144016        58.3417 
 174   0.0000       2.177040        59.2403 
 175   0.0000       2.189919        59.5907 
 176   0.0000       2.224990        60.5451 
 177   0.0000       2.237753        60.8924 
 178   0.0000       2.238487        60.9123 
 179   0.0000       2.253820        61.3296 
 180   0.0000       2.267315        61.6968 
 181   0.0000       2.279828        62.0373 
 182   0.0000       2.318710        63.0953 
 183   0.0000       2.319416        63.1145 
 184   0.0000       2.328420        63.3595 
 185   0.0000       2.340469        63.6874 
 186   0.0000       2.344903        63.8081 
 187   0.0000       2.358732        64.1844 
 188   0.0000       2.389230        65.0143 
 189   0.0000       2.394245        65.1507 
 190   0.0000       2.417838        65.7927 
 191   0.0000       2.434455        66.2449 
 192   0.0000       2.455212        66.8097 
 193   0.0000       2.497117        67.9500 
 194   0.0000       2.514627        68.4265 
 195   0.0000       2.576662        70.1145 
 196   0.0000       2.582421        70.2713 
 197   0.0000       2.592525        70.5462 
 198   0.0000       2.643628        71.9368 
 199   0.0000       2.672273        72.7162 
 200   0.0000       2.698147        73.4203 
 201   0.0000       2.723069        74.0985 
 202   0.0000       2.745380        74.7056 
 203   0.0000       2.766037        75.2677 
 204   0.0000       2.792091        75.9767 
 205   0.0000       2.800993        76.2189 
 206   0.0000       2.818022        76.6823 
 207   0.0000       2.828811        76.9759 
 208   0.0000       2.888623        78.6034 
 209   0.0000       2.893872        78.7462 
 210   0.0000       2.952442        80.3400 
 211   0.0000       2.959975        80.5450 
 212   0.0000       2.979555        81.0778 
 213   0.0000       3.010926        81.9315 
 214   0.0000       3.029671        82.4415 
 215   0.0000       3.072080        83.5956 
 216   0.0000       3.112748        84.7022 
 217   0.0000       3.161061        86.0169 
 218   0.0000       3.186901        86.7200 
 219   0.0000       3.226544        87.7987 
 220   0.0000       3.244292        88.2817 
 221   0.0000       3.308891        90.0395 
 222   0.0000       3.322862        90.4197 
 223   0.0000       3.352024        91.2132 
 224   0.0000       3.436803        93.5202 
 225   0.0000       3.498634        95.2027 
 226   0.0000       3.576384        97.3183 
 227   0.0000       3.737265       101.6962 
 228   0.0000       3.837084       104.4124 
 229   0.0000       3.897436       106.0546 
 230   0.0000       4.106411       111.7411 
 231   0.0000       4.191886       114.0670 
 232   0.0000       7.525526       204.7800 
 233   0.0000      21.415614       582.7485 
 234   0.0000      21.758426       592.0769 
 235   0.0000      21.920897       596.4979 
 236   0.0000      22.063334       600.3738 
 237   0.0000      22.161000       603.0315 
 238   0.0000      22.230241       604.9156 
 239   0.0000      22.237277       605.1071 
 240   0.0000      22.343194       607.9892 
 241   0.0000      31.923429       868.6807 

                    ********************************
                    * MULLIKEN POPULATION ANALYSIS *
                    ********************************

-----------------------
MULLIKEN ATOMIC CHARGES
-----------------------
   0 Br:   -0.159048
   1 C :   -0.259154
   2 C :   -0.161270
   3 C :   -0.133825
   4 C :   -0.299772
   5 C :    0.282837
   6 C :   -0.295425
   7 C :   -0.132629
   8 N :   -0.068120
   9 C :    0.214249
  10 H :    0.160634
  11 H :    0.149171
  12 H :    0.151880
  13 H :    0.151303
  14 H :    0.139826
  15 H :    0.259344
Sum of atomic charges:    0.0000000

--------------------------------
MULLIKEN REDUCED ORBITAL CHARGES
--------------------------------
  0 Brs       :     7.982395  s :     7.982395
      pz      :     5.942755  p :    17.126800
      px      :     5.351383
      py      :     5.832662
      dz2     :     2.006139  d :    10.049853
      dxz     :     2.013549
      dyz     :     2.003608
      dx2y2   :     2.012718
      dxy     :     2.013838
  1 C s       :     3.413563  s :     3.413563
      pz      :     1.091466  p :     2.794773
      px      :     0.706712
      py      :     0.996595
      dz2     :     0.003565  d :     0.050818
      dxz     :     0.006463
      dyz     :     0.008499
      dx2y2   :     0.014574
      dxy     :     0.017717
  2 C s       :     3.151435  s :     3.151435
      pz      :     1.022853  p :     2.971685
      px      :     1.022545
      py      :     0.926287
      dz2     :     0.003347  d :     0.038150
      dxz     :     0.004026
      dyz     :     0.006120
      dx2y2   :     0.012703
      dxy     :     0.011954
  3 C s       :     3.159466  s :     3.159466
      pz      :     1.017108  p :     2.935752
      px      :     0.901907
      py      :     1.016737
      dz2     :     0.003264  d :     0.038607
      dxz     :     0.007425
      dyz     :     0.002227
      dx2y2   :     0.013633
      dxy     :     0.012058
  4 C s       :     3.259969  s :     3.259969
      pz      :     1.006983  p :     3.000491
      px      :     1.049276
      py      :     0.944232
      dz2     :     0.003257  d :     0.039312
      dxz     :     0.003313
      dyz     :     0.006466
      dx2y2   :     0.013848
      dxy     :     0.012428
  5 C s       :     3.087930  s :     3.087930
      pz      :     1.015159  p :     2.578267
      px      :     0.864733
      py      :     0.698375
      dz2     :     0.003906  d :     0.050966
      dxz     :     0.006060
      dyz     :     0.008796
      dx2y2   :     0.015980
      dxy     :     0.016226
  6 C s       :     3.235856  s :     3.235856
      pz      :     1.097633  p :     3.021874
      px      :     1.004923
      py      :     0.919318
      dz2     :     0.003457  d :     0.037694
      dxz     :     0.003383
      dyz     :     0.006681
      dx2y2   :     0.010377
      dxy     :     0.013796
  7 C s       :     3.243359  s :     3.243359
      pz      :     1.022035  p :     2.837539
      px      :     0.823307
      py      :     0.992197
      dz2     :     0.004129  d :     0.051731
      dxz     :     0.012099
      dyz     :     0.004087
      dx2y2   :     0.019112
      dxy     :     0.012304
  8 N s       :     3.294208  s :     3.294208
      pz      :     1.591759  p :     3.648095
      px      :     1.049599
      py      :     1.006737
      dz2     :     0.006748  d :     0.125818
      dxz     :     0.023101
      dyz     :     0.018904
      dx2y2   :     0.030770
      dxy     :     0.046295
  9 C s       :     3.146897  s :     3.146897
      pz      :     0.994365  p :     2.574936
      px      :     0.721463
      py      :     0.859108
      dz2     :     0.004726  d :     0.063918
      dxz     :     0.007178
      dyz     :     0.013675
      dx2y2   :     0.021977
      dxy     :     0.016361
 10 H s       :     0.819666  s :     0.819666
      pz      :     0.004393  p :     0.019699
      px      :     0.008947
      py      :     0.006360
 11 H s       :     0.831308  s :     0.831308
      pz      :     0.004423  p :     0.019522
      px      :     0.003186
      py      :     0.011912
 12 H s       :     0.828655  s :     0.828655
      pz      :     0.004316  p :     0.019465
      px      :     0.010527
      py      :     0.004622
 13 H s       :     0.828193  s :     0.828193
      pz      :     0.004943  p :     0.020504
      px      :     0.012365
      py      :     0.003195
 14 H s       :     0.839662  s :     0.839662
      pz      :     0.004851  p :     0.020512
      px      :     0.003667
      py      :     0.011994
 15 H s       :     0.707676  s :     0.707676
      pz      :     0.009301  p :     0.032980
      px      :     0.013853
      py      :     0.009826


                     *******************************
                     * LOEWDIN POPULATION ANALYSIS *
                     *******************************

----------------------
LOEWDIN ATOMIC CHARGES
----------------------
   0 Br:    0.199820
   1 C :   -0.216275
   2 C :   -0.186804
   3 C :   -0.175032
   4 C :   -0.148844
   5 C :   -0.029917
   6 C :   -0.158283
   7 C :    0.073287
   8 N :   -0.645784
   9 C :    0.123212
  10 H :    0.177524
  11 H :    0.170042
  12 H :    0.172270
  13 H :    0.174851
  14 H :    0.187980
  15 H :    0.281954

-------------------------------
LOEWDIN REDUCED ORBITAL CHARGES
-------------------------------
  0 Brs       :     7.664440  s :     7.664440
      pz      :     5.919740  p :    17.065487
      px      :     5.347572
      py      :     5.798176
      dz2     :     2.009708  d :    10.070252
      dxz     :     2.016338
      dyz     :     2.004431
      dx2y2   :     2.018912
      dxy     :     2.020863
  1 C s       :     2.910996  s :     2.910996
      pz      :     1.078313  p :     3.203990
      px      :     1.015171
      py      :     1.110506
      dz2     :     0.006872  d :     0.101289
      dxz     :     0.010909
      dyz     :     0.014598
      dx2y2   :     0.032344
      dxy     :     0.036567
  2 C s       :     2.903212  s :     2.903212
      pz      :     1.013190  p :     3.201305
      px      :     1.108580
      py      :     1.079535
      dz2     :     0.005902  d :     0.082287
      dxz     :     0.006787
      dyz     :     0.011389
      dx2y2   :     0.029256
      dxy     :     0.028953
  3 C s       :     2.902214  s :     2.902214
      pz      :     1.007969  p :     3.190806
      px      :     1.083454
      py      :     1.099383
      dz2     :     0.005540  d :     0.082012
      dxz     :     0.013700
      dyz     :     0.003301
      dx2y2   :     0.032155
      dxy     :     0.027317
  4 C s       :     2.896333  s :     2.896333
      pz      :     0.991641  p :     3.169791
      px      :     1.105033
      py      :     1.073118
      dz2     :     0.005559  d :     0.082720
      dxz     :     0.005212
      dyz     :     0.011860
      dx2y2   :     0.030882
      dxy     :     0.029207
  5 C s       :     2.834635  s :     2.834635
      pz      :     0.999787  p :     3.093701
      px      :     1.030235
      py      :     1.063679
      dz2     :     0.006876  d :     0.101581
      dxz     :     0.010849
      dyz     :     0.014448
      dx2y2   :     0.034150
      dxy     :     0.035258
  6 C s       :     2.890978  s :     2.890978
      pz      :     1.071276  p :     3.189205
      px      :     1.076817
      py      :     1.041112
      dz2     :     0.005635  d :     0.078101
      dxz     :     0.004391
      dyz     :     0.012269
      dx2y2   :     0.024586
      dxy     :     0.031220
  7 C s       :     2.833682  s :     2.833682
      pz      :     0.960653  p :     2.980943
      px      :     0.947514
      py      :     1.072776
      dz2     :     0.008060  d :     0.112087
      dxz     :     0.023793
      dyz     :     0.005805
      dx2y2   :     0.042495
      dxy     :     0.031934
  8 N s       :     3.088589  s :     3.088589
      pz      :     1.535757  p :     3.979602
      px      :     1.225888
      py      :     1.217957
      dz2     :     0.055738  d :     0.577593
      dxz     :     0.086976
      dyz     :     0.093518
      dx2y2   :     0.152285
      dxy     :     0.189076
  9 C s       :     2.766082  s :     2.766082
      pz      :     0.960662  p :     2.975238
      px      :     1.055167
      py      :     0.959410
      dz2     :     0.009888  d :     0.135468
      dxz     :     0.012250
      dyz     :     0.026297
      dx2y2   :     0.048126
      dxy     :     0.038906
 10 H s       :     0.777172  s :     0.777172
      pz      :     0.009691  p :     0.045304
      px      :     0.021119
      py      :     0.014494
 11 H s       :     0.785314  s :     0.785314
      pz      :     0.009544  p :     0.044645
      px      :     0.006908
      py      :     0.028193
 12 H s       :     0.783083  s :     0.783083
      pz      :     0.009338  p :     0.044647
      px      :     0.025040
      py      :     0.010269
 13 H s       :     0.778543  s :     0.778543
      pz      :     0.010953  p :     0.046606
      px      :     0.028805
      py      :     0.006848
 14 H s       :     0.768338  s :     0.768338
      pz      :     0.010129  p :     0.043682
      px      :     0.007083
      py      :     0.026470
 15 H s       :     0.631403  s :     0.631403
      pz      :     0.022235  p :     0.086643
      px      :     0.037171
      py      :     0.027236


                      *****************************
                      * MAYER POPULATION ANALYSIS *
                      *****************************

  NA   - Mulliken gross atomic population
  ZA   - Total nuclear charge
  QA   - Mulliken gross atomic charge
  VA   - Mayer's total valence
  BVA  - Mayer's bonded valence
  FA   - Mayer's free valence

  ATOM       NA         ZA         QA         VA         BVA        FA
  0 Br    35.1590    35.0000    -0.1590     1.0963     1.0963    -0.0000
  1 C      6.2592     6.0000    -0.2592     3.6289     3.6289     0.0000
  2 C      6.1613     6.0000    -0.1613     3.7495     3.7495     0.0000
  3 C      6.1338     6.0000    -0.1338     3.8182     3.8182     0.0000
  4 C      6.2998     6.0000    -0.2998     3.6632     3.6632    -0.0000
  5 C      5.7172     6.0000     0.2828     3.5192     3.5192    -0.0000
  6 C      6.2954     6.0000    -0.2954     3.6703     3.6703     0.0000
  7 C      6.1326     6.0000    -0.1326     3.8321     3.8321     0.0000
  8 N      7.0681     7.0000    -0.0681     3.4255     3.4255    -0.0000
  9 C      5.7858     6.0000     0.2142     3.8415     3.8415     0.0000
 10 H      0.8394     1.0000     0.1606     0.9672     0.9672    -0.0000
 11 H      0.8508     1.0000     0.1492     0.9686     0.9686    -0.0000
 12 H      0.8481     1.0000     0.1519     0.9708     0.9708    -0.0000
 13 H      0.8487     1.0000     0.1513     0.9758     0.9758     0.0000
 14 H      0.8602     1.0000     0.1398     0.9781     0.9781     0.0000
 15 H      0.7407     1.0000     0.2593     0.9230     0.9230    -0.0000

  Mayer bond orders larger than 0.100000
B(  0-Br,  1-C ) :   1.1126 B(  0-Br,  9-C ) :  -0.1146 B(  1-C ,  2-C ) :   1.3874 
B(  1-C ,  5-C ) :  -0.1003 B(  1-C ,  9-C ) :   1.1384 B(  2-C ,  3-C ) :   1.3251 
B(  2-C , 10-H ) :   0.9431 B(  3-C ,  4-C ) :   1.4740 B(  3-C , 11-H ) :   0.9441 
B(  4-C ,  5-C ) :   1.1771 B(  4-C , 12-H ) :   0.9394 B(  5-C ,  6-C ) :   1.1027 
B(  5-C ,  9-C ) :   1.4009 B(  6-C ,  7-C ) :   1.5682 B(  6-C , 13-H ) :   0.9432 
B(  7-C ,  8-N ) :   1.1820 B(  7-C , 14-H ) :   0.9488 B(  8-N ,  9-C ) :   1.2290 
B(  8-N , 15-H ) :   0.9007 

-------
TIMINGS
-------

Total SCF time: 0 days 0 hours 0 min 7 sec 

Total time                  ....       7.565 sec
Sum of individual times     ....       7.259 sec  ( 95.9%)

Fock matrix formation       ....       5.124 sec  ( 67.7%)
  Split-RI-J                ....       1.743 sec  ( 34.0% of F)
  XC integration            ....       2.336 sec  ( 45.6% of F)
    Basis function eval.    ....       0.331 sec  ( 14.2% of XC)
    Density eval.           ....       0.664 sec  ( 28.4% of XC)
    XC-Functional eval.     ....       0.265 sec  ( 11.3% of XC)
    XC-Potential eval.      ....       0.765 sec  ( 32.7% of XC)
Diagonalization             ....       0.998 sec  ( 13.2%)
Density matrix formation    ....       0.059 sec  (  0.8%)
Population analysis         ....       0.014 sec  (  0.2%)
Initial guess               ....       0.066 sec  (  0.9%)
Orbital Transformation      ....       0.000 sec  (  0.0%)
Orbital Orthonormalization  ....       0.000 sec  (  0.0%)
DIIS solution               ....       0.455 sec  (  6.0%)
SOSCF solution              ....       0.097 sec  (  1.3%)
Grid generation             ....       0.445 sec  (  5.9%)

Maximum memory used throughout the entire SCF-calculation: 31.0 MB


-------------------------------------------------------------------------------
                          DFT DISPERSION CORRECTION                            
                                                                               
                                 DFTD4 V2.5                                    
-------------------------------------------------------------------------------
The R2SCAN3C composite method is recognized
Using three-body term ABC
Active option DFTDOPT                   ...         5   

Starting D4
-------------------------   ----------------
Dispersion correction           -0.006700373
-------------------------   ----------------

------------------   -----------------
gCP correction             0.006068017
------------------   -----------------

-------------------------   --------------------
FINAL SINGLE POINT ENERGY     -2937.276099496221
-------------------------   --------------------



           ************************************************************
           *        Program running with 16 parallel MPI-processes    *
           *              working on a common directory               *
           ************************************************************
------------------------------------------------------------------------------
                         ORCA SCF GRADIENT CALCULATION
------------------------------------------------------------------------------

Gradient of the Kohn-Sham DFT energy:
Kohn-Sham wavefunction type      ... RKS
Hartree-Fock exchange scaling    ...    0.000
Number of operators              ...    1
Number of atoms                  ...   16
Basis set dimensions             ...  242
Integral neglect threshold       ... 2.5e-11
Integral primitive cutoff        ... 2.5e-12
SHARK Integral package           ... ON

Nuc. rep. gradient       (SHARK) ... done (  0.0 sec)
HCore & Overlap gradient (SHARK) ... done (  0.0 sec)
RI-J gradient            (SHARK) ... done (  0.2 sec)
Exchange-correlation gradient    ... done
Dispersion correction            ... Starting D4
Starting D4
Starting D4
Starting D4
Starting D4
Starting D4
Starting D4
Starting D4
Starting D4
Starting D4
Starting D4
Starting D4
Starting D4
Starting D4
Starting D4
Starting D4


------------------- 
Dispersion Gradient 
------------------- 
   1  :    0.000302864   -0.000043585   -0.000000000
   2  :    0.000085793    0.000021729    0.000000000
   3  :    0.000065470    0.000106698    0.000000000
   4  :   -0.000008725    0.000131086   -0.000000000
   5  :   -0.000078400    0.000099007   -0.000000000
   6  :   -0.000043320   -0.000041936   -0.000000000
   7  :   -0.000147931   -0.000078891   -0.000000000
   8  :   -0.000115969   -0.000197600   -0.000000000
   9  :    0.000027711   -0.000136857    0.000000000
  10  :   -0.000037169   -0.000068416   -0.000000000
  11  :    0.000031313    0.000034510    0.000000000
  12  :   -0.000007050    0.000047850   -0.000000000
  13  :   -0.000039056    0.000037446   -0.000000000
  14  :   -0.000046761   -0.000017919   -0.000000000
  15  :   -0.000017432   -0.000040261   -0.000000000
  16  :    0.000006660   -0.000034785   -0.000000000

  |G| =    0.002200200

done
gCP correction                   ... done

------------------
CARTESIAN GRADIENT
------------------

   1   Br  :   -0.006590072    0.002652673   -0.000000009
   2   C   :    0.005471371    0.002435989   -0.000000225
   3   C   :   -0.000696539   -0.003607083    0.000000101
   4   C   :   -0.002121444   -0.000574527   -0.000000138
   5   C   :    0.002810924    0.001603276   -0.000000009
   6   C   :    0.005625464   -0.000428521    0.000000405
   7   C   :    0.000822190   -0.006157240   -0.000000319
   8   C   :    0.001034717    0.005875661    0.000000302
   9   N   :   -0.003756731    0.001301498   -0.000000640
  10   C   :   -0.006195236   -0.000969430    0.000000388
  11   H   :   -0.001752683   -0.001807933    0.000000017
  12   H   :    0.000091519   -0.002592590   -0.000000012
  13   H   :    0.002539656   -0.000979746    0.000000013
  14   H   :    0.002410533   -0.000252094   -0.000000085
  15   H   :    0.000867770    0.002700306    0.000000051
  16   H   :   -0.000583442    0.000617836    0.000000160

Difference to translation invariance:
           :   -0.0000220011   -0.0001819244   -0.0000000009

Difference to rotation invariance:
           :    0.0000000072   -0.0000000006    0.0005447619

Norm of the cartesian gradient     ...    0.0176463661
RMS gradient                       ...    0.0025470336
MAX gradient                       ...    0.0065900718

-------
TIMINGS
-------

Total SCF gradient time            ...        0.786 sec

One electron gradient       ....       0.022 sec  (  2.8%)
RI-J Coulomb gradient       ....       0.197 sec  ( 25.1%)
XC gradient                 ....       0.405 sec  ( 51.5%)

Maximum memory used throughout the entire SCFGRAD-calculation: 31.8 MB
------------------------------------------------------------------------------
                         ORCA GEOMETRY RELAXATION STEP
------------------------------------------------------------------------------

Reading the OPT-File                    .... done
Getting information on internals        .... done
Copying old internal coords+grads       .... done
Making the new internal coordinates     .... (new redundants).... done
Validating the new internal coordinates .... (new redundants).... done
Calculating the B-matrix                .... done
Calculating the G,G- and P matrices     .... done
Transforming gradient to internals      .... done
Projecting the internal gradient        .... done
Number of atoms                         ....  16
Number of internal coordinates          ....  84
Current Energy                          .... -2937.276099496 Eh
Current gradient norm                   ....     0.017646366 Eh/bohr
Maximum allowed component of the step   ....  0.300
Current trust radius                    ....  0.300
Evaluating the initial hessian          ....  (Almloef) done
Projecting the Hessian                  .... done
Forming the augmented Hessian           .... done
Diagonalizing the augmented Hessian     .... done
Last element of RFO vector              ....  0.999351128
Lowest eigenvalues of augmented Hessian:
 -0.000608736  0.022423090  0.024564792  0.025628329  0.026268368
Length of the computed step             ....  0.036041746
The final length of the internal step   ....  0.036041746
Converting the step to cartesian space:
 Initial RMS(Int)=    0.0039324769
Transforming coordinates:
 Iter   0:  RMS(Cart)=    0.0079401795 RMS(Int)=    0.6855629040
 Iter   1:  RMS(Cart)=    0.0000067342 RMS(Int)=    0.0000029021
 Iter   2:  RMS(Cart)=    0.0000000311 RMS(Int)=    0.0000000133
done
Storing new coordinates                 .... done

                                .--------------------.
          ----------------------|Geometry convergence|-------------------------
          Item                value                   Tolerance       Converged
          ---------------------------------------------------------------------
          RMS gradient        0.0019243360            0.0001000000      NO
          MAX gradient        0.0071121579            0.0003000000      NO
          RMS step            0.0039324769            0.0020000000      NO
          MAX step            0.0214285864            0.0040000000      NO
          ........................................................
          Max(Bonds)      0.0113      Max(Angles)    0.13
          Max(Dihed)        0.00      Max(Improp)    0.00
          ---------------------------------------------------------------------

The optimization has not yet converged - more geometry cycles are needed


    ---------------------------------------------------------------------------
                         Redundant Internal Coordinates
                            (Angstroem and degrees)

        Definition                    Value    dE/dq     Step     New-Value
    ----------------------------------------------------------------------------
     1. B(C   1,Br  0)                1.8932 -0.007099  0.0113    1.9045   
     2. B(C   2,C   1)                1.3754 -0.005920  0.0048    1.3802   
     3. B(C   3,C   2)                1.4051 -0.002567  0.0023    1.4075   
     4. B(C   4,C   3)                1.3786 -0.005219  0.0042    1.3828   
     5. B(C   5,C   4)                1.3999 -0.002015  0.0017    1.4017   
     6. B(C   6,C   5)                1.4336 -0.000111  0.0000    1.4336   
     7. B(C   7,C   6)                1.3614 -0.007112  0.0055    1.3669   
     8. B(N   8,C   7)                1.3740 -0.005431  0.0050    1.3790   
     9. B(C   9,N   8)                1.3660 -0.004122  0.0036    1.3696   
    10. B(C   9,C   5)                1.4123 -0.006870  0.0061    1.4184   
    11. B(C   9,C   1)                1.3907 -0.001317  0.0011    1.3918   
    12. B(H  10,C   2)                1.0810 -0.002479  0.0035    1.0845   
    13. B(H  11,C   3)                1.0818 -0.002577  0.0037    1.0855   
    14. B(H  12,C   4)                1.0822 -0.002717  0.0039    1.0861   
    15. B(H  13,C   6)                1.0767 -0.002417  0.0034    1.0801   
    16. B(H  14,C   7)                1.0772 -0.002846  0.0040    1.0812   
    17. B(H  15,N   8)                1.0053 -0.000849  0.0010    1.0063   
    18. A(C   2,C   1,C   9)          119.10 -0.000120    0.01    119.11   
    19. A(Br  0,C   1,C   9)          119.06 -0.000503    0.07    119.13   
    20. A(Br  0,C   1,C   2)          121.84  0.000623   -0.08    121.76   
    21. A(C   1,C   2,C   3)          119.98  0.000376   -0.05    119.93   
    22. A(C   1,C   2,H  10)          119.67 -0.000581    0.09    119.75   
    23. A(C   3,C   2,H  10)          120.36  0.000205   -0.04    120.32   
    24. A(C   2,C   3,C   4)          121.56 -0.000595    0.09    121.65   
    25. A(C   4,C   3,H  11)          119.90  0.000125   -0.02    119.89   
    26. A(C   2,C   3,H  11)          118.54  0.000470   -0.07    118.46   
    27. A(C   3,C   4,H  12)          120.54 -0.000352    0.06    120.59   
    28. A(C   5,C   4,H  12)          120.41 -0.000074    0.01    120.42   
    29. A(C   3,C   4,C   5)          119.05  0.000426   -0.07    118.98   
    30. A(C   4,C   5,C   6)          134.69  0.000816   -0.08    134.61   
    31. A(C   6,C   5,C   9)          106.32 -0.000670    0.06    106.39   
    32. A(C   4,C   5,C   9)          118.98 -0.000146    0.02    119.01   
    33. A(C   5,C   6,C   7)          107.00 -0.000848    0.11    107.11   
    34. A(C   7,C   6,H  13)          125.99  0.000249   -0.03    125.96   
    35. A(C   5,C   6,H  13)          127.01  0.000599   -0.09    126.92   
    36. A(C   6,C   7,N   8)          109.81  0.001136   -0.13    109.68   
    37. A(C   6,C   7,H  14)          129.86 -0.000468    0.05    129.90   
    38. A(N   8,C   7,H  14)          120.33 -0.000669    0.08    120.41   
    39. A(C   9,N   8,H  15)          124.64 -0.000067    0.00    124.64   
    40. A(C   7,N   8,H  15)          126.47  0.000165   -0.03    126.44   
    41. A(C   7,N   8,C   9)          108.89 -0.000098    0.03    108.92   
    42. A(C   5,C   9,N   8)          107.98  0.000480   -0.08    107.90   
    43. A(C   1,C   9,N   8)          130.69 -0.000539    0.09    130.78   
    44. A(C   1,C   9,C   5)          121.33  0.000058   -0.01    121.32   
    45. D(C   3,C   2,C   1,C   9)     -0.00 -0.000000    0.00     -0.00   
    46. D(H  10,C   2,C   1,C   9)    180.00 -0.000000    0.00    180.00   
    47. D(C   3,C   2,C   1,Br  0)    180.00 -0.000000    0.00    180.00   
    48. D(H  10,C   2,C   1,Br  0)     -0.00 -0.000000    0.00     -0.00   
    49. D(H  11,C   3,C   2,C   1)   -180.00  0.000000   -0.00   -180.00   
    50. D(C   4,C   3,C   2,H  10)   -180.00  0.000000   -0.00   -180.00   
    51. D(H  11,C   3,C   2,H  10)      0.00  0.000000   -0.00      0.00   
    52. D(C   4,C   3,C   2,C   1)      0.00  0.000000   -0.00      0.00   
    53. D(H  12,C   4,C   3,H  11)      0.00  0.000000   -0.00      0.00   
    54. D(H  12,C   4,C   3,C   2)   -180.00  0.000000   -0.00   -180.00   
    55. D(C   5,C   4,C   3,C   2)     -0.00 -0.000000    0.00      0.00   
    56. D(C   5,C   4,C   3,H  11)   -180.00 -0.000000    0.00   -180.00   
    57. D(C   9,C   5,C   4,C   3)     -0.00 -0.000000    0.00     -0.00   
    58. D(C   6,C   5,C   4,H  12)      0.00  0.000000   -0.00      0.00   
    59. D(C   6,C   5,C   4,C   3)   -180.00  0.000000   -0.00   -180.00   
    60. D(C   9,C   5,C   4,H  12)    180.00 -0.000000    0.00    180.00   
    61. D(H  13,C   6,C   5,C   9)   -180.00  0.000000   -0.00   -180.00   
    62. D(H  13,C   6,C   5,C   4)     -0.00 -0.000000    0.00     -0.00   
    63. D(C   7,C   6,C   5,C   9)      0.00  0.000000   -0.00     -0.00   
    64. D(C   7,C   6,C   5,C   4)    180.00  0.000000   -0.00    180.00   
[...]
     35      -0.000000   0.000000   0.000000   0.000000  -0.000000   0.000000
     36       0.247660  -0.160269   0.099427   0.163805  -0.035952   0.154528
     37       0.388339  -0.479837   0.252445   0.579470   0.061447   0.301985
     38      -0.000000  -0.000000   0.000000   0.000000  -0.000000  -0.000000
     39       0.047558   0.068530   0.077083   0.102400  -0.055525  -0.050577
     40       0.232628   0.351105   0.346008   0.090913   0.384995  -0.168974
     41      -0.000000  -0.000000  -0.000001  -0.000000  -0.000001   0.000001
     42       0.066450  -0.018883  -0.399117  -0.179392  -0.423345   0.094971
     43      -0.006436   0.042216   0.146917   0.152016   0.215805   0.068038
     44      -0.000001  -0.000001  -0.000000   0.000000  -0.000000  -0.000001
     45      -0.044762  -0.115082  -0.276843   0.123124  -0.240697   0.364240
     46      -0.075477  -0.182824  -0.340417   0.369332  -0.264850   0.430561
     47       0.000001  -0.000000   0.000000   0.000002  -0.000002   0.000000
                 36         37         38         39         40         41    
      0      -0.000939   0.000561  -0.001139  -0.001334  -0.000744  -0.000872
      1      -0.000359   0.000883   0.000927   0.000054   0.000380  -0.000946
      2      -0.000000   0.000000  -0.000000  -0.000000  -0.000000  -0.000000
      3       0.041006   0.008051   0.024162   0.145825  -0.109618   0.180200
      4       0.004211  -0.205494  -0.093796   0.035612   0.082516   0.285754
      5       0.000000   0.000000   0.000000   0.000000  -0.000000   0.000000
      6      -0.098701  -0.061982   0.031557  -0.074562   0.188062  -0.023101
      7       0.088639   0.177255   0.141957   0.103348  -0.191987  -0.142011
      8      -0.000000  -0.000000   0.000000  -0.000000   0.000000  -0.000000
      9       0.077950   0.025434  -0.230009  -0.032402  -0.213144   0.178176
     10      -0.063512   0.037467  -0.086943  -0.090242   0.068582   0.110381
     11       0.000000  -0.000000  -0.000000  -0.000000  -0.000000   0.000000
     12       0.004444  -0.095666   0.121858   0.075025   0.079858  -0.159139
     13       0.031551  -0.212718   0.010622   0.110863  -0.183945  -0.282719
     14      -0.000000  -0.000000   0.000000   0.000000   0.000000  -0.000000
     15       0.004600   0.177925  -0.008151  -0.038133  -0.141824   0.097655
     16       0.084436   0.103620   0.121738   0.010460   0.312994   0.259802
     17      -0.000000   0.000000   0.000000   0.000000  -0.000000   0.000000
     18      -0.080550  -0.031741  -0.063612   0.158456   0.040317  -0.056241
     19      -0.081597  -0.056349   0.031138  -0.241705  -0.195991  -0.003219
     20      -0.000000  -0.000000  -0.000000   0.000001   0.000000  -0.000000
     21       0.193465  -0.045493   0.083381  -0.227464  -0.056930   0.093379
     22       0.029595   0.047684  -0.112455   0.239765   0.102890  -0.054254
     23      -0.000001  -0.000000   0.000001  -0.000000  -0.000001   0.000000
     24      -0.152993   0.016370   0.042906   0.072721  -0.058337   0.043874
     25      -0.073280  -0.116624   0.118853   0.008887  -0.090571   0.111332
     26       0.000000   0.000000  -0.000000   0.000000   0.000000  -0.000000
     27       0.051230  -0.101157  -0.024156  -0.174884   0.214603  -0.291493
     28      -0.043454   0.199129  -0.113804  -0.151793   0.006898  -0.318981
     29       0.000001  -0.000000  -0.000000  -0.000000   0.000000  -0.000000
     30       0.192984   0.210866   0.289791   0.256915  -0.184065  -0.136886
     31      -0.299688  -0.152465  -0.167071  -0.321125   0.296562  -0.009322
     32       0.000000   0.000000   0.000000   0.000000  -0.000000   0.000000
     33      -0.133645   0.352994   0.608858   0.109231   0.291989  -0.203194
     34      -0.093944   0.079855  -0.010516  -0.091684   0.126567   0.082440
     35      -0.000000   0.000000   0.000001   0.000000   0.000000  -0.000000
     36      -0.109870   0.278190   0.119680  -0.088492   0.227155   0.124643
     37      -0.232323   0.616036  -0.048779  -0.275123   0.111847   0.367890
     38       0.000000   0.000000  -0.000000  -0.000000   0.000000  -0.000000
     39      -0.075522  -0.030131  -0.084460   0.213109   0.064630  -0.075117
     40       0.366190  -0.050524   0.026243   0.271312   0.319541   0.067528
     41      -0.000000   0.000001  -0.000001  -0.000000   0.000000  -0.000001
     42      -0.310219   0.268976  -0.350554   0.525789   0.188952  -0.194063
     43       0.185561  -0.044162  -0.005782   0.070934   0.057043   0.022558
     44      -0.000001  -0.000001   0.000000  -0.000000  -0.000000   0.000001
     45       0.331654   0.132201  -0.315131   0.082123   0.265192  -0.287547
     46       0.526721   0.022390  -0.309155   0.023581   0.293541  -0.272459
     47       0.000000  -0.000004   0.000001  -0.000002  -0.000001   0.000000
                 42         43         44         45         46         47    
      0      -0.000007  -0.000029   0.000055   0.000001   0.000011  -0.000002
      1       0.000008   0.000018  -0.000025   0.000001   0.000005  -0.000019
      2      -0.000000  -0.000000  -0.000000   0.000000  -0.000000  -0.000000
      3      -0.000464   0.000481  -0.001540   0.000189  -0.000169  -0.000006
      4      -0.000233  -0.000752   0.003480   0.000374  -0.000092   0.000372
      5      -0.000000  -0.000000   0.000000  -0.000000   0.000000   0.000000
      6      -0.009024   0.022302  -0.064382   0.000079   0.000120   0.000256
      7      -0.007730   0.019911  -0.049288  -0.000365   0.000129  -0.000347
      8      -0.000000   0.000000  -0.000000   0.000000   0.000000  -0.000000
      9      -0.006832   0.003120   0.004982  -0.000362   0.000064  -0.000327
     10       0.053865  -0.059159  -0.032796   0.000153  -0.000062   0.000084
     11      -0.000000   0.000000   0.000000   0.000000  -0.000000  -0.000000
     12       0.057845   0.053660   0.011810  -0.000332  -0.000388   0.000307
     13      -0.026871  -0.021826  -0.003363   0.000391  -0.000032   0.000175
     14       0.000000   0.000000   0.000000  -0.000000  -0.000000  -0.000000
     15       0.000427   0.000047  -0.000003   0.000697   0.001789  -0.001147
     16       0.001699   0.002639   0.000683   0.001280   0.002581   0.000090
     17      -0.000000  -0.000000  -0.000000   0.000000   0.000000  -0.000000
     18      -0.000235  -0.000459  -0.000106  -0.061048  -0.065482  -0.000990
     19       0.000233  -0.000155   0.000155   0.000367   0.006474   0.001187
     20       0.000000   0.000000   0.000000  -0.000000  -0.000000   0.000000
     21       0.000250  -0.000158   0.000118   0.017710  -0.014408  -0.001859
     22      -0.000262   0.000054  -0.000210   0.058251  -0.064762  -0.001456
     23      -0.000000  -0.000000  -0.000000  -0.000000   0.000000   0.000000
     24      -0.000127   0.000129  -0.000112  -0.000078   0.001765   0.057606
     25      -0.000190   0.000135  -0.000105  -0.000510   0.000967  -0.047408
     26       0.000000   0.000000   0.000000  -0.000000  -0.000000   0.000001
     27      -0.000342  -0.000689   0.000565   0.000039   0.000963   0.000692
     28       0.000302   0.000022   0.000521  -0.001707   0.000962   0.001239
     29       0.000000   0.000000  -0.000000  -0.000000  -0.000000   0.000000
     30       0.117221  -0.280435   0.731543   0.001521  -0.000955   0.000017
     31       0.091295  -0.218154   0.557668   0.001150  -0.000807   0.000010
     32       0.000000  -0.000000   0.000001   0.000000   0.000000   0.000000
     33       0.067722  -0.065163  -0.039073   0.000075  -0.000247   0.000103
     34      -0.640456   0.666002   0.357709  -0.003166  -0.001182  -0.000155
     35       0.000000  -0.000000  -0.000000   0.000000   0.000000  -0.000000
     36      -0.681230  -0.592252  -0.118349   0.003692   0.002419  -0.000788
     37       0.303167   0.259597   0.050180  -0.002708  -0.002141  -0.000037
     38      -0.000001  -0.000001  -0.000000  -0.000000  -0.000000   0.000000
     39       0.001942   0.005529   0.001308   0.705692   0.702186   0.000866
     40      -0.001530  -0.001423  -0.000246  -0.020597  -0.025852   0.000233
     41       0.000000   0.000000   0.000000   0.000002   0.000002  -0.000000
     42       0.000325  -0.000379   0.000387  -0.195161   0.189733   0.004399
     43       0.000258  -0.002675   0.001301  -0.675241   0.679248   0.008552
     44       0.000000  -0.000000  -0.000000   0.000001  -0.000001  -0.000000
     45       0.000355   0.000126  -0.000035  -0.002124   0.005065  -0.768311
     46      -0.000994  -0.000474  -0.000149   0.007598  -0.010121   0.635631
     47       0.000000  -0.000000   0.000000  -0.000000   0.000000  -0.000013


-----------
IR SPECTRUM
-----------

 Mode   freq       eps      Int      T**2         TX        TY        TZ
       cm**-1   L/(mol*cm) km/mol    a.u.
----------------------------------------------------------------------------
  6:    130.64   0.000006    0.03  0.000013  (-0.000002  0.000004  0.003638)
  7:    159.51   0.000286    1.45  0.000560  ( 0.022030  0.008638  0.000000)
  8:    203.07   0.002219   11.22  0.003410  (-0.000003  0.000003  0.058399)
  9:    260.98   0.000108    0.55  0.000130  ( 0.000003 -0.000000  0.011386)
 10:    300.11   0.000357    1.81  0.000371  (-0.017395  0.008299 -0.000000)
 11:    398.99   0.011360   57.41  0.008885  ( 0.000005 -0.000005 -0.094261)
 12:    452.83   0.000963    4.87  0.000663  (-0.025733 -0.001123 -0.000001)
 13:    493.59   0.000268    1.36  0.000170  ( 0.000000  0.000002  0.013024)
 14:    565.41   0.000128    0.65  0.000071  (-0.000001  0.000000  0.008398)
 15:    585.36   0.001930    9.75  0.001029  (-0.031144  0.007686  0.000000)
 16:    619.73   0.000262    1.32  0.000132  (-0.000001  0.000002 -0.011490)
 17:    624.15   0.000038    0.19  0.000019  ( 0.000407 -0.004334  0.000001)
 18:    714.63   0.013294   67.18  0.005805  (-0.000001  0.000001 -0.076192)
 19:    735.65   0.000029    0.15  0.000012  (-0.000000  0.000000 -0.003496)
 20:    769.01   0.013614   68.80  0.005525  (-0.000000  0.000000  0.074327)
 21:    832.52   0.002759   13.94  0.001034  (-0.032014 -0.003043 -0.000000)
 22:    847.35   0.000446    2.25  0.000164  (-0.000001  0.000001  0.012813)
 23:    876.79   0.000185    0.93  0.000066  ( 0.000000 -0.000000 -0.008109)
 24:    899.78   0.004528   22.88  0.001570  ( 0.039511 -0.003029  0.000000)
 25:    931.43   0.003439   17.38  0.001152  ( 0.020357 -0.027163 -0.000000)
 26:    947.95   0.000118    0.59  0.000039  ( 0.000000 -0.000000  0.006224)
 27:   1071.84   0.000918    4.64  0.000267  (-0.000643 -0.016334 -0.000000)
 28:   1087.65   0.003462   17.50  0.000993  ( 0.000915 -0.031504  0.000000)
 29:   1113.07   0.001407    7.11  0.000394  ( 0.000400 -0.019854 -0.000000)
 30:   1158.95   0.003690   18.65  0.000994  ( 0.028738 -0.012947  0.000000)
 31:   1215.08   0.003948   19.95  0.001014  ( 0.030425 -0.009395  0.000000)
 32:   1239.07   0.000601    3.04  0.000151  (-0.009421 -0.007912  0.000000)
 33:   1307.54   0.001894    9.57  0.000452  (-0.014976 -0.015093 -0.000000)
 34:   1357.61   0.004275   21.60  0.000983  (-0.021289  0.023009 -0.000000)
 35:   1374.70   0.011085   56.02  0.002516  ( 0.042151  0.027197 -0.000000)
 36:   1439.03   0.003368   17.02  0.000730  ( 0.027002  0.001116 -0.000000)
 37:   1457.30   0.004415   22.31  0.000945  ( 0.024222  0.018937  0.000000)
 38:   1518.79   0.002580   13.04  0.000530  ( 0.002365 -0.022902 -0.000000)
 39:   1541.99   0.000008    0.04  0.000002  ( 0.001218 -0.000203  0.000000)
 40:   1593.08   0.005594   28.27  0.001096  (-0.024909  0.021802 -0.000000)
 41:   1658.60   0.000469    2.37  0.000088  ( 0.007480 -0.005685 -0.000000)
 42:   3172.66   0.000391    1.97  0.000038  ( 0.005344  0.003140  0.000000)
 43:   3186.87   0.001920    9.70  0.000188  ( 0.007706 -0.011340  0.000000)
 44:   3202.85   0.000221    1.12  0.000022  ( 0.001596 -0.004354 -0.000000)
 45:   3239.68   0.000114    0.58  0.000011  (-0.002394 -0.002297 -0.000000)
 46:   3257.30   0.000075    0.38  0.000007  (-0.002374 -0.001262  0.000000)
 47:   3670.45   0.016083   81.28  0.001367  (-0.024257  0.027911 -0.000000)

* The epsilon (eps) is given for a Dirac delta lineshape.
** The dipole moment derivative (T) already includes vibrational overlap.

The first frequency considered to be a vibration is 6
The total number of vibrations considered is 42


--------------------------
THERMOCHEMISTRY AT 298.15K
--------------------------

Temperature         ... 298.15 K
Pressure            ... 1.00 atm
Total Mass          ... 196.04 AMU

Throughout the following assumptions are being made:
  (1) The electronic state is orbitally nondegenerate
  (2) There are no thermally accessible electronically excited states
  (3) Hindered rotations indicated by low frequency modes are not
      treated as such but are treated as vibrations and this may
      cause some error
  (4) All equations used are the standard statistical mechanics
      equations for an ideal gas
  (5) All vibrations are strictly harmonic

freq.     130.64  E(vib)   ...       0.43 
freq.     159.51  E(vib)   ...       0.39 
freq.     203.07  E(vib)   ...       0.35 
freq.     260.98  E(vib)   ...       0.30 
freq.     300.11  E(vib)   ...       0.26 
freq.     398.99  E(vib)   ...       0.19 
freq.     452.83  E(vib)   ...       0.16 
freq.     493.59  E(vib)   ...       0.14 
freq.     565.41  E(vib)   ...       0.11 
freq.     585.36  E(vib)   ...       0.11 
freq.     619.73  E(vib)   ...       0.09 
freq.     624.15  E(vib)   ...       0.09 
freq.     714.63  E(vib)   ...       0.07 
freq.     735.65  E(vib)   ...       0.06 
freq.     769.01  E(vib)   ...       0.06 
freq.     832.52  E(vib)   ...       0.04 
freq.     847.35  E(vib)   ...       0.04 
freq.     876.79  E(vib)   ...       0.04 
freq.     899.78  E(vib)   ...       0.03 
freq.     931.43  E(vib)   ...       0.03 
freq.     947.95  E(vib)   ...       0.03 
freq.    1071.84  E(vib)   ...       0.02 
freq.    1087.65  E(vib)   ...       0.02 
freq.    1113.07  E(vib)   ...       0.01 
freq.    1158.95  E(vib)   ...       0.01 
freq.    1215.08  E(vib)   ...       0.01 
freq.    1239.07  E(vib)   ...       0.01 
freq.    1307.54  E(vib)   ...       0.01 
freq.    1357.61  E(vib)   ...       0.01 
freq.    1374.70  E(vib)   ...       0.01 
freq.    1439.03  E(vib)   ...       0.00 
freq.    1457.30  E(vib)   ...       0.00 
freq.    1518.79  E(vib)   ...       0.00 
freq.    1541.99  E(vib)   ...       0.00 
freq.    1593.08  E(vib)   ...       0.00 
freq.    1658.60  E(vib)   ...       0.00 
freq.    3172.66  E(vib)   ...       0.00 
freq.    3186.87  E(vib)   ...       0.00 
freq.    3202.85  E(vib)   ...       0.00 
freq.    3239.68  E(vib)   ...       0.00 
freq.    3257.30  E(vib)   ...       0.00 
freq.    3670.45  E(vib)   ...       0.00 

------------
INNER ENERGY
------------

The inner energy is: U= E(el) + E(ZPE) + E(vib) + E(rot) + E(trans)
    E(el)   - is the total energy from the electronic structure calculation
              = E(kin-el) + E(nuc-el) + E(el-el) + E(nuc-nuc)
    E(ZPE)  - the the zero temperature vibrational energy from the frequency calculation
    E(vib)  - the the finite temperature correction to E(ZPE) due to population
              of excited vibrational states
    E(rot)  - is the rotational thermal energy
    E(trans)- is the translational thermal energy

Summary of contributions to the inner energy U:
Electronic energy                ...  -2937.27653088 Eh
Zero point energy                ...      0.11895132 Eh      74.64 kcal/mol
Thermal vibrational correction   ...      0.00501485 Eh       3.15 kcal/mol
Thermal rotational correction    ...      0.00141627 Eh       0.89 kcal/mol
Thermal translational correction ...      0.00141627 Eh       0.89 kcal/mol
-----------------------------------------------------------------------
Total thermal energy                  -2937.14973216 Eh


Summary of corrections to the electronic energy:
(perhaps to be used in another calculation)
Total thermal correction                  0.00784739 Eh       4.92 kcal/mol
Non-thermal (ZPE) correction              0.11895132 Eh      74.64 kcal/mol
-----------------------------------------------------------------------
Total correction                          0.12679872 Eh      79.57 kcal/mol


--------
ENTHALPY
--------

The enthalpy is H = U + kB*T
                kB is Boltzmann's constant
Total free energy                 ...  -2937.14973216 Eh 
Thermal Enthalpy correction       ...      0.00094421 Eh       0.59 kcal/mol
-----------------------------------------------------------------------
Total Enthalpy                    ...  -2937.14878796 Eh


Note: Rotational entropy computed according to Herzberg 
Infrared and Raman Spectra, Chapter V,1, Van Nostrand Reinhold, 1945 
Point Group:  Cs, Symmetry Number:   1  
Rotational constants in cm-1:     0.057638     0.024161     0.017025 

Vibrational entropy computed according to the QRRHO of S. Grimme
Chem.Eur.J. 2012 18 9955


-------
ENTROPY
-------

The entropy contributions are T*S = T*(S(el)+S(vib)+S(rot)+S(trans))
     S(el)   - electronic entropy
     S(vib)  - vibrational entropy
     S(rot)  - rotational entropy
     S(trans)- translational entropy
The entropies will be listed as multiplied by the temperature to get
units of energy

Electronic entropy                ...      0.00000000 Eh      0.00 kcal/mol
Vibrational entropy               ...      0.00805210 Eh      5.05 kcal/mol
Rotational entropy                ...      0.01453842 Eh      9.12 kcal/mol
Translational entropy             ...      0.01982462 Eh     12.44 kcal/mol
-----------------------------------------------------------------------
Final entropy term                ...      0.04241515 Eh     26.62 kcal/mol

In case the symmetry of your molecule has not been determined correctly
or in case you have a reason to use a different symmetry number we print 
out the resulting rotational entropy values for sn=1,12 :
 --------------------------------------------------------
|  sn= 1 | S(rot)=       0.01453842 Eh      9.12 kcal/mol|
|  sn= 2 | S(rot)=       0.01388397 Eh      8.71 kcal/mol|
|  sn= 3 | S(rot)=       0.01350113 Eh      8.47 kcal/mol|
|  sn= 4 | S(rot)=       0.01322951 Eh      8.30 kcal/mol|
|  sn= 5 | S(rot)=       0.01301882 Eh      8.17 kcal/mol|
|  sn= 6 | S(rot)=       0.01284668 Eh      8.06 kcal/mol|
|  sn= 7 | S(rot)=       0.01270113 Eh      7.97 kcal/mol|
|  sn= 8 | S(rot)=       0.01257505 Eh      7.89 kcal/mol|
|  sn= 9 | S(rot)=       0.01246384 Eh      7.82 kcal/mol|
|  sn=10 | S(rot)=       0.01236437 Eh      7.76 kcal/mol|
|  sn=11 | S(rot)=       0.01227438 Eh      7.70 kcal/mol|
|  sn=12 | S(rot)=       0.01219222 Eh      7.65 kcal/mol|
 --------------------------------------------------------


-------------------
GIBBS FREE ENERGY
-------------------

The Gibbs free energy is G = H - T*S

Total enthalpy                    ...  -2937.14878796 Eh 
Total entropy correction          ...     -0.04241515 Eh    -26.62 kcal/mol
-----------------------------------------------------------------------
Final Gibbs free energy         ...  -2937.19120311 Eh

For completeness - the Gibbs free energy minus the electronic energy
G-E(el)                           ...      0.08532777 Eh     53.54 kcal/mol


Timings for individual modules:

Sum of individual times         ...       82.283 sec (=   1.371 min)
GTO integral calculation        ...        2.061 sec (=   0.034 min)   2.5 %
SCF iterations                  ...       20.534 sec (=   0.342 min)  25.0 %
SCF Gradient evaluation         ...        4.041 sec (=   0.067 min)   4.9 %
Geometry relaxation             ...        0.114 sec (=   0.002 min)   0.1 %
Analytical frequency calculation...       55.534 sec (=   0.926 min)  67.5 %
                             ****ORCA TERMINATED NORMALLY****
TOTAL RUN TIME: 0 days 0 hours 1 minutes 23 seconds 635 msec
