Job Start Time: Thu Apr 18 14:06:29 MDT 2024
SLURM Job ID: 254453
SLURM Job Name: arbr_11_r2scan3c
SLURM Job Nodes: node18
SLURM Memory / CPU: 8000

                                 *****************
                                 * O   R   C   A *
                                 *****************

                                            #,                                       
                                            ###                                      
                                            ####                                     
                                            #####                                    
                                            ######                                   
                                           ########,                                 
                                     ,,################,,,,,                         
                               ,,#################################,,                 
                          ,,##########################################,,             
                       ,#########################################, ''#####,          
                    ,#############################################,,   '####,        
                  ,##################################################,,,,####,       
                ,###########''''           ''''###############################       
              ,#####''   ,,,,##########,,,,          '''####'''          '####       
            ,##' ,,,,###########################,,,                        '##       
           ' ,,###''''                  '''############,,,                           
         ,,##''                                '''############,,,,        ,,,,,,###''
      ,#''                                            '''#######################'''  
     '                                                          ''''####''''         
             ,#######,   #######,   ,#######,      ##                                
            ,#'     '#,  ##    ##  ,#'     '#,    #''#        ######   ,####,        
            ##       ##  ##   ,#'  ##            #'  '#       #        #'  '#        
            ##       ##  #######   ##           ,######,      #####,   #    #        
            '#,     ,#'  ##    ##  '#,     ,#' ,#      #,         ##   #,  ,#        
             '#######'   ##     ##  '#######'  #'      '#     #####' # '####'        



                  #######################################################
                  #                        -***-                        #
                  #          Department of theory and spectroscopy      #
                  #    Directorship and core code : Frank Neese         #
                  #        Max Planck Institute fuer Kohlenforschung    #
                  #                Kaiser Wilhelm Platz 1               #
                  #                 D-45470 Muelheim/Ruhr               #
                  #                      Germany                        #
                  #                                                     #
                  #                  All rights reserved                #
                  #                        -***-                        #
                  #######################################################


                         Program Version 5.0.3 -  RELEASE  -


 With contributions from (in alphabetic order):
   Daniel Aravena         : Magnetic Suceptibility
   Michael Atanasov       : Ab Initio Ligand Field Theory (pilot matlab implementation)
   Alexander A. Auer      : GIAO ZORA, VPT2 properties, NMR spectrum
   Ute Becker             : Parallelization
   Giovanni Bistoni       : ED, misc. LED, open-shell LED, HFLD
   Martin Brehm           : Molecular dynamics
   Dmytro Bykov           : SCF Hessian
   Vijay G. Chilkuri      : MRCI spin determinant printing, contributions to CSF-ICE
   Dipayan Datta          : RHF DLPNO-CCSD density
   Achintya Kumar Dutta   : EOM-CC, STEOM-CC
   Dmitry Ganyushin       : Spin-Orbit,Spin-Spin,Magnetic field MRCI
   Miquel Garcia          : C-PCM and meta-GGA Hessian, CC/C-PCM, Gaussian charge scheme
   Yang Guo               : DLPNO-NEVPT2, F12-NEVPT2, CIM, IAO-localization
   Andreas Hansen         : Spin unrestricted coupled pair/coupled cluster methods
   Benjamin Helmich-Paris : MC-RPA, TRAH-SCF, COSX integrals
   Lee Huntington         : MR-EOM, pCC
   Robert Izsak           : Overlap fitted RIJCOSX, COSX-SCS-MP3, EOM
   Marcus Kettner         : VPT2
   Christian Kollmar      : KDIIS, OOCD, Brueckner-CCSD(T), CCSD density, CASPT2, CASPT2-K
   Simone Kossmann        : Meta GGA functionals, TD-DFT gradient, OOMP2, MP2 Hessian
   Martin Krupicka        : Initial AUTO-CI
   Lucas Lang             : DCDCAS
   Marvin Lechner         : AUTO-CI (C++ implementation), FIC-MRCC
   Dagmar Lenk            : GEPOL surface, SMD
   Dimitrios Liakos       : Extrapolation schemes; Compound Job, initial MDCI parallelization
   Dimitrios Manganas     : Further ROCIS development; embedding schemes
   Dimitrios Pantazis     : SARC Basis sets
   Anastasios Papadopoulos: AUTO-CI, single reference methods and gradients
   Taras Petrenko         : DFT Hessian,TD-DFT gradient, ASA, ECA, R-Raman, ABS, FL, XAS/XES, NRVS
   Peter Pinski           : DLPNO-MP2, DLPNO-MP2 Gradient
   Christoph Reimann      : Effective Core Potentials
   Marius Retegan         : Local ZFS, SOC
   Christoph Riplinger    : Optimizer, TS searches, QM/MM, DLPNO-CCSD(T), (RO)-DLPNO pert. Triples
   Tobias Risthaus        : Range-separated hybrids, TD-DFT gradient, RPA, STAB
   Michael Roemelt        : Original ROCIS implementation
   Masaaki Saitow         : Open-shell DLPNO-CCSD energy and density
   Barbara Sandhoefer     : DKH picture change effects
   Avijit Sen             : IP-ROCIS
   Kantharuban Sivalingam : CASSCF convergence, NEVPT2, FIC-MRCI
   Bernardo de Souza      : ESD, SOC TD-DFT
   Georgi Stoychev        : AutoAux, RI-MP2 NMR, DLPNO-MP2 response
   Willem Van den Heuvel  : Paramagnetic NMR
   Boris Wezisla          : Elementary symmetry handling
   Frank Wennmohs         : Technical directorship


 We gratefully acknowledge several colleagues who have allowed us to
 interface, adapt or use parts of their codes:
   Stefan Grimme, W. Hujo, H. Kruse, P. Pracht,  : VdW corrections, initial TS optimization,
                  C. Bannwarth, S. Ehlert          DFT functionals, gCP, sTDA/sTD-DF
   Ed Valeev, F. Pavosevic, A. Kumar             : LibInt (2-el integral package), F12 methods
   Garnet Chan, S. Sharma, J. Yang, R. Olivares  : DMRG
   Ulf Ekstrom                                   : XCFun DFT Library
   Mihaly Kallay                                 : mrcc  (arbitrary order and MRCC methods)
   Jiri Pittner, Ondrej Demel                    : Mk-CCSD
   Frank Weinhold                                : gennbo (NPA and NBO analysis)
   Christopher J. Cramer and Donald G. Truhlar   : smd solvation model
   Lars Goerigk                                  : TD-DFT with DH, B97 family of functionals
   V. Asgeirsson, H. Jonsson                     : NEB implementation
   FAccTs GmbH                                   : IRC, NEB, NEB-TS, DLPNO-Multilevel, CI-OPT
                                                   MM, QMMM, 2- and 3-layer-ONIOM, Crystal-QMMM,
                                                   LR-CPCM, SF, NACMEs, symmetry and pop. for TD-DFT,
                                                   nearIR, NL-DFT gradient (VV10), updates on ESD,
                                                   ML-optimized integration grids
   S Lehtola, MJT Oliveira, MAL Marques          : LibXC Library
   Liviu Ungur et al                             : ANISO software


 Your calculation uses the libint2 library for the computation of 2-el integrals
 For citations please refer to: http://libint.valeyev.net

 Your ORCA version has been built with support for libXC version: 5.1.0
 For citations please refer to: https://tddft.org/programs/libxc/

 This ORCA versions uses:
   CBLAS   interface :  Fast vector & matrix operations
   LAPACKE interface :  Fast linear algebra routines
   SCALAPACK package :  Parallel linear algebra routines
   Shared memory     :  Shared parallel matrices
   BLAS/LAPACK       :  OpenBLAS 0.3.15  USE64BITINT DYNAMIC_ARCH NO_AFFINITY Zen SINGLE_THREADED
        Core in use  :  Zen
   Copyright (c) 2011-2014, The OpenBLAS Project


Your calculation utilizes the geometrical counterpoise correction gCP
Please cite in your paper:
H.Kruse, S. Grimme J.Chem.Phys., 136, (2012), 154101 
   

Your calculation utilizes the atom-pairwise dispersion correction
based on tight binding partial charges (D4)
Cite in your paper:
E.Caldeweyher, C.Bannwarth, S.Grimme, J.Chem.Phys., (2017), 147, 034112.
E.Caldeweyher, S.Ehlert, A.Hansen, H.Neugebauer, S.Grimme, J.Chem.Phys., (2018), in progress.
   

================================================================================

----- Orbital basis set information -----
Your calculation utilizes the basis: def2-mTZVPP
   Stefan Grimme, Andreas Hansen, Sebastian Ehlert, and Jan-Michael Mewes 
   J. Chem. Phys. 154, 000000 (2021). DOI: 10.1063/5.0040021

----- AuxJ basis set information -----
Your calculation utilizes the basis: def2-mTZVPP/J
   Stefan Grimme, Andreas Hansen, Sebastian Ehlert, and Jan-Michael Mewes 
   J. Chem. Phys. 154, 000000 (2021). DOI: 10.1063/5.0040021

================================================================================
                                        WARNINGS
                       Please study these warnings very carefully!
================================================================================

Using LibXC functional ID 497 : Re-regularized SCAN exchange by Furness et al
[ 1]  J. W. Furness, A. D. Kaplan, J. Ning, J. P. Perdew, and J. Sun, J. Phys. Chem. Lett. 11, 8208 (2020)
[ 2]  J. W. Furness, A. D. Kaplan, J. Ning, J. P. Perdew, and J. Sun, J. Phys. Chem. Lett. 11, 9248 (2020)
Using LibXC functional ID 498 : Re-regularized SCAN correlation by Furness et al
[ 1]  J. W. Furness, A. D. Kaplan, J. Ning, J. P. Perdew, and J. Sun, J. Phys. Chem. Lett. 11, 8208 (2020)
[ 2]  J. W. Furness, A. D. Kaplan, J. Ning, J. P. Perdew, and J. Sun, J. Phys. Chem. Lett. 11, 9248 (2020)
Using LibXC functional ID 497 : Re-regularized SCAN exchange by Furness et al
[ 1]  J. W. Furness, A. D. Kaplan, J. Ning, J. P. Perdew, and J. Sun, J. Phys. Chem. Lett. 11, 8208 (2020)
[ 2]  J. W. Furness, A. D. Kaplan, J. Ning, J. P. Perdew, and J. Sun, J. Phys. Chem. Lett. 11, 9248 (2020)
Using LibXC functional ID 498 : Re-regularized SCAN correlation by Furness et al
[ 1]  J. W. Furness, A. D. Kaplan, J. Ning, J. P. Perdew, and J. Sun, J. Phys. Chem. Lett. 11, 8208 (2020)
[ 2]  J. W. Furness, A. D. Kaplan, J. Ning, J. P. Perdew, and J. Sun, J. Phys. Chem. Lett. 11, 9248 (2020)

WARNING: Geometry Optimization
  ===> : Switching off AutoStart
         For restart on a previous wavefunction, please use MOREAD

INFO   : the flag for use of the SHARK integral package has been found!

================================================================================
                                       INPUT FILE
================================================================================
NAME = /tmp/254453/arbr_11_r2scan3c.inp
|  1> %maxcore 4000
|  2> %PAL NPROCS 16 END
|  3> ! r2scan-3c opt freq
|  4> 
|  5> # arbr_11_rdkit_conf_1_r2scan3ccreated by GaussianPrep
|  6> 
|  7> * xyz 0 1
|  8> C  5.912899  -1.988539  -0.000015
|  9> C  5.410143  -0.566435  0.000005
| 10> O  3.975126  -0.616964  0.000006
| 11> C  3.357203  0.562172  0.000026
| 12> O  3.920158  1.628592  0.000022
| 13> C  1.894534  0.434208  0.000003
| 14> C  1.073228  -0.658344  -0.000018
| 15> C  -0.262834  -0.158136  -0.000006
| 16> C  -1.524889  -0.771095  0.000002
| 17> C  -2.632614  0.038566  0.000001
| 18> Br  -4.360331  -0.748008  0.000005
| 19> C  -2.541832  1.442581  -0.000005
| 20> C  -1.314493  2.063478  -0.000011
| 21> C  -0.176312  1.25388  -0.000012
| 22> N  1.147207  1.58431  -0.000018
| 23> H  5.564477  -2.520178  0.884808
| 24> H  7.002677  -1.992827  -0.000016
| 25> H  5.564475  -2.520154  -0.884852
| 26> H  5.738177  -0.013721  0.881182
| 27> H  5.738175  -0.013696  -0.881157
| 28> H  1.396519  -1.685195  -0.000022
| 29> H  -1.624055  -1.847714  0.000003
| 30> H  -3.44914  2.02978  -0.000007
| 31> H  -1.240101  3.142854  -0.000016
| 32> H  1.557453  2.503913  -0.000018
| 33> 
| 34> *
| 35> 
| 36>                          ****END OF INPUT****
================================================================================

                       *****************************
                       * Geometry Optimization Run *
                       *****************************

Geometry optimization settings:
Update method            Update   .... BFGS
Choice of coordinates    CoordSys .... Z-matrix Internals
Initial Hessian          InHess   .... Almoef's Model

Convergence Tolerances:
Energy Change            TolE     ....  5.0000e-06 Eh
Max. Gradient            TolMAXG  ....  3.0000e-04 Eh/bohr
RMS Gradient             TolRMSG  ....  1.0000e-04 Eh/bohr
Max. Displacement        TolMAXD  ....  4.0000e-03 bohr
RMS Displacement         TolRMSD  ....  2.0000e-03 bohr
Strict Convergence                ....  False
------------------------------------------------------------------------------
                        ORCA OPTIMIZATION COORDINATE SETUP
------------------------------------------------------------------------------

The optimization will be done in new redundant internal coordinates
Making redundant internal coordinates   ...  (new redundants) done
Evaluating the initial hessian          ...  (Almloef) done
Evaluating the coordinates              ...  done
Calculating the B-matrix                .... done
Calculating the G-matrix                .... done
Diagonalizing the G-matrix              .... done
Small eigenvalue found = 5.191e-03
Small eigenvalue found = 2.500e-02
The first mode is                       ....   58
The number of degrees of freedom        ....   69

    -----------------------------------------------------------------
                    Redundant Internal Coordinates


    -----------------------------------------------------------------
         Definition                    Initial Value    Approx d2E/dq
    -----------------------------------------------------------------
      1. B(C   1,C   0)                  1.5084         0.404488   
      2. B(O   2,C   1)                  1.4359         0.472754   
      3. B(C   3,O   2)                  1.3312         0.694431   
      4. B(O   4,C   3)                  1.2059         1.100555   
      5. B(C   5,C   3)                  1.4683         0.468691   
      6. B(C   6,C   5)                  1.3668         0.680317   
      7. B(C   7,C   6)                  1.4266         0.546135   
      8. B(C   8,C   7)                  1.4030         0.595587   
      9. B(C   9,C   8)                  1.3721         0.667310   
     10. B(Br 10,C   9)                  1.8983         0.324492   
     11. B(C  11,C   9)                  1.4069         0.587085   
     12. B(C  12,C  11)                  1.3755         0.659091   
     13. B(C  13,C  12)                  1.3967         0.609498   
     14. B(C  13,C   7)                  1.4147         0.570674   
     15. B(N  14,C   5)                  1.3716         0.598774   
     16. B(N  14,C  13)                  1.3641         0.615359   
     17. B(H  15,C   0)                  1.0895         0.360799   
     18. B(H  16,C   0)                  1.0898         0.360383   
     19. B(H  17,C   0)                  1.0895         0.360799   
     20. B(H  18,C   1)                  1.0907         0.359208   
     21. B(H  19,C   1)                  1.0907         0.359208   
     22. B(H  20,C   6)                  1.0765         0.378352   
     23. B(H  21,C   8)                  1.0812         0.371964   
     24. B(H  22,C  11)                  1.0807         0.372553   
     25. B(H  23,C  12)                  1.0819         0.370926   
     26. B(H  24,N  14)                  1.0070         0.437565   
     27. A(H  16,C   0,H  17)          108.5352         0.290964   
     28. A(H  15,C   0,H  16)          108.5351         0.290964   
     29. A(C   1,C   0,H  17)          110.6995         0.328697   
     30. A(H  15,C   0,H  17)          108.6158         0.291017   
     31. A(C   1,C   0,H  15)          110.6995         0.328697   
     32. A(C   1,C   0,H  16)          109.6955         0.328634   
     33. A(O   2,C   1,H  18)          108.5667         0.335019   
     34. A(H  18,C   1,H  19)          107.7849         0.290613   
     35. A(O   2,C   1,H  19)          108.5667         0.335019   
     36. A(C   0,C   1,H  19)          112.1819         0.328457   
     37. A(C   0,C   1,H  18)          112.1818         0.328457   
     38. A(C   0,C   1,O   2)          107.4534         0.381199   
     39. A(C   1,O   2,C   3)          115.6400         0.416504   
     40. A(O   2,C   3,O   4)          124.5141         0.485531   
     41. A(O   4,C   3,C   5)          122.8291         0.454780   
     42. A(O   2,C   3,C   5)          112.6568         0.418577   
     43. A(C   3,C   5,C   6)          131.9332         0.419770   
     44. A(C   6,C   5,N  14)          110.0512         0.435749   
     45. A(C   3,C   5,N  14)          118.0156         0.407705   
     46. A(C   5,C   6,C   7)          106.4080         0.431420   
     47. A(C   7,C   6,H  20)          128.0013         0.348325   
     48. A(C   5,C   6,H  20)          125.5907         0.361546   
     49. A(C   8,C   7,C  13)          119.4115         0.424586   
     50. A(C   6,C   7,C  13)          107.0189         0.418067   
     51. A(C   6,C   7,C   8)          133.5695         0.421265   
     52. A(C   9,C   8,H  21)          120.9013         0.359314   
     53. A(C   7,C   8,C   9)          117.9310         0.436682   
     54. A(C   7,C   8,H  21)          121.1677         0.352446   
     55. A(Br 10,C   9,C  11)          118.1778         0.408383   
     56. A(C   8,C   9,C  11)          122.4644         0.435552   
     57. A(C   8,C   9,Br 10)          119.3578         0.417777   
     58. A(C   9,C  11,C  12)          120.5339         0.434581   
     59. A(C  12,C  11,H  22)          120.2552         0.358654   
     60. A(C   9,C  11,H  22)          119.2109         0.351684   
     61. A(C  11,C  12,H  23)          120.7770         0.358387   
     62. A(C  13,C  12,H  23)          121.4819         0.353659   
     63. A(C  11,C  12,C  13)          117.7411         0.437524   
     64. A(C  12,C  13,N  14)          130.5575         0.429327   
     65. A(C   7,C  13,N  14)          107.5244         0.424294   
     66. A(C   7,C  13,C  12)          121.9181         0.426345   
     67. A(C   5,N  14,C  13)          108.9976         0.425173   
     68. A(C  13,N  14,H  24)          128.0601         0.358891   
     69. A(C   5,N  14,H  24)          122.9423         0.357228   
     70. D(H  18,C   1,C   0,H  16)    -60.7486         0.012971   
     71. D(O   2,C   1,C   0,H  15)    -60.2512         0.012971   
     72. D(O   2,C   1,C   0,H  17)     60.2512         0.012971   
     73. D(O   2,C   1,C   0,H  16)   -180.0000         0.012971   
     74. D(H  18,C   1,C   0,H  17)    179.5025         0.012971   
     75. D(H  19,C   1,C   0,H  15)   -179.5026         0.012971   
     76. D(H  19,C   1,C   0,H  16)     60.7486         0.012971   
     77. D(H  19,C   1,C   0,H  17)    -59.0002         0.012971   
     78. D(H  18,C   1,C   0,H  15)     59.0001         0.012971   
     79. D(C   3,O   2,C   1,C   0)    179.9998         0.017620   
     80. D(C   3,O   2,C   1,H  19)    -58.4595         0.017620   
     81. D(C   3,O   2,C   1,H  18)     58.4593         0.017620   
     82. D(O   4,C   3,O   2,C   1)      0.0012         0.036058   
     83. D(C   5,C   3,O   2,C   1)    179.9990         0.036058   
     84. D(C   6,C   5,C   3,O   2)      0.0009         0.014959   
     85. D(N  14,C   5,C   3,O   4)     -0.0003         0.014959   
     86. D(N  14,C   5,C   3,O   2)   -179.9982         0.014959   
     87. D(C   6,C   5,C   3,O   4)    179.9988         0.014959   
     88. D(H  20,C   6,C   5,N  14)    179.9991         0.032446   
     89. D(H  20,C   6,C   5,C   3)     -0.0000         0.032446   
     90. D(C   7,C   6,C   5,N  14)     -0.0020         0.032446   
     91. D(C   7,C   6,C   5,C   3)    179.9988         0.032446   
     92. D(C  13,C   7,C   6,H  20)   -179.9997         0.020394   
     93. D(C  13,C   7,C   6,C   5)      0.0015         0.020394   
     94. D(C   8,C   7,C   6,H  20)     -0.0001         0.020394   
     95. D(C   8,C   7,C   6,C   5)   -179.9989         0.020394   
     96. D(H  21,C   8,C   7,C  13)    179.9998         0.024435   
     97. D(C   9,C   8,C   7,C  13)      0.0001         0.024435   
     98. D(C   9,C   8,C   7,C   6)   -179.9994         0.024435   
     99. D(H  21,C   8,C   7,C   6)      0.0002         0.024435   
    100. D(Br 10,C   9,C   8,C   7)    179.9998         0.031124   
    101. D(C  11,C   9,C   8,H  21)   -179.9998         0.031124   
    102. D(C  11,C   9,C   8,C   7)     -0.0001         0.031124   
    103. D(Br 10,C   9,C   8,H  21)      0.0001         0.031124   
    104. D(H  22,C  11,C   9,Br 10)      0.0000         0.023707   
    105. D(H  22,C  11,C   9,C   8)    179.9999         0.023707   
    106. D(C  12,C  11,C   9,Br 10)   -179.9999         0.023707   
    107. D(C  12,C  11,C   9,C   8)      0.0000         0.023707   
    108. D(H  23,C  12,C  11,H  22)      0.0001         0.030306   
    109. D(H  23,C  12,C  11,C   9)    180.0000         0.030306   
    110. D(C  13,C  12,C  11,H  22)   -179.9998         0.030306   
    111. D(C  13,C  12,C  11,C   9)      0.0001         0.030306   
    112. D(N  14,C  13,C  12,H  23)      0.0000         0.025654   
    113. D(N  14,C  13,C  12,C  11)    180.0000         0.025654   
    114. D(C   7,C  13,C  12,H  23)   -180.0000         0.025654   
    115. D(C   7,C  13,C  12,C  11)     -0.0001         0.025654   
    116. D(N  14,C  13,C   7,C   8)    179.9999         0.022342   
    117. D(N  14,C  13,C   7,C   6)     -0.0004         0.022342   
    118. D(C  12,C  13,C   7,C   8)     -0.0000         0.022342   
    119. D(C  12,C  13,C   7,C   6)    179.9996         0.022342   
    120. D(H  24,N  14,C  13,C  12)      0.0004         0.030627   
    121. D(H  24,N  14,C  13,C   7)   -179.9996         0.030627   
    122. D(C   5,N  14,C  13,C  12)    179.9991         0.030627   
    123. D(C   5,N  14,C  13,C   7)     -0.0008         0.030627   
    124. D(H  24,N  14,C   5,C   6)   -179.9993         0.028881   
    125. D(H  24,N  14,C   5,C   3)     -0.0000         0.028881   
    126. D(C  13,N  14,C   5,C   6)      0.0018         0.028881   
    127. D(C  13,N  14,C   5,C   3)   -179.9989         0.028881   
    -----------------------------------------------------------------

Number of atoms                         .... 25
Number of degrees of freedom            .... 127

         *************************************************************
         *                GEOMETRY OPTIMIZATION CYCLE   1            *
         *************************************************************
---------------------------------
CARTESIAN COORDINATES (ANGSTROEM)
---------------------------------
  C      5.912899   -1.988539   -0.000015
  C      5.410143   -0.566435    0.000005
  O      3.975126   -0.616964    0.000006
  C      3.357203    0.562172    0.000026
  O      3.920158    1.628592    0.000022
  C      1.894534    0.434208    0.000003
  C      1.073228   -0.658344   -0.000018
  C     -0.262834   -0.158136   -0.000006
  C     -1.524889   -0.771095    0.000002
  C     -2.632614    0.038566    0.000001
  Br    -4.360331   -0.748008    0.000005
  C     -2.541832    1.442581   -0.000005
  C     -1.314493    2.063478   -0.000011
  C     -0.176312    1.253880   -0.000012
  N      1.147207    1.584310   -0.000018
  H      5.564477   -2.520178    0.884808
  H      7.002677   -1.992827   -0.000016
  H      5.564475   -2.520154   -0.884852
  H      5.738177   -0.013721    0.881182
  H      5.738175   -0.013696   -0.881157
  H      1.396519   -1.685195   -0.000022
  H     -1.624055   -1.847714    0.000003
  H     -3.449140    2.029780   -0.000007
  H     -1.240101    3.142854   -0.000016
  H      1.557453    2.503913   -0.000018

----------------------------
CARTESIAN COORDINATES (A.U.)
----------------------------
  NO LB      ZA    FRAG     MASS         X           Y           Z
   0 C     6.0000    0    12.011   11.173760   -3.757794   -0.000028
   1 C     6.0000    0    12.011   10.223689   -1.070407    0.000009
   2 O     8.0000    0    15.999    7.511899   -1.165893    0.000011
   3 C     6.0000    0    12.011    6.344194    1.062351    0.000049
   4 O     8.0000    0    15.999    7.408025    3.077593    0.000042
   5 C     6.0000    0    12.011    3.580150    0.820534    0.000006
   6 C     6.0000    0    12.011    2.028107   -1.244090   -0.000034
   7 C     6.0000    0    12.011   -0.496684   -0.298834   -0.000011
   8 C     6.0000    0    12.011   -2.881623   -1.457158    0.000004
   9 C     6.0000    0    12.011   -4.974919    0.072879    0.000002
  10 Br   35.0000    0    79.900   -8.239831   -1.413530    0.000009
  11 C     6.0000    0    12.011   -4.803366    2.726083   -0.000009
  12 C     6.0000    0    12.011   -2.484032    3.899408   -0.000021
  13 C     6.0000    0    12.011   -0.333181    2.369490   -0.000023
  14 N     7.0000    0    14.007    2.167907    2.993912   -0.000034
  15 H     1.0000    0     1.008   10.515338   -4.762446    1.672045
  16 H     1.0000    0     1.008   13.233142   -3.765897   -0.000030
  17 H     1.0000    0     1.008   10.515334   -4.762401   -1.672128
  18 H     1.0000    0     1.008   10.843583   -0.025929    1.665193
  19 H     1.0000    0     1.008   10.843579   -0.025882   -1.665145
  20 H     1.0000    0     1.008    2.639038   -3.184557   -0.000042
  21 H     1.0000    0     1.008   -3.069019   -3.491673    0.000006
  22 H     1.0000    0     1.008   -6.517930    3.835728   -0.000013
  23 H     1.0000    0     1.008   -2.343451    5.939133   -0.000030
  24 H     1.0000    0     1.008    2.943160    4.731710   -0.000034

--------------------------------
INTERNAL COORDINATES (ANGSTROEM)
--------------------------------
 C      0   0   0     0.000000000000     0.00000000     0.00000000
 C      1   0   0     1.508357843070     0.00000000     0.00000000
 O      2   1   0     1.435906323592   107.45338091     0.00000000
 C      3   2   1     1.331236470664   115.64003014   179.99984817
 O      4   3   2     1.205889691656   124.51410454     0.00000000
 C      4   3   2     1.468255900511   112.65677818   179.99903700
 C      6   4   3     1.366826038229   131.93323113     0.00000000
 C      7   6   4     1.426628792382   106.40795790   179.99882267
 C      8   7   6     1.403032985631   133.56954173   180.00105203
 C      9   8   7     1.372080759484   117.93102448   180.00057486
 Br    10   9   8     1.898342616490   119.35784645   179.99977010
 C     10   9   8     1.406946868856   122.46437585     0.00000000
 C     12  10   9     1.375454145207   120.53386510     0.00000000
 C     13  12  10     1.396747976682   117.74109255     0.00000000
 N     14  13  12     1.364143148023   130.55751074   179.99996423
 H      1   2   3     1.089472192272   110.69951053   299.74879628
 H      1   2   3     1.089786436064   109.69545725   180.00001909
 H      1   2   3     1.089472490965   110.69951418    60.25121374
 H      2   1   3     1.090675009469   112.18182576   119.25133431
 H      2   1   3     1.090674958633   112.18187617   240.74862753
 H      7   6   4     1.076540778093   125.59070739     0.00000000
 H      9   8   7     1.081176380947   121.16766205     0.00000000
 H     12  10   9     1.080745331921   119.21093677   179.99990917
 H     13  12  10     1.081936559630   120.77700049   179.99997692
 H     15  14  13     1.006961497836   128.06014450     0.00000000

---------------------------
INTERNAL COORDINATES (A.U.)
---------------------------
 C      0   0   0     0.000000000000     0.00000000     0.00000000
 C      1   0   0     2.850383235355     0.00000000     0.00000000
 O      2   1   0     2.713469705554   107.45338091     0.00000000
 C      3   2   1     2.515672349042   115.64003014   179.99984817
 O      4   3   2     2.278801264948   124.51410454     0.00000000
 C      4   3   2     2.774601546480   112.65677818   179.99903700
 C      6   4   3     2.582926884966   131.93323113     0.00000000
 C      7   6   4     2.695937712368   106.40795790   179.99882267
 C      8   7   6     2.651348099701   133.56954173   180.00105203
 C      9   8   7     2.592856869048   117.93102448   180.00057486
 Br    10   9   8     3.587347653517   119.35784645   179.99977010
 C     10   9   8     2.658744267117   122.46437585     0.00000000
 C     12  10   9     2.599231644207   120.53386510     0.00000000
 C     13  12  10     2.639471154038   117.74109255     0.00000000
 N     14  13  12     2.577856957228   130.55751074   179.99996423
 H      1   2   3     2.058804073917   110.69951053   299.74879628
 H      1   2   3     2.059397908623   109.69545725   180.00001909
 H      1   2   3     2.058804638365   110.69951418    60.25121374
 H      2   1   3     2.061077069009   112.18182576   119.25133431
 H      2   1   3     2.061076972942   112.18187617   240.74862753
 H      7   6   4     2.034367242595   125.59070739     0.00000000
 H      9   8   7     2.043127262454   121.16766205     0.00000000
 H     12  10   9     2.042312697844   119.21093677   179.99990917
 H     13  12  10     2.044563791979   120.77700049   179.99997692
 H     15  14  13     1.902881458314   128.06014450     0.00000000

---------------------
BASIS SET INFORMATION
---------------------
There are 5 groups of distinct atoms

 Group   1 Type C   : 11s6p1d contracted to 5s3p1d pattern {62111/411/1}
 Group   2 Type O   : 11s6p2d contracted to 5s3p2d pattern {62111/411/11}
 Group   3 Type Br  : 17s13p7d contracted to 6s5p3d pattern {842111/64111/511}
 Group   4 Type N   : 11s6p2d contracted to 5s3p2d pattern {62111/411/11}
 Group   5 Type H   : 4s1p contracted to 2s1p pattern {31/1}

Atom   0C    basis set group =>   1
Atom   1C    basis set group =>   1
Atom   2O    basis set group =>   2
Atom   3C    basis set group =>   1
Atom   4O    basis set group =>   2
Atom   5C    basis set group =>   1
Atom   6C    basis set group =>   1
Atom   7C    basis set group =>   1
Atom   8C    basis set group =>   1
Atom   9C    basis set group =>   1
Atom  10Br   basis set group =>   3
Atom  11C    basis set group =>   1
Atom  12C    basis set group =>   1
Atom  13C    basis set group =>   1
Atom  14N    basis set group =>   4
Atom  15H    basis set group =>   5
Atom  16H    basis set group =>   5
Atom  17H    basis set group =>   5
Atom  18H    basis set group =>   5
Atom  19H    basis set group =>   5
Atom  20H    basis set group =>   5
Atom  21H    basis set group =>   5
Atom  22H    basis set group =>   5
Atom  23H    basis set group =>   5
Atom  24H    basis set group =>   5
---------------------------------
AUXILIARY/J BASIS SET INFORMATION
---------------------------------
There are 5 groups of distinct atoms

 Group   1 Type C   : 8s3p3d contracted to 6s3p3d pattern {311111/111/111}
 Group   2 Type O   : 8s3p3d contracted to 6s3p3d pattern {311111/111/111}
 Group   3 Type Br  : 19s5p5d3f1g contracted to 8s4p3d2f1g pattern {121111111/2111/311/21/1}
 Group   4 Type N   : 8s3p3d contracted to 6s3p3d pattern {311111/111/111}
 Group   5 Type H   : 5s2p1d contracted to 3s1p1d pattern {311/2/1}

Atom   0C    basis set group =>   1
Atom   1C    basis set group =>   1
Atom   2O    basis set group =>   2
Atom   3C    basis set group =>   1
Atom   4O    basis set group =>   2
Atom   5C    basis set group =>   1
Atom   6C    basis set group =>   1
Atom   7C    basis set group =>   1
Atom   8C    basis set group =>   1
Atom   9C    basis set group =>   1
Atom  10Br   basis set group =>   3
Atom  11C    basis set group =>   1
Atom  12C    basis set group =>   1
Atom  13C    basis set group =>   1
Atom  14N    basis set group =>   4
Atom  15H    basis set group =>   5
Atom  16H    basis set group =>   5
Atom  17H    basis set group =>   5
Atom  18H    basis set group =>   5
Atom  19H    basis set group =>   5
Atom  20H    basis set group =>   5
Atom  21H    basis set group =>   5
Atom  22H    basis set group =>   5
Atom  23H    basis set group =>   5
Atom  24H    basis set group =>   5


           ************************************************************
           *        Program running with 16 parallel MPI-processes    *
           *              working on a common directory               *
           ************************************************************
------------------------------------------------------------------------------
                           ORCA GTO INTEGRAL CALCULATION
                           -- RI-GTO INTEGRALS CHOSEN --
------------------------------------------------------------------------------
------------------------------------------------------------------------------
                   ___                                                        
                  /   \      - P O W E R E D   B Y -                         
                 /     \                                                     
                 |  |  |   _    _      __       _____    __    __             
                 |  |  |  | |  | |    /  \     |  _  \  |  |  /  |          
                  \  \/   | |  | |   /    \    | | | |  |  | /  /          
                 / \  \   | |__| |  /  /\  \   | |_| |  |  |/  /          
                |  |  |   |  __  | /  /__\  \  |    /   |      \           
                |  |  |   | |  | | |   __   |  |    \   |  |\   \          
                \     /   | |  | | |  |  |  |  | |\  \  |  | \   \       
                 \___/    |_|  |_| |__|  |__|  |_| \__\ |__|  \__/        
                                                                              
                      - O R C A' S   B I G   F R I E N D -                    
                                      &                                       
                       - I N T E G R A L  F E E D E R -                       
                                                                              
 v1 FN, 2020, v2 2021                                                         
------------------------------------------------------------------------------


Reading SHARK input file /tmp/254453/arbr_11_r2scan3c.SHARKINP.tmp ... ok
----------------------
SHARK INTEGRAL PACKAGE
----------------------

Number of atoms                             ...     25
Number of basis functions                   ...    367
Number of shells                            ...    173
Maximum angular momentum                    ...      2
Integral batch strategy                     ... SHARK/LIBINT Hybrid
RI-J (if used) integral strategy            ... SPLIT-RIJ (Revised 2003 algorithm where possible)
Printlevel                                  ...      1
Contraction scheme used                     ... SEGMENTED contraction
Coulomb Range Separation                    ... NOT USED
Exchange Range Separation                   ... NOT USED
Finite Nucleus Model                        ... NOT USED
Auxiliary Coulomb fitting basis             ... AVAILABLE
   # of basis functions in Aux-J            ...    588
   # of shells in Aux-J                     ...    236
   Maximum angular momentum in Aux-J        ...      4
Auxiliary J/K fitting basis                 ... NOT available
Auxiliary Correlation fitting basis         ... NOT available
Auxiliary 'external' fitting basis          ... NOT available
Integral threshold                          ...     2.500000e-11
Primitive cut-off                           ...     2.500000e-12
Primitive pair pre-selection threshold      ...     2.500000e-12

Calculating pre-screening integrals         ... done (  0.0 sec) Dimension = 173
Organizing shell pair data                  ... done (  0.0 sec)
Shell pair information
Total number of shell pairs                 ...     15051
Shell pairs after pre-screening             ...     10900
Total number of primitive shell pairs       ...     59057
Primitive shell pairs kept                  ...     27407
          la=0 lb=0:   3194 shell pairs
          la=1 lb=0:   4070 shell pairs
          la=1 lb=1:   1310 shell pairs
          la=2 lb=0:   1325 shell pairs
          la=2 lb=1:    852 shell pairs
          la=2 lb=2:    149 shell pairs

Calculating one electron integrals          ... done (  0.0 sec)
Calculating RI/J V-Matrix + Cholesky decomp.... done (  0.0 sec)
Calculating Nuclear repulsion               ... done (  0.0 sec) ENN=   1191.674859071996 Eh

SHARK setup successfully completed in   0.2 seconds

Maximum memory used throughout the entire GTOINT-calculation: 23.5 MB


           ************************************************************
           *        Program running with 16 parallel MPI-processes    *
           *              working on a common directory               *
           ************************************************************
-------------------------------------------------------------------------------
                                 ORCA SCF
-------------------------------------------------------------------------------

------------
SCF SETTINGS
------------
Hamiltonian:
 Density Functional     Method          .... DFT(GTOs)
  Functional kind                       .... Exchange
  Functional name                       .... Re-regularized SCAN exchange by Furness et al
  Functional family                     .... MGGA
  Functional refs                              
    [ 0] J. W. Furness, A. D. Kaplan, J. Ning, J. P. Perdew, and J. Sun, J. Phys. Chem. Lett. 11, 8208 (2020)
    [ 1] J. W. Furness, A. D. Kaplan, J. Ning, J. P. Perdew, and J. Sun, J. Phys. Chem. Lett. 11, 9248 (2020)
  Functional external parameters         .... 8
 Parameter  0 :         c1 parameter
 Parameter  1 :         c2 parameter
 Parameter  2 :          d parameter
 Parameter  3 :         k1 parameter
 Parameter  4 :       taur parameter
 Parameter  5 :     alphar parameter
 Parameter  6 :        eta parameter
 Parameter  7 :        dp2 parameter
  Functional kind                       .... Correlation
  Functional name                       .... Re-regularized SCAN correlation by Furness et al
  Functional family                     .... MGGA
  Functional refs                              
    [ 0] J. W. Furness, A. D. Kaplan, J. Ning, J. P. Perdew, and J. Sun, J. Phys. Chem. Lett. 11, 8208 (2020)
    [ 1] J. W. Furness, A. D. Kaplan, J. Ning, J. P. Perdew, and J. Sun, J. Phys. Chem. Lett. 11, 9248 (2020)
  Functional external parameters         .... 0
 Gradients option       PostSCFGGA      .... off
   Density functional embedding theory  .... OFF
 RI-approximation to the Coulomb term is turned on
   Number of AuxJ basis functions       .... 588


General Settings:
 Integral files         IntName         .... /tmp/254453/arbr_11_r2scan3c
 Hartree-Fock type      HFTyp           .... RHF
 Total Charge           Charge          ....    0
 Multiplicity           Mult            ....    1
 Number of Electrons    NEL             ....  134
 Basis Dimension        Dim             ....  367
 Nuclear Repulsion      ENuc            ....   1191.6748590720 Eh

Convergence Acceleration:
 DIIS                   CNVDIIS         .... on
   Start iteration      DIISMaxIt       ....    12
   Startup error        DIISStart       ....  0.200000
   # of expansion vecs  DIISMaxEq       ....     5
   Bias factor          DIISBfac        ....   1.050
   Max. coefficient     DIISMaxC        ....  10.000
 Trust-Rad. Augm. Hess. CNVTRAH         .... auto
   Auto Start mean grad. ratio tolernc. ....  1.125000
   Auto Start start iteration           ....    20
   Auto Start num. interpolation iter.  ....    10
   Max. Number of Micro iterations      ....    16
   Max. Number of Macro iterations      .... Maxiter - #DIIS iter
   Number of Davidson start vectors     ....     2
   Converg. threshold I  (grad. norm)   ....   1.000e-05
   Converg. threshold II (energy diff.) ....   1.000e-08
   Grad. Scal. Fac. for Micro threshold ....   0.100
   Minimum threshold for Micro iter.    ....   0.010
   NR start threshold (gradient norm)   ....   0.001
   Initial trust radius                 ....   0.400
   Minimum AH scaling param. (alpha)    ....   1.000
   Maximum AH scaling param. (alpha)    .... 1000.000
   Orbital update algorithm             .... Taylor
   White noise on init. David. guess    .... on
   Maximum white noise                  ....   0.010
   Quad. conv. algorithm                .... NR
   COSX micro iterations for RIJONX calc.... off
 SOSCF                  CNVSOSCF        .... on
   Start iteration      SOSCFMaxIt      ....   150
   Startup grad/error   SOSCFStart      ....  0.003300
 Level Shifting         CNVShift        .... on
   Level shift para.    LevelShift      ....    0.2500
   Turn off err/grad.   ShiftErr        ....    0.0010
 Zerner damping         CNVZerner       .... off
 Static damping         CNVDamp         .... on
   Fraction old density DampFac         ....    0.7000
   Max. Damping (<1)    DampMax         ....    0.9800
   Min. Damping (>=0)   DampMin         ....    0.0000
   Turn off err/grad.   DampErr         ....    0.1000
 Fernandez-Rico         CNVRico         .... off

SCF Procedure:
 Maximum # iterations   MaxIter         ....   125
 SCF integral mode      SCFMode         .... Direct
   Integral package                     .... SHARK and LIBINT hybrid scheme
 Reset frequency        DirectResetFreq ....    20
 Integral Threshold     Thresh          ....  2.500e-11 Eh
 Primitive CutOff       TCut            ....  2.500e-12 Eh

Convergence Tolerance:
 Convergence Check Mode ConvCheckMode   .... Total+1el-Energy
 Convergence forced     ConvForced      .... 0
 Energy Change          TolE            ....  1.000e-08 Eh
 1-El. energy change                    ....  1.000e-05 Eh
 Orbital Gradient       TolG            ....  1.000e-05
 Orbital Rotation angle TolX            ....  1.000e-05
 DIIS Error             TolErr          ....  5.000e-07


Diagonalization of the overlap matrix:
Smallest eigenvalue                        ... 2.175e-05
Time for diagonalization                   ...    0.014 sec
Threshold for overlap eigenvalues          ... 1.000e-08
Number of eigenvalues below threshold      ... 0
Time for construction of square roots      ...    0.009 sec
Total time needed                          ...    0.032 sec

Time for model grid setup =    0.111 sec

------------------------------
INITIAL GUESS: MODEL POTENTIAL
------------------------------
Loading Hartree-Fock densities                     ... done
Calculating cut-offs                               ... done
Initializing the effective Hamiltonian             ... done
Setting up the integral package (SHARK)            ... done
Starting the Coulomb interaction                   ... done (   0.1 sec)
Reading the grid                                   ... done
Mapping shells                                     ... done
Starting the XC term evaluation                    ... done (   0.0 sec)
  promolecular density results
     # of electrons  =    133.989267497
     EX              =   -171.440915067
     EC              =     -5.056090035
     EX+EC           =   -176.497005102
Transforming the Hamiltonian                       ... done (   0.0 sec)
Diagonalizing the Hamiltonian                      ... done (   0.0 sec)
Back transforming the eigenvectors                 ... done (   0.0 sec)
Now organizing SCF variables                       ... done
                      ------------------
                      INITIAL GUESS DONE (   0.2 sec)
                      ------------------
-------------------
DFT GRID GENERATION
-------------------

General Integration Accuracy     IntAcc      ... 4.388
Radial Grid Type                 RadialGrid  ... OptM3 with GC (2021)
Angular Grid (max. ang.)         AngularGrid ... 4 (Lebedev-302)
Angular grid pruning method      GridPruning ... 4 (adaptive)
Weight generation scheme         WeightScheme... Becke
Basis function cutoff            BFCut       ... 1.0000e-11
Integration weight cutoff        WCut        ... 1.0000e-14
Angular grids for H and He will be reduced by one unit
Partially contracted basis set               ... off
Rotationally invariant grid construction     ... off

Total number of grid points                  ...   127963
Total number of batches                      ...     2009
Average number of points per batch           ...       63
Average number of grid points per atom       ...     5119
Time for grid setup =    0.600 sec

--------------
SCF ITERATIONS
--------------
ITER       Energy         Delta-E        Max-DP      RMS-DP      [F,P]     Damp
               ***  Starting incremental Fock matrix formation  ***
  0  -3204.0962618693   0.000000000000 0.07171032  0.00151662  0.2760644 0.7000
  1  -3204.2614271039  -0.165165234600 0.04913020  0.00108458  0.1010002 0.7000
                               ***Turning on DIIS***
  2  -3204.3200727123  -0.058645608415 0.07362410  0.00181345  0.0330211 0.0000
  3  -3204.4150954140  -0.095022701665 0.04737154  0.00093558  0.0520810 0.0000
  4  -3204.4374462700  -0.022350856068 0.03344895  0.00039513  0.0195010 0.0000
  5  -3204.4392091199  -0.001762849912 0.01841740  0.00017341  0.0079622 0.0000
                      *** Initiating the SOSCF procedure ***
                           *** Shutting down DIIS ***
                      *** Re-Reading the Fockian *** 
                      *** Removing any level shift *** 
ITER      Energy       Delta-E        Grad      Rot      Max-DP    RMS-DP
  6  -3204.43933827  -0.0001291532  0.000419  0.000419  0.004456  0.000056
               *** Restarting incremental Fock matrix formation ***
  7  -3204.43935652  -0.0000182449  0.000195  0.001009  0.001725  0.000029
  8  -3204.43935146   0.0000050587  0.000389  0.000963  0.000931  0.000016
  9  -3204.43935887  -0.0000074085  0.000099  0.000691  0.000608  0.000010
 10  -3204.43935819   0.0000006809  0.000138  0.000349  0.000313  0.000006
 11  -3204.43935915  -0.0000009663  0.000014  0.000125  0.000153  0.000002
 12  -3204.43935915   0.0000000048  0.000030  0.000082  0.000068  0.000001
 13  -3204.43935917  -0.0000000191  0.000006  0.000031  0.000116  0.000001
                 **** Energy Check signals convergence ****
              ***Rediagonalizing the Fockian in SOSCF/NRSCF***

               *****************************************************
               *                     SUCCESS                       *
               *           SCF CONVERGED AFTER  14 CYCLES          *
               *****************************************************


----------------
TOTAL SCF ENERGY
----------------

Total Energy       :        -3204.43935916 Eh          -87197.22798 eV

Components:
Nuclear Repulsion  :         1191.67485907 Eh           32427.12148 eV
Electronic Energy  :        -4396.11421823 Eh         -119624.34946 eV
One Electron Energy:        -6806.98531971 Eh         -185227.48733 eV
Two Electron Energy:         2410.87110148 Eh           65603.13787 eV

Virial components:
Potential Energy   :        -6402.96289592 Eh         -174233.47826 eV
Kinetic Energy     :         3198.52353677 Eh           87036.25027 eV
Virial Ratio       :            2.00184955


DFT components:
N(Alpha)           :       67.000017690876 electrons
N(Beta)            :       67.000017690876 electrons
N(Total)           :      134.000035381753 electrons
E(X)               :     -173.739807893519 Eh       
E(C)               :       -4.985755853371 Eh       
E(XC)              :     -178.725563746891 Eh       
DFET-embed. en.    :        0.000000000000 Eh       

---------------
SCF CONVERGENCE
---------------

  Last Energy change         ...    8.2396e-09  Tolerance :   1.0000e-08
  Last MAX-Density change    ...    4.7477e-05  Tolerance :   1.0000e-07
  Last RMS-Density change    ...    7.1923e-07  Tolerance :   5.0000e-09
  Last Orbital Gradient      ...    1.0549e-05  Tolerance :   1.0000e-05
  Last Orbital Rotation      ...    1.9659e-05  Tolerance :   1.0000e-05

             **** THE GBW FILE WAS UPDATED (/tmp/254453/arbr_11_r2scan3c.gbw) ****
             **** DENSITY /tmp/254453/arbr_11_r2scan3c.scfp WAS UPDATED ****
             **** ENERGY FILE WAS UPDATED (/tmp/254453/arbr_11_r2scan3c.en.tmp) ****
             **** THE GBW FILE WAS UPDATED (/tmp/254453/arbr_11_r2scan3c.gbw) ****
             **** DENSITY /tmp/254453/arbr_11_r2scan3c.scfp WAS UPDATED ****
----------------
ORBITAL ENERGIES
----------------

  NO   OCC          E(Eh)            E(eV) 
   0   2.0000    -482.225770    -13122.0303 
   1   2.0000     -62.297055     -1695.1891 
   2   2.0000     -56.078274     -1525.9674 
   3   2.0000     -56.074451     -1525.8634 
   4   2.0000     -56.074335     -1525.8602 
   5   2.0000     -19.008305      -517.2423 
   6   2.0000     -18.944624      -515.5094 
   7   2.0000     -14.221156      -386.9773 
   8   2.0000     -10.168248      -276.6921 
   9   2.0000     -10.097774      -274.7744 
  10   2.0000     -10.093686      -274.6631 
  11   2.0000     -10.086116      -274.4572 
  12   2.0000     -10.085618      -274.4436 
  13   2.0000     -10.055212      -273.6162 
  14   2.0000     -10.053511      -273.5699 
  15   2.0000     -10.052595      -273.5450 
  16   2.0000     -10.051816      -273.5238 
  17   2.0000     -10.045189      -273.3435 
  18   2.0000     -10.037446      -273.1328 
  19   2.0000      -8.629053      -234.8085 
  20   2.0000      -6.436774      -175.1535 
  21   2.0000      -6.422792      -174.7731 
  22   2.0000      -6.422588      -174.7675 
  23   2.0000      -2.534256       -68.9606 
  24   2.0000      -2.530991       -68.8718 
  25   2.0000      -2.530832       -68.8674 
  26   2.0000      -2.520170       -68.5773 
  27   2.0000      -2.520142       -68.5765 
  28   2.0000      -1.086280       -29.5592 
  29   2.0000      -0.998107       -27.1599 
  30   2.0000      -0.969515       -26.3819 
  31   2.0000      -0.842583       -22.9278 
  32   2.0000      -0.777857       -21.1666 
  33   2.0000      -0.772364       -21.0171 
  34   2.0000      -0.756045       -20.5730 
  35   2.0000      -0.715643       -19.4736 
  36   2.0000      -0.700439       -19.0599 
  37   2.0000      -0.645939       -17.5769 
  38   2.0000      -0.604975       -16.4622 
  39   2.0000      -0.586568       -15.9613 
  40   2.0000      -0.567396       -15.4396 
  41   2.0000      -0.550407       -14.9773 
  42   2.0000      -0.530682       -14.4406 
  43   2.0000      -0.488631       -13.2963 
  44   2.0000      -0.474183       -12.9032 
  45   2.0000      -0.456399       -12.4192 
  46   2.0000      -0.443344       -12.0640 
  47   2.0000      -0.432500       -11.7689 
  48   2.0000      -0.426524       -11.6063 
  49   2.0000      -0.420535       -11.4433 
  50   2.0000      -0.415538       -11.3074 
  51   2.0000      -0.396517       -10.7898 
  52   2.0000      -0.395066       -10.7503 
  53   2.0000      -0.379148       -10.3171 
  54   2.0000      -0.373046       -10.1511 
  55   2.0000      -0.351251        -9.5580 
  56   2.0000      -0.349674        -9.5151 
  57   2.0000      -0.338123        -9.2008 
  58   2.0000      -0.333357        -9.0711 
  59   2.0000      -0.329497        -8.9661 
  60   2.0000      -0.286012        -7.7828 
  61   2.0000      -0.282488        -7.6869 
  62   2.0000      -0.274588        -7.4719 
  63   2.0000      -0.264257        -7.1908 
  64   2.0000      -0.258019        -7.0210 
  65   2.0000      -0.218103        -5.9349 
  66   2.0000      -0.208622        -5.6769 
  67   0.0000      -0.082250        -2.2381 
  68   0.0000      -0.028808        -0.7839 
  69   0.0000      -0.017792        -0.4841 
  70   0.0000      -0.015136        -0.4119 
  71   0.0000       0.060798         1.6544 
  72   0.0000       0.070739         1.9249 
  73   0.0000       0.080149         2.1810 
  74   0.0000       0.091118         2.4794 
  75   0.0000       0.095849         2.6082 
  76   0.0000       0.100152         2.7253 
  77   0.0000       0.106665         2.9025 
  78   0.0000       0.117692         3.2026 
  79   0.0000       0.119769         3.2591 
  80   0.0000       0.135150         3.6776 
  81   0.0000       0.138193         3.7604 
  82   0.0000       0.144842         3.9414 
  83   0.0000       0.148990         4.0542 
  84   0.0000       0.154066         4.1923 
  85   0.0000       0.163364         4.4454 
  86   0.0000       0.171260         4.6602 
  87   0.0000       0.175297         4.7701 
  88   0.0000       0.182616         4.9692 
  89   0.0000       0.187134         5.0922 
  90   0.0000       0.190747         5.1905 
  91   0.0000       0.196062         5.3351 
  92   0.0000       0.206045         5.6068 
  93   0.0000       0.214765         5.8441 
  94   0.0000       0.215656         5.8683 
  95   0.0000       0.224928         6.1206 
  96   0.0000       0.228711         6.2236 
  97   0.0000       0.232160         6.3174 
  98   0.0000       0.235005         6.3948 
  99   0.0000       0.247605         6.7377 
 100   0.0000       0.249993         6.8026 
 101   0.0000       0.252392         6.8679 
 102   0.0000       0.252667         6.8754 
 103   0.0000       0.265927         7.2362 
 104   0.0000       0.269714         7.3393 
 105   0.0000       0.285593         7.7714 
 106   0.0000       0.288067         7.8387 
 107   0.0000       0.299274         8.1437 
 108   0.0000       0.299534         8.1507 
 109   0.0000       0.311919         8.4877 
 110   0.0000       0.313134         8.5208 
 111   0.0000       0.320992         8.7346 
 112   0.0000       0.326752         8.8914 
 113   0.0000       0.341028         9.2798 
 114   0.0000       0.342767         9.3272 
 115   0.0000       0.349083         9.4990 
 116   0.0000       0.360710         9.8154 
 117   0.0000       0.363284         9.8854 
 118   0.0000       0.377221        10.2647 
 119   0.0000       0.382094        10.3973 
 120   0.0000       0.386891        10.5278 
 121   0.0000       0.394550        10.7362 
 122   0.0000       0.402345        10.9484 
 123   0.0000       0.419134        11.4052 
 124   0.0000       0.424584        11.5535 
 125   0.0000       0.432038        11.7564 
 126   0.0000       0.447789        12.1850 
 127   0.0000       0.452286        12.3073 
 128   0.0000       0.472035        12.8447 
 129   0.0000       0.475805        12.9473 
 130   0.0000       0.478027        13.0078 
 131   0.0000       0.489436        13.3182 
 132   0.0000       0.496133        13.5005 
 133   0.0000       0.502429        13.6718 
 134   0.0000       0.523934        14.2570 
 135   0.0000       0.529095        14.3974 
 136   0.0000       0.533620        14.5205 
 137   0.0000       0.546449        14.8696 
 138   0.0000       0.547148        14.8887 
 139   0.0000       0.561863        15.2891 
 140   0.0000       0.564397        15.3580 
 141   0.0000       0.568037        15.4571 
 142   0.0000       0.581987        15.8367 
 143   0.0000       0.586392        15.9565 
 144   0.0000       0.591800        16.1037 
 145   0.0000       0.606707        16.5093 
 146   0.0000       0.616309        16.7706 
 147   0.0000       0.621601        16.9146 
 148   0.0000       0.634416        17.2633 
 149   0.0000       0.642438        17.4816 
 150   0.0000       0.651087        17.7170 
 151   0.0000       0.666028        18.1235 
 152   0.0000       0.672957        18.3121 
 153   0.0000       0.674829        18.3630 
 154   0.0000       0.693307        18.8658 
 155   0.0000       0.710123        19.3234 
 156   0.0000       0.715741        19.4763 
 157   0.0000       0.717836        19.5333 
 158   0.0000       0.728519        19.8240 
 159   0.0000       0.737295        20.0628 
 160   0.0000       0.747014        20.3273 
 161   0.0000       0.766571        20.8595 
 162   0.0000       0.781716        21.2716 
 163   0.0000       0.789273        21.4772 
 164   0.0000       0.809925        22.0392 
 165   0.0000       0.847784        23.0694 
 166   0.0000       0.851999        23.1841 
 167   0.0000       0.858626        23.3644 
 168   0.0000       0.877757        23.8850 
 169   0.0000       0.889750        24.2113 
 170   0.0000       0.918815        25.0022 
 171   0.0000       0.951853        25.9012 
 172   0.0000       0.975130        26.5346 
 173   0.0000       1.021117        27.7860 
 174   0.0000       1.025523        27.9059 
 175   0.0000       1.049608        28.5613 
 176   0.0000       1.052536        28.6410 
 177   0.0000       1.065247        28.9869 
 178   0.0000       1.069570        29.1045 
 179   0.0000       1.093087        29.7444 
 180   0.0000       1.116118        30.3711 
 181   0.0000       1.137986        30.9662 
 182   0.0000       1.167178        31.7605 
 183   0.0000       1.185922        32.2706 
 184   0.0000       1.208505        32.8851 
 185   0.0000       1.217956        33.1423 
 186   0.0000       1.228558        33.4308 
 187   0.0000       1.233261        33.5587 
 188   0.0000       1.240102        33.7449 
 189   0.0000       1.273376        34.6503 
 190   0.0000       1.284406        34.9505 
 191   0.0000       1.297548        35.3081 
 192   0.0000       1.310871        35.6706 
 193   0.0000       1.319887        35.9160 
 194   0.0000       1.328316        36.1453 
 195   0.0000       1.336392        36.3651 
 196   0.0000       1.345476        36.6123 
 197   0.0000       1.348494        36.6944 
 198   0.0000       1.354594        36.8604 
 199   0.0000       1.371456        37.3192 
 200   0.0000       1.385863        37.7112 
 201   0.0000       1.415160        38.5085 
 202   0.0000       1.428065        38.8596 
 203   0.0000       1.430819        38.9346 
 204   0.0000       1.439739        39.1773 
 205   0.0000       1.459201        39.7069 
 206   0.0000       1.461406        39.7669 
 207   0.0000       1.461993        39.7829 
 208   0.0000       1.479931        40.2710 
 209   0.0000       1.480602        40.2892 
 210   0.0000       1.489027        40.5185 
 211   0.0000       1.503172        40.9034 
 212   0.0000       1.505284        40.9609 
 213   0.0000       1.522046        41.4170 
 214   0.0000       1.537449        41.8361 
 215   0.0000       1.543064        41.9889 
 216   0.0000       1.565496        42.5993 
 217   0.0000       1.571868        42.7727 
 218   0.0000       1.573847        42.8265 
 219   0.0000       1.593940        43.3733 
 220   0.0000       1.609080        43.7853 
 221   0.0000       1.614569        43.9347 
 222   0.0000       1.628259        44.3072 
 223   0.0000       1.642893        44.7054 
 224   0.0000       1.647242        44.8237 
 225   0.0000       1.666500        45.3478 
 226   0.0000       1.680207        45.7207 
 227   0.0000       1.704022        46.3688 
 228   0.0000       1.716797        46.7164 
 229   0.0000       1.726369        46.9769 
 230   0.0000       1.733869        47.1810 
 231   0.0000       1.765071        48.0300 
 232   0.0000       1.767322        48.0913 
 233   0.0000       1.772722        48.2382 
 234   0.0000       1.794628        48.8343 
 235   0.0000       1.806591        49.1599 
 236   0.0000       1.811593        49.2959 
 237   0.0000       1.817208        49.4487 
 238   0.0000       1.835389        49.9435 
 239   0.0000       1.865850        50.7723 
 240   0.0000       1.879840        51.1530 
 241   0.0000       1.888044        51.3763 
 242   0.0000       1.907945        51.9178 
 243   0.0000       1.935334        52.6631 
 244   0.0000       1.992767        54.2260 
 245   0.0000       2.014380        54.8141 
 246   0.0000       2.037298        55.4377 
 247   0.0000       2.043912        55.6177 
 248   0.0000       2.063817        56.1593 
 249   0.0000       2.066984        56.2455 
 250   0.0000       2.092189        56.9314 
 251   0.0000       2.100769        57.1648 
 252   0.0000       2.103820        57.2479 
 253   0.0000       2.117623        57.6235 
 254   0.0000       2.127964        57.9048 
 255   0.0000       2.169753        59.0420 
 256   0.0000       2.174224        59.1636 
 257   0.0000       2.189661        59.5837 
 258   0.0000       2.203751        59.9671 
 259   0.0000       2.215988        60.3001 
 260   0.0000       2.246850        61.1399 
 261   0.0000       2.247113        61.1470 
 262   0.0000       2.259153        61.4747 
 263   0.0000       2.267947        61.7140 
 264   0.0000       2.273132        61.8551 
 265   0.0000       2.286431        62.2170 
 266   0.0000       2.308630        62.8210 
 267   0.0000       2.312810        62.9348 
 268   0.0000       2.313593        62.9561 
 269   0.0000       2.321214        63.1634 
 270   0.0000       2.328696        63.3670 
 271   0.0000       2.341760        63.7225 
 272   0.0000       2.343059        63.7579 
 273   0.0000       2.365831        64.3775 
 274   0.0000       2.371294        64.5262 
 275   0.0000       2.373177        64.5774 
 276   0.0000       2.396932        65.2238 
 277   0.0000       2.415334        65.7246 
 278   0.0000       2.431316        66.1595 
 279   0.0000       2.437615        66.3309 
 280   0.0000       2.441610        66.4396 
 281   0.0000       2.515529        68.4510 
 282   0.0000       2.532442        68.9113 
 283   0.0000       2.538971        69.0889 
 284   0.0000       2.555040        69.5262 
 285   0.0000       2.570618        69.9501 
 286   0.0000       2.590670        70.4957 
 287   0.0000       2.617935        71.2376 
 288   0.0000       2.631964        71.6194 
 289   0.0000       2.635539        71.7167 
 290   0.0000       2.642832        71.9151 
 291   0.0000       2.690570        73.2141 
 292   0.0000       2.690916        73.2235 
 293   0.0000       2.698987        73.4432 
 294   0.0000       2.699650        73.4612 
 295   0.0000       2.707718        73.6808 
 296   0.0000       2.728859        74.2560 
 297   0.0000       2.731316        74.3229 
 298   0.0000       2.742540        74.6283 
 299   0.0000       2.753124        74.9163 
 300   0.0000       2.768219        75.3271 
 301   0.0000       2.798489        76.1508 
 302   0.0000       2.802992        76.2733 
 303   0.0000       2.813848        76.5687 
 304   0.0000       2.814639        76.5902 
 305   0.0000       2.825179        76.8770 
 306   0.0000       2.842806        77.3567 
 307   0.0000       2.874546        78.2204 
 308   0.0000       2.880162        78.3732 
 309   0.0000       2.903995        79.0217 
 310   0.0000       2.928068        79.6768 
 311   0.0000       2.943258        80.0901 
 312   0.0000       2.944704        80.1295 
 313   0.0000       2.955918        80.4346 
 314   0.0000       2.972386        80.8827 
 315   0.0000       2.982410        81.1555 
 316   0.0000       2.995439        81.5100 
 317   0.0000       3.034028        82.5601 
 318   0.0000       3.039579        82.7111 
 319   0.0000       3.042096        82.7796 
 320   0.0000       3.062279        83.3288 
 321   0.0000       3.109715        84.6196 
 322   0.0000       3.120381        84.9099 
 323   0.0000       3.123023        84.9818 
 324   0.0000       3.184810        86.6631 
 325   0.0000       3.206041        87.2408 
 326   0.0000       3.216204        87.5174 
 327   0.0000       3.242365        88.2292 
 328   0.0000       3.273682        89.0814 
 329   0.0000       3.289240        89.5048 
 330   0.0000       3.294449        89.6465 
 331   0.0000       3.326113        90.5081 
 332   0.0000       3.351783        91.2067 
 333   0.0000       3.361846        91.4805 
 334   0.0000       3.370896        91.7268 
 335   0.0000       3.383588        92.0721 
 336   0.0000       3.487473        94.8990 
 337   0.0000       3.503956        95.3475 
 338   0.0000       3.521650        95.8290 
 339   0.0000       3.538070        96.2758 
 340   0.0000       3.586584        97.5959 
 341   0.0000       3.601474        98.0011 
 342   0.0000       3.609993        98.2329 
 343   0.0000       3.641379        99.0869 
 344   0.0000       3.739085       101.7457 
 345   0.0000       3.814515       103.7982 
 346   0.0000       3.876172       105.4760 
 347   0.0000       4.050722       110.2257 
 348   0.0000       4.146028       112.8192 
 349   0.0000       4.206985       114.4779 
 350   0.0000       4.340942       118.1230 
 351   0.0000       4.499191       122.4292 
 352   0.0000       7.504703       204.2133 
 353   0.0000      21.401157       582.3551 
 354   0.0000      21.768406       592.3484 
 355   0.0000      21.900886       595.9534 
 356   0.0000      21.945178       597.1587 
 357   0.0000      22.024754       599.3240 
 358   0.0000      22.070633       600.5725 
 359   0.0000      22.154362       602.8508 
 360   0.0000      22.213546       604.4613 
 361   0.0000      22.272418       606.0633 
 362   0.0000      22.325110       607.4971 
 363   0.0000      22.413662       609.9067 
 364   0.0000      31.966288       869.8469 
 365   0.0000      43.720995      1189.7088 
 366   0.0000      43.741212      1190.2589 

                    ********************************
                    * MULLIKEN POPULATION ANALYSIS *
                    ********************************

-----------------------
MULLIKEN ATOMIC CHARGES
-----------------------
   0 C :   -0.452045
   1 C :   -0.132461
   2 O :   -0.136491
   3 C :    0.138974
   4 O :   -0.429227
   5 C :    0.257240
   6 C :   -0.420451
   7 C :    0.337533
   8 C :   -0.394950
   9 C :    0.158537
  10 Br:   -0.143362
  11 C :   -0.175896
  12 C :   -0.346116
  13 C :    0.091941
  14 N :   -0.047912
  15 H :    0.154245
  16 H :    0.148897
  17 H :    0.154245
  18 H :    0.156345
  19 H :    0.156346
  20 H :    0.166166
  21 H :    0.165079
  22 H :    0.164915
  23 H :    0.148066
  24 H :    0.280381
Sum of atomic charges:   -0.0000000

--------------------------------
MULLIKEN REDUCED ORBITAL CHARGES
--------------------------------
  0 C s       :     3.318938  s :     3.318938
      pz      :     1.100750  p :     3.105850
      px      :     1.069566
      py      :     0.935534
      dz2     :     0.005369  d :     0.027257
      dxz     :     0.002000
      dyz     :     0.008084
      dx2y2   :     0.007946
      dxy     :     0.003858
  1 C s       :     3.272123  s :     3.272123
      pz      :     1.113687  p :     2.803907
      px      :     0.697341
      py      :     0.992879
      dz2     :     0.008068  d :     0.056431
      dxz     :     0.010686
      dyz     :     0.009822
      dx2y2   :     0.017425
      dxy     :     0.010430
  2 O s       :     3.697041  s :     3.697041
      pz      :     1.749129  p :     4.404444
      px      :     1.210609
      py      :     1.444706
      dz2     :     0.000373  d :     0.035006
      dxz     :     0.007693
      dyz     :     0.007135
      dx2y2   :     0.010565
      dxy     :     0.009240
  3 C s       :     3.177136  s :     3.177136
      pz      :     0.795251  p :     2.552599
      px      :     0.932786
      py      :     0.824563
      dz2     :     0.005883  d :     0.131291
      dxz     :     0.010585
      dyz     :     0.027606
      dx2y2   :     0.048520
      dxy     :     0.038697
  4 O s       :     3.839775  s :     3.839775
      pz      :     1.463399  p :     4.563633
      px      :     1.687951
      py      :     1.412283
      dz2     :     0.004463  d :     0.025820
      dxz     :     0.004478
      dyz     :     0.007399
      dx2y2   :     0.003443
      dxy     :     0.006037
  5 C s       :     3.168659  s :     3.168659
      pz      :     1.025027  p :     2.512692
      px      :     0.696545
      py      :     0.791121
      dz2     :     0.004748  d :     0.061408
      dxz     :     0.005764
      dyz     :     0.012964
      dx2y2   :     0.017933
      dxy     :     0.020000
  6 C s       :     3.306604  s :     3.306604
      pz      :     1.055725  p :     3.075814
      px      :     0.959768
      py      :     1.060320
      dz2     :     0.003395  d :     0.038033
      dxz     :     0.006143
      dyz     :     0.004070
      dx2y2   :     0.010690
      dxy     :     0.013735
  7 C s       :     3.076112  s :     3.076112
      pz      :     1.023341  p :     2.535530
      px      :     0.658893
      py      :     0.853296
      dz2     :     0.003916  d :     0.050826
      dxz     :     0.009097
      dyz     :     0.005474
      dx2y2   :     0.019593
      dxy     :     0.012745
  8 C s       :     3.324151  s :     3.324151
      pz      :     1.003233  p :     3.031968
      px      :     0.943886
      py      :     1.084849
      dz2     :     0.003341  d :     0.038830
      dxz     :     0.007520
      dyz     :     0.002661
      dx2y2   :     0.012646
      dxy     :     0.012662
  9 C s       :     3.072440  s :     3.072440
      pz      :     1.058747  p :     2.719477
      px      :     0.760720
      py      :     0.900009
      dz2     :     0.003486  d :     0.049546
      dxz     :     0.006740
      dyz     :     0.007298
      dx2y2   :     0.016286
      dxy     :     0.015736
 10 Brs       :     7.978925  s :     7.978925
      pz      :     5.944951  p :    17.115911
      px      :     5.341488
      py      :     5.829472
      dz2     :     2.005929  d :    10.048526
      dxz     :     2.013456
      dyz     :     2.002863
      dx2y2   :     2.012499
      dxy     :     2.013779
 11 C s       :     3.184304  s :     3.184304
      pz      :     1.006162  p :     2.953252
      px      :     1.023485
      py      :     0.923604
      dz2     :     0.003335  d :     0.038340
      dxz     :     0.004183
      dyz     :     0.005839
      dx2y2   :     0.013019
      dxy     :     0.011965
 12 C s       :     3.260409  s :     3.260409
      pz      :     1.034250  p :     3.046762
      px      :     0.979779
      py      :     1.032734
      dz2     :     0.003360  d :     0.038945
      dxz     :     0.007572
      dyz     :     0.002446
      dx2y2   :     0.012527
      dxy     :     0.013040
 13 C s       :     3.187694  s :     3.187694
      pz      :     0.970336  p :     2.656070
      px      :     0.860101
      py      :     0.825633
      dz2     :     0.004628  d :     0.064295
      dxz     :     0.013455
      dyz     :     0.006896
      dx2y2   :     0.022942
      dxy     :     0.016374
 14 N s       :     3.282646  s :     3.282646
      pz      :     1.584427  p :     3.649492
      px      :     0.968867
      py      :     1.096197
      dz2     :     0.005908  d :     0.115773
      dxz     :     0.022162
      dyz     :     0.020254
      dx2y2   :     0.038155
      dxy     :     0.029295
 15 H s       :     0.827723  s :     0.827723
      pz      :     0.008361  p :     0.018032
      px      :     0.004339
      py      :     0.005332
 16 H s       :     0.832913  s :     0.832913
      pz      :     0.003748  p :     0.018190
      px      :     0.010971
      py      :     0.003471
 17 H s       :     0.827723  s :     0.827723
      pz      :     0.008362  p :     0.018032
      px      :     0.004339
      py      :     0.005332
 18 H s       :     0.826108  s :     0.826108
      pz      :     0.008702  p :     0.017547
      px      :     0.002975
      py      :     0.005870
 19 H s       :     0.826107  s :     0.826107
      pz      :     0.008702  p :     0.017547
      px      :     0.002975
      py      :     0.005870
 20 H s       :     0.813339  s :     0.813339
      pz      :     0.004639  p :     0.020495
      px      :     0.004146
      py      :     0.011711
 21 H s       :     0.815266  s :     0.815266
      pz      :     0.004207  p :     0.019655
      px      :     0.003157
      py      :     0.012291
 22 H s       :     0.815425  s :     0.815425
      pz      :     0.004247  p :     0.019661
      px      :     0.009700
      py      :     0.005713
 23 H s       :     0.832267  s :     0.832267
      pz      :     0.004413  p :     0.019667
      px      :     0.003060
      py      :     0.012194
 24 H s       :     0.686721  s :     0.686721
      pz      :     0.009054  p :     0.032898
      px      :     0.006981
      py      :     0.016863


                     *******************************
                     * LOEWDIN POPULATION ANALYSIS *
                     *******************************

----------------------
LOEWDIN ATOMIC CHARGES
----------------------
   0 C :   -0.384665
   1 C :    0.036323
   2 O :   -0.579896
   3 C :    0.392989
   4 O :   -0.415592
   5 C :    0.178279
   6 C :   -0.101420
   7 C :   -0.025870
   8 C :   -0.156499
   9 C :   -0.244543
  10 Br:    0.186959
  11 C :   -0.175376
  12 C :   -0.132035
  13 C :    0.161458
  14 N :   -0.599652
  15 H :    0.160786
  16 H :    0.160723
  17 H :    0.160786
  18 H :    0.180222
  19 H :    0.180222
  20 H :    0.185232
  21 H :    0.182143
  22 H :    0.178986
  23 H :    0.176805
  24 H :    0.293635

-------------------------------
LOEWDIN REDUCED ORBITAL CHARGES
-------------------------------
  0 C s       :     2.969648  s :     2.969648
      pz      :     1.158623  p :     3.353139
      px      :     1.128093
      py      :     1.066423
      dz2     :     0.012510  d :     0.061877
      dxz     :     0.004661
      dyz     :     0.018219
      dx2y2   :     0.018935
      dxy     :     0.007552
  1 C s       :     2.863546  s :     2.863546
      pz      :     1.105629  p :     2.976730
      px      :     0.806550
      py      :     1.064551
      dz2     :     0.018083  d :     0.123400
      dxz     :     0.023761
      dyz     :     0.020592
      dx2y2   :     0.037775
      dxy     :     0.023189
  2 O s       :     3.460955  s :     3.460955
      pz      :     1.721324  p :     4.647619
      px      :     1.385418
      py      :     1.540877
      dz2     :     0.052116  d :     0.471323
      dxz     :     0.095042
      dyz     :     0.048395
      dx2y2   :     0.131262
      dxy     :     0.144507
  3 C s       :     2.711986  s :     2.711986
      pz      :     0.735343  p :     2.614677
      px      :     0.937649
      py      :     0.941685
      dz2     :     0.017350  d :     0.280348
      dxz     :     0.017227
      dyz     :     0.051840
      dx2y2   :     0.106844
      dxy     :     0.087086
  4 O s       :     3.537989  s :     3.537989
      pz      :     1.443905  p :     4.656765
      px      :     1.688404
      py      :     1.524456
      dz2     :     0.027620  d :     0.220838
      dxz     :     0.018275
      dyz     :     0.037244
      dx2y2   :     0.065572
      dxy     :     0.072127
  5 C s       :     2.771577  s :     2.771577
      pz      :     0.961831  p :     2.922689
      px      :     0.972189
      py      :     0.988668
      dz2     :     0.009588  d :     0.127456
      dxz     :     0.008731
      dyz     :     0.024988
      dx2y2   :     0.038275
      dxy     :     0.045874
  6 C s       :     2.882324  s :     2.882324
      pz      :     1.030912  p :     3.140370
      px      :     1.033434
      py      :     1.076024
      dz2     :     0.005626  d :     0.078725
      dxz     :     0.011339
      dyz     :     0.005694
      dx2y2   :     0.025113
      dxy     :     0.030953
  7 C s       :     2.831271  s :     2.831271
      pz      :     1.001014  p :     3.093012
      px      :     1.057246
      py      :     1.034752
      dz2     :     0.006931  d :     0.101586
      dxz     :     0.015282
      dyz     :     0.009614
      dx2y2   :     0.041775
      dxy     :     0.027984
  8 C s       :     2.896928  s :     2.896928
      pz      :     0.996194  p :     3.176613
      px      :     1.073099
      py      :     1.107320
      dz2     :     0.005957  d :     0.082958
      dxz     :     0.013995
      dyz     :     0.003978
      dx2y2   :     0.029795
      dxy     :     0.029234
  9 C s       :     2.925467  s :     2.925467
      pz      :     1.058421  p :     3.219179
      px      :     1.042651
      py      :     1.118107
      dz2     :     0.006764  d :     0.099897
      dxz     :     0.011318
      dyz     :     0.012834
      dx2y2   :     0.035147
      dxy     :     0.033834
 10 Brs       :     7.667982  s :     7.667982
      pz      :     5.921465  p :    17.076278
      px      :     5.347492
      py      :     5.807321
      dz2     :     2.009585  d :    10.068781
      dxz     :     2.016467
      dyz     :     2.003413
      dx2y2   :     2.018183
      dxy     :     2.021132
 11 C s       :     2.904446  s :     2.904446
      pz      :     0.996710  p :     3.188484
      px      :     1.113370
      py      :     1.078404
      dz2     :     0.005861  d :     0.082446
      dxz     :     0.007062
      dyz     :     0.010803
      dx2y2   :     0.029842
      dxy     :     0.028879
 12 C s       :     2.890072  s :     2.890072
      pz      :     1.012028  p :     3.160889
      px      :     1.054036
      py      :     1.094825
      dz2     :     0.005585  d :     0.081074
      dxz     :     0.013516
      dyz     :     0.003641
      dx2y2   :     0.029508
      dxy     :     0.028824
 13 C s       :     2.763180  s :     2.763180
      pz      :     0.933107  p :     2.940173
      px      :     0.974828
      py      :     1.032238
      dz2     :     0.009604  d :     0.135189
      dxz     :     0.025316
      dyz     :     0.011962
      dx2y2   :     0.052121
      dxy     :     0.036186
 14 N s       :     3.076685  s :     3.076685
      pz      :     1.525392  p :     3.950995
      px      :     1.205290
      py      :     1.220313
      dz2     :     0.055909  d :     0.571972
      dxz     :     0.113640
      dyz     :     0.064843
      dx2y2   :     0.165478
      dxy     :     0.172102
 15 H s       :     0.796201  s :     0.796201
      pz      :     0.020862  p :     0.043014
      px      :     0.009882
      py      :     0.012270
 16 H s       :     0.795948  s :     0.795948
      pz      :     0.008202  p :     0.043329
      px      :     0.027398
      py      :     0.007728
 17 H s       :     0.796201  s :     0.796201
      pz      :     0.020862  p :     0.043014
      px      :     0.009882
      py      :     0.012270
 18 H s       :     0.778343  s :     0.778343
      pz      :     0.021155  p :     0.041435
      px      :     0.006750
      py      :     0.013530
 19 H s       :     0.778342  s :     0.778342
      pz      :     0.021155  p :     0.041436
      px      :     0.006750
      py      :     0.013530
 20 H s       :     0.767781  s :     0.767781
      pz      :     0.010370  p :     0.046987
      px      :     0.009173
      py      :     0.027444
 21 H s       :     0.772473  s :     0.772473
      pz      :     0.009266  p :     0.045385
      px      :     0.006565
      py      :     0.029554
 22 H s       :     0.775642  s :     0.775642
      pz      :     0.009370  p :     0.045372
      px      :     0.022793
      py      :     0.013210
 23 H s       :     0.778108  s :     0.778108
      pz      :     0.009615  p :     0.045087
      px      :     0.006775
      py      :     0.028698
 24 H s       :     0.619949  s :     0.619949
[...]
     52       0.008995  -0.113420  -0.195567  -0.326933   0.000016   0.000024
     53       0.010656  -0.191308  -0.341022  -0.534482   0.000022   0.000022
     54       0.204068   0.196434  -0.017241  -0.066448   0.000126  -0.000040
     55       0.339400   0.339767  -0.030479  -0.121535   0.000107  -0.000017
     56       0.578082   0.534232  -0.048053  -0.189910   0.000191  -0.000021
     57       0.203438  -0.195911  -0.017225   0.066254   0.000126  -0.000039
     58       0.339566  -0.340020  -0.030557   0.121610   0.000107  -0.000016
     59      -0.578082   0.534391   0.048154  -0.189938  -0.000192   0.000020
     60       0.000331  -0.000001  -0.000118  -0.000000   0.000753  -0.001281
     61      -0.000267   0.000002  -0.000401   0.000000  -0.000738  -0.001794
     62       0.000000  -0.000124   0.000000   0.000095   0.000001   0.000001
     63       0.000029   0.000000  -0.000052  -0.000000   0.001582   0.086872
     64       0.000041   0.000001  -0.000061  -0.000000   0.019845   0.989998
     65      -0.000000  -0.000028   0.000000  -0.000028  -0.000004  -0.000212
     66      -0.000034  -0.000000   0.000024  -0.000000   0.237101  -0.057850
     67       0.000008   0.000000  -0.000009   0.000000  -0.156374   0.036738
     68       0.000000  -0.000005  -0.000000   0.000071   0.000098  -0.000023
     69      -0.000035   0.000000   0.000027  -0.000000   0.053308   0.000336
     70      -0.000322   0.000000   0.000292  -0.000000   0.953226  -0.000605
     71       0.000000   0.000003  -0.000000   0.000082  -0.000212   0.000001
     72      -0.000126   0.000000  -0.000032  -0.000000   0.002862  -0.000759
     73       0.000168   0.000000  -0.000107  -0.000000   0.000226  -0.000722
     74      -0.000000  -0.000050   0.000000   0.000101   0.000001   0.000000
                 72         73         74    
      0      -0.000010  -0.000015  -0.000003
      1       0.000005  -0.000045  -0.000012
      2       0.000000   0.000000   0.000000
      3      -0.000010   0.000060   0.000002
      4      -0.000002  -0.000058  -0.000017
      5       0.000000  -0.000000  -0.000000
      6      -0.000001  -0.000067  -0.000027
      7       0.000008  -0.000181   0.000147
      8      -0.000000   0.000000   0.000000
      9      -0.000013  -0.000111  -0.000467
     10      -0.000001   0.000614  -0.000107
     11       0.000000   0.000000  -0.000000
     12      -0.000001   0.000170   0.000191
     13       0.000008   0.000022   0.000223
     14      -0.000000  -0.000000  -0.000000
     15       0.000072  -0.003380   0.001305
     16       0.000220  -0.003379  -0.000493
     17      -0.000000  -0.000000   0.000001
     18      -0.000195  -0.025010  -0.000798
     19      -0.000034   0.086078  -0.001319
     20      -0.000000  -0.000026   0.000000
     21      -0.000094   0.003373   0.000196
     22       0.000207  -0.001064  -0.001188
     23      -0.000000   0.000001   0.000000
     24      -0.000187   0.000056  -0.000297
     25       0.005898   0.000191   0.000191
     26      -0.000001  -0.000000  -0.000000
     27       0.001478  -0.000202   0.000162
     28       0.002945   0.000185  -0.000369
     29      -0.000000  -0.000000   0.000000
     30      -0.000061  -0.000003  -0.000012
     31      -0.000018  -0.000008  -0.000008
     32      -0.000000   0.000000   0.000000
     33       0.070999  -0.000116   0.000289
     34      -0.044929  -0.000187   0.000340
     35       0.000029   0.000000  -0.000000
     36      -0.004130   0.000172  -0.000430
     37      -0.026309   0.000191  -0.000074
     38       0.000005   0.000000  -0.000000
     39      -0.001872  -0.000176  -0.001613
     40       0.000828  -0.000849  -0.000423
     41      -0.000001   0.000000  -0.000000
     42       0.000291   0.000614   0.029331
     43      -0.000174  -0.000958   0.068485
     44       0.000000   0.000000  -0.000008
     45      -0.000003   0.000109  -0.000024
     46       0.000018   0.000152   0.000047
     47      -0.000023  -0.000407  -0.000064
     48       0.000034   0.000033   0.000028
     49       0.000001   0.000054   0.000005
     50      -0.000000  -0.000000  -0.000000
     51      -0.000003   0.000109  -0.000024
     52       0.000018   0.000151   0.000047
     53       0.000023   0.000406   0.000064
     54       0.000005  -0.000256   0.000082
     55       0.000037  -0.000096  -0.000061
     56       0.000042  -0.000211   0.000125
     57       0.000005  -0.000257   0.000082
     58       0.000037  -0.000097  -0.000061
     59      -0.000042   0.000213  -0.000125
     60       0.000480   0.295029  -0.000752
     61      -0.000626  -0.951245   0.001584
     62       0.000000   0.000297  -0.000001
     63      -0.005323  -0.001421   0.000150
     64      -0.065228  -0.001228  -0.000770
     65       0.000014  -0.000001  -0.000000
     66      -0.800789   0.000444  -0.000042
     67       0.517170  -0.000333   0.000134
     68      -0.000327   0.000000   0.000000
     69       0.018732  -0.000370   0.000799
     70       0.280747  -0.000863   0.001365
     71      -0.000062  -0.000000  -0.000001
     72       0.000826  -0.001319  -0.389793
     73       0.000351  -0.003264  -0.917875
     74      -0.000000   0.000000   0.000098


-----------
IR SPECTRUM
-----------

 Mode   freq       eps      Int      T**2         TX        TY        TZ
       cm**-1   L/(mol*cm) km/mol    a.u.
----------------------------------------------------------------------------
  6:     41.20   0.000163    0.82  0.001234  ( 0.000029  0.000015  0.035129)
  7:     49.69   0.000001    0.00  0.000003  ( 0.000039  0.000015 -0.001839)
  8:     64.66   0.000157    0.79  0.000756  (-0.026831 -0.005975  0.000054)
  9:     89.75   0.000379    1.91  0.001317  ( 0.000073 -0.000030  0.036292)
 10:    112.56   0.000014    0.07  0.000040  (-0.000047 -0.000025  0.006336)
 11:    163.47   0.000159    0.80  0.000303  (-0.000010 -0.000006  0.017399)
 12:    170.48   0.000151    0.76  0.000277  (-0.005538  0.015696  0.000012)
 13:    217.27   0.000122    0.62  0.000175  ( 0.006962 -0.011240  0.000017)
 14:    253.65   0.000112    0.57  0.000138  ( 0.000034 -0.000038 -0.011764)
 15:    260.91   0.002534   12.80  0.003031  (-0.050902  0.020966 -0.000014)
 16:    272.06   0.000426    2.15  0.000489  (-0.000009 -0.000003  0.022109)
 17:    330.60   0.000057    0.29  0.000054  ( 0.000035  0.000009 -0.007367)
 18:    346.45   0.000688    3.48  0.000619  ( 0.012807 -0.021339 -0.000030)
 19:    393.88   0.002955   14.93  0.002341  (-0.044616  0.018724 -0.000021)
 20:    412.95   0.000325    1.64  0.000245  ( 0.015072  0.004265  0.000006)
 21:    420.16   0.000518    2.62  0.000385  ( 0.000012  0.000020 -0.019620)
 22:    473.20   0.010814   54.65  0.007132  ( 0.000028 -0.000029 -0.084449)
 23:    561.79   0.001312    6.63  0.000729  ( 0.013935  0.023123 -0.000030)
 24:    577.54   0.002447   12.36  0.001322  (-0.000008  0.000015  0.036358)
 25:    609.20   0.000495    2.50  0.000254  ( 0.011562 -0.010957 -0.000062)
 26:    617.12   0.000829    4.19  0.000419  ( 0.000016  0.000059 -0.020474)
 27:    678.67   0.004244   21.45  0.001951  ( 0.042636  0.011555  0.000007)
 28:    723.51   0.000296    1.50  0.000128  (-0.000006 -0.000002  0.011296)
 29:    766.97   0.008624   43.58  0.003509  ( 0.000006  0.000014  0.059236)
 30:    794.78   0.000031    0.16  0.000012  ( 0.001902 -0.002911 -0.000483)
 31:    795.00   0.005685   28.73  0.002232  ( 0.000002 -0.000032  0.047239)
 32:    813.40   0.000305    1.54  0.000117  ( 0.000010  0.000003 -0.010811)
 33:    821.75   0.001631    8.24  0.000619  ( 0.000007  0.000006 -0.024889)
 34:    852.32   0.000446    2.25  0.000163  ( 0.002837  0.012455  0.000002)
 35:    864.97   0.004013   20.28  0.001448  ( 0.000017  0.000011 -0.038049)
 36:    884.02   0.001107    5.60  0.000391  (-0.019655  0.002135  0.000018)
 37:    921.07   0.008820   44.57  0.002988  (-0.053032 -0.013266 -0.000008)
 38:    930.78   0.000065    0.33  0.000022  (-0.000023 -0.000014  0.004673)
 39:    996.35   0.000978    4.94  0.000306  (-0.011732  0.012990  0.000009)
 40:   1041.00   0.021202  107.15  0.006356  ( 0.077999 -0.016493 -0.000026)
 41:   1065.14   0.007852   39.68  0.002300  (-0.045474 -0.015251 -0.000000)
 42:   1124.82   0.003589   18.14  0.000996  (-0.017249  0.026421  0.000023)
 43:   1138.99   0.002379   12.02  0.000652  ( 0.004634  0.025106  0.000007)
 44:   1160.16   0.001826    9.23  0.000491  ( 0.005042 -0.021584  0.000001)
 45:   1172.31   0.000760    3.84  0.000202  ( 0.000003  0.000004 -0.014225)
 46:   1205.34   0.043966  222.19  0.011383  (-0.101950  0.031451  0.000005)
 47:   1252.18   0.049692  251.12  0.012384  (-0.101684  0.045215 -0.000006)
 48:   1254.46   0.066826  337.71  0.016624  (-0.120471  0.045940  0.000004)
 49:   1292.26   0.000145    0.74  0.000035  ( 0.000011 -0.000007  0.005926)
 50:   1298.13   0.009605   48.54  0.002309  ( 0.044974 -0.016924 -0.000010)
 51:   1349.80   0.034702  175.37  0.008023  (-0.086496  0.023262 -0.000008)
 52:   1380.86   0.000065    0.33  0.000015  (-0.000464 -0.003815 -0.000007)
 53:   1403.20   0.015473   78.20  0.003441  ( 0.051321 -0.028413 -0.000007)
 54:   1421.22   0.003358   16.97  0.000737  (-0.026212 -0.007085 -0.000013)
 55:   1443.44   0.012494   63.14  0.002701  ( 0.044114  0.027477 -0.000004)
 56:   1467.16   0.002323   11.74  0.000494  (-0.011241 -0.019178  0.000001)
 57:   1478.66   0.001805    9.12  0.000381  (-0.000000  0.000002 -0.019516)
 58:   1490.33   0.000830    4.19  0.000174  (-0.013145  0.001016  0.000005)
 59:   1496.80   0.000087    0.44  0.000018  (-0.001385 -0.004016 -0.000006)
 60:   1507.74   0.001330    6.72  0.000275  ( 0.004946  0.015835 -0.000002)
 61:   1561.87   0.029101  147.06  0.005814  (-0.074841  0.014602 -0.000012)
 62:   1601.44   0.000787    3.98  0.000153  ( 0.005767 -0.010958 -0.000001)
 63:   1648.47   0.000774    3.91  0.000147  ( 0.008705  0.008411 -0.000000)
 64:   1741.08   0.076619  387.20  0.013733  (-0.080644 -0.085025 -0.000011)
 65:   3027.32   0.002744   13.87  0.000283  (-0.010990  0.012732  0.000003)
 66:   3032.58   0.003435   17.36  0.000353  (-0.015287 -0.010944 -0.000001)
 67:   3083.02   0.001008    5.09  0.000102  (-0.000009  0.000001 -0.010102)
 68:   3116.42   0.002835   14.32  0.000284  ( 0.015802  0.005842 -0.000009)
 69:   3123.59   0.003768   19.04  0.000376  ( 0.000013 -0.000002  0.019401)
 70:   3180.97   0.000510    2.58  0.000050  ( 0.001405 -0.006929  0.000001)
 71:   3197.57   0.000031    0.16  0.000003  (-0.001532 -0.000847  0.000000)
 72:   3205.47   0.000179    0.90  0.000017  (-0.002245 -0.003514  0.000000)
 73:   3260.88   0.000115    0.58  0.000011  (-0.001214 -0.003093  0.000001)
 74:   3653.01   0.023565  119.09  0.002013  (-0.027349 -0.035568  0.000001)

* The epsilon (eps) is given for a Dirac delta lineshape.
** The dipole moment derivative (T) already includes vibrational overlap.

The first frequency considered to be a vibration is 6
The total number of vibrations considered is 69


--------------------------
THERMOCHEMISTRY AT 298.15K
--------------------------

Temperature         ... 298.15 K
Pressure            ... 1.00 atm
Total Mass          ... 268.11 AMU

Throughout the following assumptions are being made:
  (1) The electronic state is orbitally nondegenerate
  (2) There are no thermally accessible electronically excited states
  (3) Hindered rotations indicated by low frequency modes are not
      treated as such but are treated as vibrations and this may
      cause some error
  (4) All equations used are the standard statistical mechanics
      equations for an ideal gas
  (5) All vibrations are strictly harmonic

freq.      41.20  E(vib)   ...       0.54 
freq.      49.69  E(vib)   ...       0.52 
freq.      64.66  E(vib)   ...       0.50 
freq.      89.75  E(vib)   ...       0.47 
freq.     112.56  E(vib)   ...       0.45 
freq.     163.47  E(vib)   ...       0.39 
freq.     170.48  E(vib)   ...       0.38 
freq.     217.27  E(vib)   ...       0.34 
freq.     253.65  E(vib)   ...       0.30 
freq.     260.91  E(vib)   ...       0.30 
freq.     272.06  E(vib)   ...       0.29 
freq.     330.60  E(vib)   ...       0.24 
freq.     346.45  E(vib)   ...       0.23 
freq.     393.88  E(vib)   ...       0.20 
freq.     412.95  E(vib)   ...       0.19 
freq.     420.16  E(vib)   ...       0.18 
freq.     473.20  E(vib)   ...       0.15 
freq.     561.79  E(vib)   ...       0.11 
freq.     577.54  E(vib)   ...       0.11 
freq.     609.20  E(vib)   ...       0.10 
freq.     617.12  E(vib)   ...       0.09 
freq.     678.67  E(vib)   ...       0.08 
freq.     723.51  E(vib)   ...       0.06 
freq.     766.97  E(vib)   ...       0.06 
freq.     794.78  E(vib)   ...       0.05 
freq.     795.00  E(vib)   ...       0.05 
freq.     813.40  E(vib)   ...       0.05 
freq.     821.75  E(vib)   ...       0.05 
freq.     852.32  E(vib)   ...       0.04 
freq.     864.97  E(vib)   ...       0.04 
freq.     884.02  E(vib)   ...       0.04 
freq.     921.07  E(vib)   ...       0.03 
freq.     930.78  E(vib)   ...       0.03 
freq.     996.35  E(vib)   ...       0.02 
freq.    1041.00  E(vib)   ...       0.02 
freq.    1065.14  E(vib)   ...       0.02 
freq.    1124.82  E(vib)   ...       0.01 
freq.    1138.99  E(vib)   ...       0.01 
freq.    1160.16  E(vib)   ...       0.01 
freq.    1172.31  E(vib)   ...       0.01 
freq.    1205.34  E(vib)   ...       0.01 
freq.    1252.18  E(vib)   ...       0.01 
freq.    1254.46  E(vib)   ...       0.01 
freq.    1292.26  E(vib)   ...       0.01 
freq.    1298.13  E(vib)   ...       0.01 
freq.    1349.80  E(vib)   ...       0.01 
freq.    1380.86  E(vib)   ...       0.01 
freq.    1403.20  E(vib)   ...       0.00 
freq.    1421.22  E(vib)   ...       0.00 
freq.    1443.44  E(vib)   ...       0.00 
freq.    1467.16  E(vib)   ...       0.00 
freq.    1478.66  E(vib)   ...       0.00 
freq.    1490.33  E(vib)   ...       0.00 
freq.    1496.80  E(vib)   ...       0.00 
freq.    1507.74  E(vib)   ...       0.00 
freq.    1561.87  E(vib)   ...       0.00 
freq.    1601.44  E(vib)   ...       0.00 
freq.    1648.47  E(vib)   ...       0.00 
freq.    1741.08  E(vib)   ...       0.00 
freq.    3027.32  E(vib)   ...       0.00 
freq.    3032.58  E(vib)   ...       0.00 
freq.    3083.02  E(vib)   ...       0.00 
freq.    3116.42  E(vib)   ...       0.00 
freq.    3123.59  E(vib)   ...       0.00 
freq.    3180.97  E(vib)   ...       0.00 
freq.    3197.57  E(vib)   ...       0.00 
freq.    3205.47  E(vib)   ...       0.00 
freq.    3260.88  E(vib)   ...       0.00 
freq.    3653.01  E(vib)   ...       0.00 

------------
INNER ENERGY
------------

The inner energy is: U= E(el) + E(ZPE) + E(vib) + E(rot) + E(trans)
    E(el)   - is the total energy from the electronic structure calculation
              = E(kin-el) + E(nuc-el) + E(el-el) + E(nuc-nuc)
    E(ZPE)  - the the zero temperature vibrational energy from the frequency calculation
    E(vib)  - the the finite temperature correction to E(ZPE) due to population
              of excited vibrational states
    E(rot)  - is the rotational thermal energy
    E(trans)- is the translational thermal energy

Summary of contributions to the inner energy U:
Electronic energy                ...  -3204.43799981 Eh
Zero point energy                ...      0.18945220 Eh     118.88 kcal/mol
Thermal vibrational correction   ...      0.01091028 Eh       6.85 kcal/mol
Thermal rotational correction    ...      0.00141627 Eh       0.89 kcal/mol
Thermal translational correction ...      0.00141627 Eh       0.89 kcal/mol
-----------------------------------------------------------------------
Total thermal energy                  -3204.23480479 Eh


Summary of corrections to the electronic energy:
(perhaps to be used in another calculation)
Total thermal correction                  0.01374282 Eh       8.62 kcal/mol
Non-thermal (ZPE) correction              0.18945220 Eh     118.88 kcal/mol
-----------------------------------------------------------------------
Total correction                          0.20319502 Eh     127.51 kcal/mol


--------
ENTHALPY
--------

The enthalpy is H = U + kB*T
                kB is Boltzmann's constant
Total free energy                 ...  -3204.23480479 Eh 
Thermal Enthalpy correction       ...      0.00094421 Eh       0.59 kcal/mol
-----------------------------------------------------------------------
Total Enthalpy                    ...  -3204.23386059 Eh


Note: Only C1 symmetry has been detected, increase convergence thresholds 
      if your molecule has a higher symmetry. Symmetry factor of 1.0 is   
      used for the rotational entropy correction. 
 

Note: Rotational entropy computed according to Herzberg 
Infrared and Raman Spectra, Chapter V,1, Van Nostrand Reinhold, 1945 
Point Group:  C1, Symmetry Number:   1  
Rotational constants in cm-1:     0.049060     0.004941     0.004496 

Vibrational entropy computed according to the QRRHO of S. Grimme
Chem.Eur.J. 2012 18 9955


-------
ENTROPY
-------

The entropy contributions are T*S = T*(S(el)+S(vib)+S(rot)+S(trans))
     S(el)   - electronic entropy
     S(vib)  - vibrational entropy
     S(rot)  - rotational entropy
     S(trans)- translational entropy
The entropies will be listed as multiplied by the temperature to get
units of energy

Electronic entropy                ...      0.00000000 Eh      0.00 kcal/mol
Vibrational entropy               ...      0.01900506 Eh     11.93 kcal/mol
Rotational entropy                ...      0.01599233 Eh     10.04 kcal/mol
Translational entropy             ...      0.02026799 Eh     12.72 kcal/mol
-----------------------------------------------------------------------
Final entropy term                ...      0.05526538 Eh     34.68 kcal/mol

In case the symmetry of your molecule has not been determined correctly
or in case you have a reason to use a different symmetry number we print 
out the resulting rotational entropy values for sn=1,12 :
 --------------------------------------------------------
|  sn= 1 | S(rot)=       0.01599233 Eh     10.04 kcal/mol|
|  sn= 2 | S(rot)=       0.01533787 Eh      9.62 kcal/mol|
|  sn= 3 | S(rot)=       0.01495504 Eh      9.38 kcal/mol|
|  sn= 4 | S(rot)=       0.01468342 Eh      9.21 kcal/mol|
|  sn= 5 | S(rot)=       0.01447273 Eh      9.08 kcal/mol|
|  sn= 6 | S(rot)=       0.01430059 Eh      8.97 kcal/mol|
|  sn= 7 | S(rot)=       0.01415504 Eh      8.88 kcal/mol|
|  sn= 8 | S(rot)=       0.01402896 Eh      8.80 kcal/mol|
|  sn= 9 | S(rot)=       0.01391775 Eh      8.73 kcal/mol|
|  sn=10 | S(rot)=       0.01381827 Eh      8.67 kcal/mol|
|  sn=11 | S(rot)=       0.01372828 Eh      8.61 kcal/mol|
|  sn=12 | S(rot)=       0.01364613 Eh      8.56 kcal/mol|
 --------------------------------------------------------


-------------------
GIBBS FREE ENERGY
-------------------

The Gibbs free energy is G = H - T*S

Total enthalpy                    ...  -3204.23386059 Eh 
Total entropy correction          ...     -0.05526538 Eh    -34.68 kcal/mol
-----------------------------------------------------------------------
Final Gibbs free energy         ...  -3204.28912597 Eh

For completeness - the Gibbs free energy minus the electronic energy
G-E(el)                           ...      0.14887385 Eh     93.42 kcal/mol


Timings for individual modules:

Sum of individual times         ...      140.723 sec (=   2.345 min)
GTO integral calculation        ...        2.632 sec (=   0.044 min)   1.9 %
SCF iterations                  ...       24.895 sec (=   0.415 min)  17.7 %
SCF Gradient evaluation         ...        6.357 sec (=   0.106 min)   4.5 %
Geometry relaxation             ...        0.151 sec (=   0.003 min)   0.1 %
Analytical frequency calculation...      106.688 sec (=   1.778 min)  75.8 %
                             ****ORCA TERMINATED NORMALLY****
TOTAL RUN TIME: 0 days 0 hours 2 minutes 22 seconds 288 msec
