Job Start Time: Thu Apr 18 14:05:28 MDT 2024
SLURM Job ID: 254450
SLURM Job Name: arbr_08_r2scan3c
SLURM Job Nodes: node19
SLURM Memory / CPU: 8000

                                 *****************
                                 * O   R   C   A *
                                 *****************

                                            #,                                       
                                            ###                                      
                                            ####                                     
                                            #####                                    
                                            ######                                   
                                           ########,                                 
                                     ,,################,,,,,                         
                               ,,#################################,,                 
                          ,,##########################################,,             
                       ,#########################################, ''#####,          
                    ,#############################################,,   '####,        
                  ,##################################################,,,,####,       
                ,###########''''           ''''###############################       
              ,#####''   ,,,,##########,,,,          '''####'''          '####       
            ,##' ,,,,###########################,,,                        '##       
           ' ,,###''''                  '''############,,,                           
         ,,##''                                '''############,,,,        ,,,,,,###''
      ,#''                                            '''#######################'''  
     '                                                          ''''####''''         
             ,#######,   #######,   ,#######,      ##                                
            ,#'     '#,  ##    ##  ,#'     '#,    #''#        ######   ,####,        
            ##       ##  ##   ,#'  ##            #'  '#       #        #'  '#        
            ##       ##  #######   ##           ,######,      #####,   #    #        
            '#,     ,#'  ##    ##  '#,     ,#' ,#      #,         ##   #,  ,#        
             '#######'   ##     ##  '#######'  #'      '#     #####' # '####'        



                  #######################################################
                  #                        -***-                        #
                  #          Department of theory and spectroscopy      #
                  #    Directorship and core code : Frank Neese         #
                  #        Max Planck Institute fuer Kohlenforschung    #
                  #                Kaiser Wilhelm Platz 1               #
                  #                 D-45470 Muelheim/Ruhr               #
                  #                      Germany                        #
                  #                                                     #
                  #                  All rights reserved                #
                  #                        -***-                        #
                  #######################################################


                         Program Version 5.0.3 -  RELEASE  -


 With contributions from (in alphabetic order):
   Daniel Aravena         : Magnetic Suceptibility
   Michael Atanasov       : Ab Initio Ligand Field Theory (pilot matlab implementation)
   Alexander A. Auer      : GIAO ZORA, VPT2 properties, NMR spectrum
   Ute Becker             : Parallelization
   Giovanni Bistoni       : ED, misc. LED, open-shell LED, HFLD
   Martin Brehm           : Molecular dynamics
   Dmytro Bykov           : SCF Hessian
   Vijay G. Chilkuri      : MRCI spin determinant printing, contributions to CSF-ICE
   Dipayan Datta          : RHF DLPNO-CCSD density
   Achintya Kumar Dutta   : EOM-CC, STEOM-CC
   Dmitry Ganyushin       : Spin-Orbit,Spin-Spin,Magnetic field MRCI
   Miquel Garcia          : C-PCM and meta-GGA Hessian, CC/C-PCM, Gaussian charge scheme
   Yang Guo               : DLPNO-NEVPT2, F12-NEVPT2, CIM, IAO-localization
   Andreas Hansen         : Spin unrestricted coupled pair/coupled cluster methods
   Benjamin Helmich-Paris : MC-RPA, TRAH-SCF, COSX integrals
   Lee Huntington         : MR-EOM, pCC
   Robert Izsak           : Overlap fitted RIJCOSX, COSX-SCS-MP3, EOM
   Marcus Kettner         : VPT2
   Christian Kollmar      : KDIIS, OOCD, Brueckner-CCSD(T), CCSD density, CASPT2, CASPT2-K
   Simone Kossmann        : Meta GGA functionals, TD-DFT gradient, OOMP2, MP2 Hessian
   Martin Krupicka        : Initial AUTO-CI
   Lucas Lang             : DCDCAS
   Marvin Lechner         : AUTO-CI (C++ implementation), FIC-MRCC
   Dagmar Lenk            : GEPOL surface, SMD
   Dimitrios Liakos       : Extrapolation schemes; Compound Job, initial MDCI parallelization
   Dimitrios Manganas     : Further ROCIS development; embedding schemes
   Dimitrios Pantazis     : SARC Basis sets
   Anastasios Papadopoulos: AUTO-CI, single reference methods and gradients
   Taras Petrenko         : DFT Hessian,TD-DFT gradient, ASA, ECA, R-Raman, ABS, FL, XAS/XES, NRVS
   Peter Pinski           : DLPNO-MP2, DLPNO-MP2 Gradient
   Christoph Reimann      : Effective Core Potentials
   Marius Retegan         : Local ZFS, SOC
   Christoph Riplinger    : Optimizer, TS searches, QM/MM, DLPNO-CCSD(T), (RO)-DLPNO pert. Triples
   Tobias Risthaus        : Range-separated hybrids, TD-DFT gradient, RPA, STAB
   Michael Roemelt        : Original ROCIS implementation
   Masaaki Saitow         : Open-shell DLPNO-CCSD energy and density
   Barbara Sandhoefer     : DKH picture change effects
   Avijit Sen             : IP-ROCIS
   Kantharuban Sivalingam : CASSCF convergence, NEVPT2, FIC-MRCI
   Bernardo de Souza      : ESD, SOC TD-DFT
   Georgi Stoychev        : AutoAux, RI-MP2 NMR, DLPNO-MP2 response
   Willem Van den Heuvel  : Paramagnetic NMR
   Boris Wezisla          : Elementary symmetry handling
   Frank Wennmohs         : Technical directorship


 We gratefully acknowledge several colleagues who have allowed us to
 interface, adapt or use parts of their codes:
   Stefan Grimme, W. Hujo, H. Kruse, P. Pracht,  : VdW corrections, initial TS optimization,
                  C. Bannwarth, S. Ehlert          DFT functionals, gCP, sTDA/sTD-DF
   Ed Valeev, F. Pavosevic, A. Kumar             : LibInt (2-el integral package), F12 methods
   Garnet Chan, S. Sharma, J. Yang, R. Olivares  : DMRG
   Ulf Ekstrom                                   : XCFun DFT Library
   Mihaly Kallay                                 : mrcc  (arbitrary order and MRCC methods)
   Jiri Pittner, Ondrej Demel                    : Mk-CCSD
   Frank Weinhold                                : gennbo (NPA and NBO analysis)
   Christopher J. Cramer and Donald G. Truhlar   : smd solvation model
   Lars Goerigk                                  : TD-DFT with DH, B97 family of functionals
   V. Asgeirsson, H. Jonsson                     : NEB implementation
   FAccTs GmbH                                   : IRC, NEB, NEB-TS, DLPNO-Multilevel, CI-OPT
                                                   MM, QMMM, 2- and 3-layer-ONIOM, Crystal-QMMM,
                                                   LR-CPCM, SF, NACMEs, symmetry and pop. for TD-DFT,
                                                   nearIR, NL-DFT gradient (VV10), updates on ESD,
                                                   ML-optimized integration grids
   S Lehtola, MJT Oliveira, MAL Marques          : LibXC Library
   Liviu Ungur et al                             : ANISO software


 Your calculation uses the libint2 library for the computation of 2-el integrals
 For citations please refer to: http://libint.valeyev.net

 Your ORCA version has been built with support for libXC version: 5.1.0
 For citations please refer to: https://tddft.org/programs/libxc/

 This ORCA versions uses:
   CBLAS   interface :  Fast vector & matrix operations
   LAPACKE interface :  Fast linear algebra routines
   SCALAPACK package :  Parallel linear algebra routines
   Shared memory     :  Shared parallel matrices
   BLAS/LAPACK       :  OpenBLAS 0.3.15  USE64BITINT DYNAMIC_ARCH NO_AFFINITY Zen SINGLE_THREADED
        Core in use  :  Zen
   Copyright (c) 2011-2014, The OpenBLAS Project


Your calculation utilizes the geometrical counterpoise correction gCP
Please cite in your paper:
H.Kruse, S. Grimme J.Chem.Phys., 136, (2012), 154101 
   

Your calculation utilizes the atom-pairwise dispersion correction
based on tight binding partial charges (D4)
Cite in your paper:
E.Caldeweyher, C.Bannwarth, S.Grimme, J.Chem.Phys., (2017), 147, 034112.
E.Caldeweyher, S.Ehlert, A.Hansen, H.Neugebauer, S.Grimme, J.Chem.Phys., (2018), in progress.
   

================================================================================

----- Orbital basis set information -----
Your calculation utilizes the basis: def2-mTZVPP
   Stefan Grimme, Andreas Hansen, Sebastian Ehlert, and Jan-Michael Mewes 
   J. Chem. Phys. 154, 000000 (2021). DOI: 10.1063/5.0040021

----- AuxJ basis set information -----
Your calculation utilizes the basis: def2-mTZVPP/J
   Stefan Grimme, Andreas Hansen, Sebastian Ehlert, and Jan-Michael Mewes 
   J. Chem. Phys. 154, 000000 (2021). DOI: 10.1063/5.0040021

================================================================================
                                        WARNINGS
                       Please study these warnings very carefully!
================================================================================

Using LibXC functional ID 497 : Re-regularized SCAN exchange by Furness et al
[ 1]  J. W. Furness, A. D. Kaplan, J. Ning, J. P. Perdew, and J. Sun, J. Phys. Chem. Lett. 11, 8208 (2020)
[ 2]  J. W. Furness, A. D. Kaplan, J. Ning, J. P. Perdew, and J. Sun, J. Phys. Chem. Lett. 11, 9248 (2020)
Using LibXC functional ID 498 : Re-regularized SCAN correlation by Furness et al
[ 1]  J. W. Furness, A. D. Kaplan, J. Ning, J. P. Perdew, and J. Sun, J. Phys. Chem. Lett. 11, 8208 (2020)
[ 2]  J. W. Furness, A. D. Kaplan, J. Ning, J. P. Perdew, and J. Sun, J. Phys. Chem. Lett. 11, 9248 (2020)
Using LibXC functional ID 497 : Re-regularized SCAN exchange by Furness et al
[ 1]  J. W. Furness, A. D. Kaplan, J. Ning, J. P. Perdew, and J. Sun, J. Phys. Chem. Lett. 11, 8208 (2020)
[ 2]  J. W. Furness, A. D. Kaplan, J. Ning, J. P. Perdew, and J. Sun, J. Phys. Chem. Lett. 11, 9248 (2020)
Using LibXC functional ID 498 : Re-regularized SCAN correlation by Furness et al
[ 1]  J. W. Furness, A. D. Kaplan, J. Ning, J. P. Perdew, and J. Sun, J. Phys. Chem. Lett. 11, 8208 (2020)
[ 2]  J. W. Furness, A. D. Kaplan, J. Ning, J. P. Perdew, and J. Sun, J. Phys. Chem. Lett. 11, 9248 (2020)

WARNING: Geometry Optimization
  ===> : Switching off AutoStart
         For restart on a previous wavefunction, please use MOREAD

INFO   : the flag for use of the SHARK integral package has been found!

================================================================================
                                       INPUT FILE
================================================================================
NAME = /tmp/254450/arbr_08_r2scan3c.inp
|  1> %maxcore 4000
|  2> %PAL NPROCS 16 END
|  3> ! r2scan-3c opt freq
|  4> 
|  5> # arbr_08_rdkit_conf_1_r2scan3ccreated by GaussianPrep
|  6> 
|  7> * xyz 0 1
|  8> N  4.756832  0.000304  0.00012
|  9> C  3.609423  -0.000179  -0.000069
| 10> C  2.173826  -0.000123  -0.00004
| 11> C  1.479564  1.208061  -0.00003
| 12> C  0.095575  1.20978  -0.000016
| 13> C  -0.583671  -0.000022  -0.000009
| 14> Br  -2.472644  0.000051  0.000015
| 15> C  0.095486  -1.209869  -0.000016
| 16> C  1.479479  -1.208253  -0.00003
| 17> H  2.026338  2.141081  -0.000036
| 18> H  -0.452879  2.14105  -0.000011
| 19> H  -0.453028  -2.141103  -0.000011
| 20> H  2.026179  -2.141316  -0.000036
| 21> 
| 22> *
| 23> 
| 24>                          ****END OF INPUT****
================================================================================

                       *****************************
                       * Geometry Optimization Run *
                       *****************************

Geometry optimization settings:
Update method            Update   .... BFGS
Choice of coordinates    CoordSys .... Z-matrix Internals
Initial Hessian          InHess   .... Almoef's Model

Convergence Tolerances:
Energy Change            TolE     ....  5.0000e-06 Eh
Max. Gradient            TolMAXG  ....  3.0000e-04 Eh/bohr
RMS Gradient             TolRMSG  ....  1.0000e-04 Eh/bohr
Max. Displacement        TolMAXD  ....  4.0000e-03 bohr
RMS Displacement         TolRMSD  ....  2.0000e-03 bohr
Strict Convergence                ....  False
------------------------------------------------------------------------------
                        ORCA OPTIMIZATION COORDINATE SETUP
------------------------------------------------------------------------------

The optimization will be done in new redundant internal coordinates
Making redundant internal coordinates   ...  (new redundants) done
Evaluating the initial hessian          ...  (Almloef) done
Evaluating the coordinates              ...  done
Calculating the B-matrix                .... done
Calculating the G-matrix                .... done
Diagonalizing the G-matrix              .... done
The first mode is                       ....   24
The number of degrees of freedom        ....   33

    -----------------------------------------------------------------
                    Redundant Internal Coordinates


    -----------------------------------------------------------------
         Definition                    Initial Value    Approx d2E/dq
    -----------------------------------------------------------------
      1. B(C   1,N   0)                  1.1474         1.364312   
      2. B(C   2,C   1)                  1.4356         0.528435   
      3. B(C   3,C   2)                  1.3935         0.616923   
      4. B(C   4,C   3)                  1.3840         0.638744   
      5. B(C   5,C   4)                  1.3874         0.630695   
      6. B(Br  6,C   5)                  1.8890         0.335856   
      7. B(C   7,C   5)                  1.3874         0.630705   
      8. B(C   8,C   7)                  1.3840         0.638735   
      9. B(C   8,C   2)                  1.3934         0.616933   
     10. B(H   9,C   3)                  1.0814         0.371619   
     11. B(H  10,C   4)                  1.0808         0.372518   
     12. B(H  11,C   7)                  1.0808         0.372519   
     13. B(H  12,C   8)                  1.0814         0.371620   
     14. L(N   0,C   1,C   2,C   3, 1) 179.9736         0.483577   
     15. L(N   0,C   1,C   2,C   3, 2) 180.0215         0.483577   
     16. A(C   1,C   2,C   8)          119.8850         0.421435   
     17. A(C   3,C   2,C   8)          120.2297         0.433291   
     18. A(C   1,C   2,C   3)          119.8853         0.421434   
     19. A(C   4,C   3,H   9)          120.3002         0.356594   
     20. A(C   2,C   3,H   9)          119.7455         0.354497   
     21. A(C   2,C   3,C   4)          119.9542         0.436009   
     22. A(C   3,C   4,C   5)          119.2410         0.437747   
     23. A(C   5,C   4,H  10)          120.1927         0.355973   
     24. A(C   3,C   4,H  10)          120.5663         0.356741   
     25. A(C   4,C   5,C   7)          121.3799         0.436749   
     26. A(C   4,C   5,Br  6)          119.3099         0.416143   
     27. A(Br  6,C   5,C   7)          119.3102         0.416145   
     28. A(C   5,C   7,C   8)          119.2411         0.437748   
     29. A(C   8,C   7,H  11)          120.5658         0.356740   
     30. A(C   5,C   7,H  11)          120.1931         0.355974   
     31. A(C   2,C   8,C   7)          119.9541         0.436009   
     32. A(C   7,C   8,H  12)          120.3000         0.356594   
     33. A(C   2,C   8,H  12)          119.7459         0.354498   
     34. D(H   9,C   3,C   2,C   1)     -0.0005         0.026320   
     35. D(H   9,C   3,C   2,C   8)    179.9999         0.026320   
     36. D(C   4,C   3,C   2,C   8)     -0.0003         0.026320   
     37. D(C   4,C   3,C   2,C   1)    179.9993         0.026320   
     38. D(H  10,C   4,C   3,C   2)   -179.9998         0.028339   
     39. D(C   5,C   4,C   3,C   2)      0.0001         0.028339   
     40. D(C   5,C   4,C   3,H   9)    180.0000         0.028339   
     41. D(H  10,C   4,C   3,H   9)      0.0000         0.028339   
     42. D(C   7,C   5,C   4,H  10)    180.0000         0.027584   
     43. D(C   7,C   5,C   4,C   3)     -0.0000         0.027584   
     44. D(Br  6,C   5,C   4,H  10)     -0.0002         0.027584   
     45. D(Br  6,C   5,C   4,C   3)    179.9998         0.027584   
     46. D(H  11,C   7,C   5,C   4)   -180.0000         0.027585   
     47. D(C   8,C   7,C   5,Br  6)   -179.9998         0.027585   
     48. D(C   8,C   7,C   5,C   4)      0.0000         0.027585   
     49. D(H  11,C   7,C   5,Br  6)      0.0002         0.027585   
     50. D(H  12,C   8,C   7,H  11)     -0.0000         0.028339   
     51. D(C   2,C   8,C   7,H  11)    179.9998         0.028339   
     52. D(C   2,C   8,C   7,C   5)     -0.0001         0.028339   
     53. D(H  12,C   8,C   2,C   3)   -179.9999         0.026321   
     54. D(H  12,C   8,C   2,C   1)      0.0005         0.026321   
     55. D(H  12,C   8,C   7,C   5)   -180.0000         0.028339   
     56. D(C   7,C   8,C   2,C   3)      0.0003         0.026321   
     57. D(C   7,C   8,C   2,C   1)   -179.9993         0.026321   
    -----------------------------------------------------------------

Number of atoms                         .... 13
Number of degrees of freedom            .... 57

         *************************************************************
         *                GEOMETRY OPTIMIZATION CYCLE   1            *
         *************************************************************
---------------------------------
CARTESIAN COORDINATES (ANGSTROEM)
---------------------------------
  N      4.756832    0.000304    0.000120
  C      3.609423   -0.000179   -0.000069
  C      2.173826   -0.000123   -0.000040
  C      1.479564    1.208061   -0.000030
  C      0.095575    1.209780   -0.000016
  C     -0.583671   -0.000022   -0.000009
  Br    -2.472644    0.000051    0.000015
  C      0.095486   -1.209869   -0.000016
  C      1.479479   -1.208253   -0.000030
  H      2.026338    2.141081   -0.000036
  H     -0.452879    2.141050   -0.000011
  H     -0.453028   -2.141103   -0.000011
  H      2.026179   -2.141316   -0.000036

----------------------------
CARTESIAN COORDINATES (A.U.)
----------------------------
  NO LB      ZA    FRAG     MASS         X           Y           Z
   0 N     7.0000    0    14.007    8.989110    0.000574    0.000227
   1 C     6.0000    0    12.011    6.820821   -0.000338   -0.000130
   2 C     6.0000    0    12.011    4.107936   -0.000232   -0.000076
   3 C     6.0000    0    12.011    2.795971    2.282904   -0.000057
   4 C     6.0000    0    12.011    0.180611    2.286153   -0.000030
   5 C     6.0000    0    12.011   -1.102978   -0.000042   -0.000017
   6 Br   35.0000    0    79.900   -4.672620    0.000096    0.000028
   7 C     6.0000    0    12.011    0.180442   -2.286321   -0.000030
   8 C     6.0000    0    12.011    2.795810   -2.283267   -0.000057
   9 H     1.0000    0     1.008    3.829224    4.046057   -0.000068
  10 H     1.0000    0     1.008   -0.855817    4.045998   -0.000021
  11 H     1.0000    0     1.008   -0.856099   -4.046098   -0.000021
  12 H     1.0000    0     1.008    3.828923   -4.046501   -0.000068

--------------------------------
INTERNAL COORDINATES (ANGSTROEM)
--------------------------------
 N      0   0   0     0.000000000000     0.00000000     0.00000000
 C      1   0   0     1.147409117225     0.00000000     0.00000000
 C      2   1   0     1.435597001385   179.97159636     0.00000000
 C      3   2   1     1.393451937671   119.88531744    21.90214707
 C      4   3   2     1.383990067623   119.95424731   179.99933336
 C      5   4   3     1.387442253850   119.24096360     0.00000000
 Br     6   5   4     1.888973001563   119.30991425   179.99982985
 C      6   5   4     1.387437924416   121.37985762     0.00000000
 C      8   6   5     1.383993943520   119.24111333     0.00000000
 H      4   3   2     1.081428743613   119.74550501     0.00000000
 H      5   4   3     1.080770837431   120.56632515   180.00017502
 H      8   6   5     1.080770267438   120.19311648   180.00004003
 H      9   8   6     1.081428431291   120.29997750   180.00002269

---------------------------
INTERNAL COORDINATES (A.U.)
---------------------------
 N      0   0   0     0.000000000000     0.00000000     0.00000000
 C      1   0   0     2.168288995120     0.00000000     0.00000000
 C      2   1   0     2.712885171296   179.97159636     0.00000000
 C      3   2   1     2.633242542981   119.88531744    21.90214707
 C      4   3   2     2.615362199874   119.95424731   179.99933336
 C      5   4   3     2.621885886407   119.24096360     0.00000000
 Br     6   5   4     3.569641647325   119.30991425   179.99982985
 C      6   5   4     2.621877704962   121.37985762     0.00000000
 C      8   6   5     2.615369524259   119.24111333     0.00000000
 H      4   3   2     2.043604158779   119.74550501     0.00000000
 H      5   4   3     2.042360896273   120.56632515   180.00017502
 H      8   6   5     2.042359819142   120.19311648   180.00004003
 H      9   8   6     2.043603568576   120.29997750   180.00002269

---------------------
BASIS SET INFORMATION
---------------------
There are 4 groups of distinct atoms

 Group   1 Type N   : 11s6p2d contracted to 5s3p2d pattern {62111/411/11}
 Group   2 Type C   : 11s6p1d contracted to 5s3p1d pattern {62111/411/1}
 Group   3 Type Br  : 17s13p7d contracted to 6s5p3d pattern {842111/64111/511}
 Group   4 Type H   : 4s1p contracted to 2s1p pattern {31/1}

Atom   0N    basis set group =>   1
Atom   1C    basis set group =>   2
Atom   2C    basis set group =>   2
Atom   3C    basis set group =>   2
Atom   4C    basis set group =>   2
Atom   5C    basis set group =>   2
Atom   6Br   basis set group =>   3
Atom   7C    basis set group =>   2
Atom   8C    basis set group =>   2
Atom   9H    basis set group =>   4
Atom  10H    basis set group =>   4
Atom  11H    basis set group =>   4
Atom  12H    basis set group =>   4
---------------------------------
AUXILIARY/J BASIS SET INFORMATION
---------------------------------
There are 4 groups of distinct atoms

 Group   1 Type N   : 8s3p3d contracted to 6s3p3d pattern {311111/111/111}
 Group   2 Type C   : 8s3p3d contracted to 6s3p3d pattern {311111/111/111}
 Group   3 Type Br  : 19s5p5d3f1g contracted to 8s4p3d2f1g pattern {121111111/2111/311/21/1}
 Group   4 Type H   : 5s2p1d contracted to 3s1p1d pattern {311/2/1}

Atom   0N    basis set group =>   1
Atom   1C    basis set group =>   2
Atom   2C    basis set group =>   2
Atom   3C    basis set group =>   2
Atom   4C    basis set group =>   2
Atom   5C    basis set group =>   2
Atom   6Br   basis set group =>   3
Atom   7C    basis set group =>   2
Atom   8C    basis set group =>   2
Atom   9H    basis set group =>   4
Atom  10H    basis set group =>   4
Atom  11H    basis set group =>   4
Atom  12H    basis set group =>   4


           ************************************************************
           *        Program running with 16 parallel MPI-processes    *
           *              working on a common directory               *
           ************************************************************
------------------------------------------------------------------------------
                           ORCA GTO INTEGRAL CALCULATION
                           -- RI-GTO INTEGRALS CHOSEN --
------------------------------------------------------------------------------
------------------------------------------------------------------------------
                   ___                                                        
                  /   \      - P O W E R E D   B Y -                         
                 /     \                                                     
                 |  |  |   _    _      __       _____    __    __             
                 |  |  |  | |  | |    /  \     |  _  \  |  |  /  |          
                  \  \/   | |  | |   /    \    | | | |  |  | /  /          
                 / \  \   | |__| |  /  /\  \   | |_| |  |  |/  /          
                |  |  |   |  __  | /  /__\  \  |    /   |      \           
                |  |  |   | |  | | |   __   |  |    \   |  |\   \          
                \     /   | |  | | |  |  |  |  | |\  \  |  | \   \       
                 \___/    |_|  |_| |__|  |__|  |_| \__\ |__|  \__/        
                                                                              
                      - O R C A' S   B I G   F R I E N D -                    
                                      &                                       
                       - I N T E G R A L  F E E D E R -                       
                                                                              
 v1 FN, 2020, v2 2021                                                         
------------------------------------------------------------------------------


Reading SHARK input file /tmp/254450/arbr_08_r2scan3c.SHARKINP.tmp ... ok
----------------------
SHARK INTEGRAL PACKAGE
----------------------

Number of atoms                             ...     13
Number of basis functions                   ...    213
Number of shells                            ...     99
Maximum angular momentum                    ...      2
Integral batch strategy                     ... SHARK/LIBINT Hybrid
RI-J (if used) integral strategy            ... SPLIT-RIJ (Revised 2003 algorithm where possible)
Printlevel                                  ...      1
Contraction scheme used                     ... SEGMENTED contraction
Coulomb Range Separation                    ... NOT USED
Exchange Range Separation                   ... NOT USED
Finite Nucleus Model                        ... NOT USED
Auxiliary Coulomb fitting basis             ... AVAILABLE
   # of basis functions in Aux-J            ...    342
   # of shells in Aux-J                     ...    134
   Maximum angular momentum in Aux-J        ...      4
Auxiliary J/K fitting basis                 ... NOT available
Auxiliary Correlation fitting basis         ... NOT available
Auxiliary 'external' fitting basis          ... NOT available
Integral threshold                          ...     2.500000e-11
Primitive cut-off                           ...     2.500000e-12
Primitive pair pre-selection threshold      ...     2.500000e-12

Calculating pre-screening integrals         ... done (  0.0 sec) Dimension = 99
Organizing shell pair data                  ... done (  0.0 sec)
Shell pair information
Total number of shell pairs                 ...      4950
Shell pairs after pre-screening             ...      4289
Total number of primitive shell pairs       ...     20757
Primitive shell pairs kept                  ...     12247
          la=0 lb=0:   1234 shell pairs
          la=1 lb=0:   1577 shell pairs
          la=1 lb=1:    521 shell pairs
          la=2 lb=0:    539 shell pairs
          la=2 lb=1:    353 shell pairs
          la=2 lb=2:     65 shell pairs

Calculating one electron integrals          ... done (  0.0 sec)
Calculating RI/J V-Matrix + Cholesky decomp.... done (  0.0 sec)
Calculating Nuclear repulsion               ... done (  0.0 sec) ENN=    561.685641341812 Eh

SHARK setup successfully completed in   0.2 seconds

Maximum memory used throughout the entire GTOINT-calculation: 17.4 MB


           ************************************************************
           *        Program running with 16 parallel MPI-processes    *
           *              working on a common directory               *
           ************************************************************
-------------------------------------------------------------------------------
                                 ORCA SCF
-------------------------------------------------------------------------------

------------
SCF SETTINGS
------------
Hamiltonian:
 Density Functional     Method          .... DFT(GTOs)
  Functional kind                       .... Exchange
  Functional name                       .... Re-regularized SCAN exchange by Furness et al
  Functional family                     .... MGGA
  Functional refs                              
    [ 0] J. W. Furness, A. D. Kaplan, J. Ning, J. P. Perdew, and J. Sun, J. Phys. Chem. Lett. 11, 8208 (2020)
    [ 1] J. W. Furness, A. D. Kaplan, J. Ning, J. P. Perdew, and J. Sun, J. Phys. Chem. Lett. 11, 9248 (2020)
  Functional external parameters         .... 8
 Parameter  0 :         c1 parameter
 Parameter  1 :         c2 parameter
 Parameter  2 :          d parameter
 Parameter  3 :         k1 parameter
 Parameter  4 :       taur parameter
 Parameter  5 :     alphar parameter
 Parameter  6 :        eta parameter
 Parameter  7 :        dp2 parameter
  Functional kind                       .... Correlation
  Functional name                       .... Re-regularized SCAN correlation by Furness et al
  Functional family                     .... MGGA
  Functional refs                              
    [ 0] J. W. Furness, A. D. Kaplan, J. Ning, J. P. Perdew, and J. Sun, J. Phys. Chem. Lett. 11, 8208 (2020)
    [ 1] J. W. Furness, A. D. Kaplan, J. Ning, J. P. Perdew, and J. Sun, J. Phys. Chem. Lett. 11, 9248 (2020)
  Functional external parameters         .... 0
 Gradients option       PostSCFGGA      .... off
   Density functional embedding theory  .... OFF
 RI-approximation to the Coulomb term is turned on
   Number of AuxJ basis functions       .... 342


General Settings:
 Integral files         IntName         .... /tmp/254450/arbr_08_r2scan3c
 Hartree-Fock type      HFTyp           .... RHF
 Total Charge           Charge          ....    0
 Multiplicity           Mult            ....    1
 Number of Electrons    NEL             ....   88
 Basis Dimension        Dim             ....  213
 Nuclear Repulsion      ENuc            ....    561.6856413418 Eh

Convergence Acceleration:
 DIIS                   CNVDIIS         .... on
   Start iteration      DIISMaxIt       ....    12
   Startup error        DIISStart       ....  0.200000
   # of expansion vecs  DIISMaxEq       ....     5
   Bias factor          DIISBfac        ....   1.050
   Max. coefficient     DIISMaxC        ....  10.000
 Trust-Rad. Augm. Hess. CNVTRAH         .... auto
   Auto Start mean grad. ratio tolernc. ....  1.125000
   Auto Start start iteration           ....    20
   Auto Start num. interpolation iter.  ....    10
   Max. Number of Micro iterations      ....    16
   Max. Number of Macro iterations      .... Maxiter - #DIIS iter
   Number of Davidson start vectors     ....     2
   Converg. threshold I  (grad. norm)   ....   1.000e-05
   Converg. threshold II (energy diff.) ....   1.000e-08
   Grad. Scal. Fac. for Micro threshold ....   0.100
   Minimum threshold for Micro iter.    ....   0.010
   NR start threshold (gradient norm)   ....   0.001
   Initial trust radius                 ....   0.400
   Minimum AH scaling param. (alpha)    ....   1.000
   Maximum AH scaling param. (alpha)    .... 1000.000
   Orbital update algorithm             .... Taylor
   White noise on init. David. guess    .... on
   Maximum white noise                  ....   0.010
   Quad. conv. algorithm                .... NR
   COSX micro iterations for RIJONX calc.... off
 SOSCF                  CNVSOSCF        .... on
   Start iteration      SOSCFMaxIt      ....   150
   Startup grad/error   SOSCFStart      ....  0.003300
 Level Shifting         CNVShift        .... on
   Level shift para.    LevelShift      ....    0.2500
   Turn off err/grad.   ShiftErr        ....    0.0010
 Zerner damping         CNVZerner       .... off
 Static damping         CNVDamp         .... on
   Fraction old density DampFac         ....    0.7000
   Max. Damping (<1)    DampMax         ....    0.9800
   Min. Damping (>=0)   DampMin         ....    0.0000
   Turn off err/grad.   DampErr         ....    0.1000
 Fernandez-Rico         CNVRico         .... off

SCF Procedure:
 Maximum # iterations   MaxIter         ....   125
 SCF integral mode      SCFMode         .... Direct
   Integral package                     .... SHARK and LIBINT hybrid scheme
 Reset frequency        DirectResetFreq ....    20
 Integral Threshold     Thresh          ....  2.500e-11 Eh
 Primitive CutOff       TCut            ....  2.500e-12 Eh

Convergence Tolerance:
 Convergence Check Mode ConvCheckMode   .... Total+1el-Energy
 Convergence forced     ConvForced      .... 0
 Energy Change          TolE            ....  1.000e-08 Eh
 1-El. energy change                    ....  1.000e-05 Eh
 Orbital Gradient       TolG            ....  1.000e-05
 Orbital Rotation angle TolX            ....  1.000e-05
 DIIS Error             TolErr          ....  5.000e-07


Diagonalization of the overlap matrix:
Smallest eigenvalue                        ... 2.936e-05
Time for diagonalization                   ...    0.004 sec
Threshold for overlap eigenvalues          ... 1.000e-08
Number of eigenvalues below threshold      ... 0
Time for construction of square roots      ...    0.002 sec
Total time needed                          ...    0.007 sec

Time for model grid setup =    0.060 sec

------------------------------
INITIAL GUESS: MODEL POTENTIAL
------------------------------
Loading Hartree-Fock densities                     ... done
Calculating cut-offs                               ... done
Initializing the effective Hamiltonian             ... done
Setting up the integral package (SHARK)            ... done
Starting the Coulomb interaction                   ... done (   0.0 sec)
Reading the grid                                   ... done
Mapping shells                                     ... done
Starting the XC term evaluation                    ... done (   0.0 sec)
  promolecular density results
     # of electrons  =     88.000620109
     EX              =   -132.749005268
     EC              =     -3.472255748
     EX+EC           =   -136.221261017
Transforming the Hamiltonian                       ... done (   0.0 sec)
Diagonalizing the Hamiltonian                      ... done (   0.0 sec)
Back transforming the eigenvectors                 ... done (   0.0 sec)
Now organizing SCF variables                       ... done
                      ------------------
                      INITIAL GUESS DONE (   0.1 sec)
                      ------------------
-------------------
DFT GRID GENERATION
-------------------

General Integration Accuracy     IntAcc      ... 4.388
Radial Grid Type                 RadialGrid  ... OptM3 with GC (2021)
Angular Grid (max. ang.)         AngularGrid ... 4 (Lebedev-302)
Angular grid pruning method      GridPruning ... 4 (adaptive)
Weight generation scheme         WeightScheme... Becke
Basis function cutoff            BFCut       ... 1.0000e-11
Integration weight cutoff        WCut        ... 1.0000e-14
Angular grids for H and He will be reduced by one unit
Partially contracted basis set               ... off
Rotationally invariant grid construction     ... off

Total number of grid points                  ...    72323
Total number of batches                      ...     1135
Average number of points per batch           ...       63
Average number of grid points per atom       ...     5563
Time for grid setup =    0.336 sec

--------------
SCF ITERATIONS
--------------
ITER       Energy         Delta-E        Max-DP      RMS-DP      [F,P]     Damp
               ***  Starting incremental Fock matrix formation  ***
  0  -2897.7545910012   0.000000000000 0.04696272  0.00147724  0.2781751 0.7000
  1  -2897.8485869795  -0.093995978357 0.03010751  0.00108270  0.0929402 0.7000
                               ***Turning on DIIS***
  2  -2897.8805051238  -0.031918144297 0.05889675  0.00196179  0.0432189 0.0000
  3  -2897.9337329734  -0.053227849588 0.03155945  0.00106995  0.0411529 0.0000
  4  -2897.9456220483  -0.011889074897 0.01199665  0.00043831  0.0346728 0.0000
                      *** Initiating the SOSCF procedure ***
                           *** Shutting down DIIS ***
                      *** Re-Reading the Fockian *** 
                      *** Removing any level shift *** 
ITER      Energy       Delta-E        Grad      Rot      Max-DP    RMS-DP
  5  -2897.94752627  -0.0019042190  0.001114  0.001114  0.006696  0.000165
               *** Restarting incremental Fock matrix formation ***
  6  -2897.94760718  -0.0000809112  0.000722  0.002251  0.001741  0.000091
  7  -2897.94759368   0.0000134951  0.002015  0.001743  0.001254  0.000038
  8  -2897.94761425  -0.0000205679  0.000425  0.000467  0.000980  0.000037
  9  -2897.94761346   0.0000007902  0.000258  0.000408  0.000460  0.000018
 10  -2897.94761697  -0.0000035041  0.000066  0.000355  0.000350  0.000009
 11  -2897.94761675   0.0000002110  0.000114  0.000192  0.000252  0.000006
 12  -2897.94761706  -0.0000003027  0.000027  0.000105  0.000072  0.000002
 13  -2897.94761704   0.0000000163  0.000040  0.000068  0.000049  0.000002
 14  -2897.94761707  -0.0000000333  0.000006  0.000009  0.000019  0.000001
 15  -2897.94761708  -0.0000000046  0.000006  0.000006  0.000009  0.000000
                  ***Gradient check signals convergence***
              ***Rediagonalizing the Fockian in SOSCF/NRSCF***

               *****************************************************
               *                     SUCCESS                       *
               *           SCF CONVERGED AFTER  16 CYCLES          *
               *****************************************************


----------------
TOTAL SCF ENERGY
----------------

Total Energy       :        -2897.94761708 Eh          -78857.16368 eV

Components:
Nuclear Repulsion  :          561.68564134 Eh           15284.24334 eV
Electronic Energy  :        -3459.63325842 Eh          -94141.40702 eV
One Electron Energy:        -5133.94206309 Eh         -139701.66583 eV
Two Electron Energy:         1674.30880467 Eh           45560.25881 eV

Virial components:
Potential Energy   :        -5791.16134531 Eh         -157585.51170 eV
Kinetic Energy     :         2893.21372823 Eh           78728.34802 eV
Virial Ratio       :            2.00163620


DFT components:
N(Alpha)           :       44.000015591903 electrons
N(Beta)            :       44.000015591903 electrons
N(Total)           :       88.000031183807 electrons
E(X)               :     -134.077611470906 Eh       
E(C)               :       -3.447756211977 Eh       
E(XC)              :     -137.525367682883 Eh       
DFET-embed. en.    :        0.000000000000 Eh       

---------------
SCF CONVERGENCE
---------------

  Last Energy change         ...   -1.6162e-09  Tolerance :   1.0000e-08
  Last MAX-Density change    ...    1.0595e-05  Tolerance :   1.0000e-07
  Last RMS-Density change    ...    3.8152e-07  Tolerance :   5.0000e-09
  Last Orbital Gradient      ...    5.4036e-07  Tolerance :   1.0000e-05
  Last Orbital Rotation      ...    2.6246e-06  Tolerance :   1.0000e-05

             **** THE GBW FILE WAS UPDATED (/tmp/254450/arbr_08_r2scan3c.gbw) ****
             **** DENSITY /tmp/254450/arbr_08_r2scan3c.scfp WAS UPDATED ****
             **** ENERGY FILE WAS UPDATED (/tmp/254450/arbr_08_r2scan3c.en.tmp) ****
             **** THE GBW FILE WAS UPDATED (/tmp/254450/arbr_08_r2scan3c.gbw) ****
             **** DENSITY /tmp/254450/arbr_08_r2scan3c.scfp WAS UPDATED ****
----------------
ORBITAL ENERGIES
----------------

  NO   OCC          E(Eh)            E(eV) 
   0   2.0000    -482.251416    -13122.7282 
   1   2.0000     -62.322659     -1695.8858 
   2   2.0000     -56.103915     -1526.6651 
   3   2.0000     -56.099988     -1526.5583 
   4   2.0000     -56.099946     -1526.5571 
   5   2.0000     -14.165266      -385.4565 
   6   2.0000     -10.126651      -275.5602 
   7   2.0000     -10.102689      -274.9082 
   8   2.0000     -10.082816      -274.3674 
   9   2.0000     -10.082806      -274.3671 
  10   2.0000     -10.079390      -274.2742 
  11   2.0000     -10.078660      -274.2543 
  12   2.0000     -10.078654      -274.2541 
  13   2.0000      -8.654664      -235.5054 
  14   2.0000      -6.462509      -175.8538 
  15   2.0000      -6.448564      -175.4744 
  16   2.0000      -6.447913      -175.4566 
  17   2.0000      -2.559990       -69.6609 
  18   2.0000      -2.556797       -69.5740 
  19   2.0000      -2.556335       -69.5614 
  20   2.0000      -2.545668       -69.2712 
  21   2.0000      -2.545667       -69.2711 
  22   2.0000      -0.893400       -24.3107 
  23   2.0000      -0.874566       -23.7982 
  24   2.0000      -0.809188       -22.0191 
  25   2.0000      -0.762789       -20.7566 
  26   2.0000      -0.737134       -20.0584 
  27   2.0000      -0.624845       -17.0029 
  28   2.0000      -0.623431       -16.9644 
  29   2.0000      -0.554285       -15.0829 
  30   2.0000      -0.478848       -13.0301 
  31   2.0000      -0.473303       -12.8792 
  32   2.0000      -0.445041       -12.1102 
  33   2.0000      -0.434835       -11.8325 
  34   2.0000      -0.406384       -11.0583 
  35   2.0000      -0.372211       -10.1284 
  36   2.0000      -0.366455        -9.9718 
  37   2.0000      -0.355830        -9.6826 
  38   2.0000      -0.336136        -9.1467 
  39   2.0000      -0.322328        -8.7710 
  40   2.0000      -0.306356        -8.3364 
  41   2.0000      -0.287171        -7.8143 
  42   2.0000      -0.280275        -7.6267 
  43   2.0000      -0.250378        -6.8131 
  44   0.0000      -0.093728        -2.5505 
  45   0.0000      -0.073476        -1.9994 
  46   0.0000      -0.040519        -1.1026 
  47   0.0000      -0.001660        -0.0452 
  48   0.0000       0.029195         0.7944 
  49   0.0000       0.054094         1.4720 
  50   0.0000       0.093630         2.5478 
  51   0.0000       0.098850         2.6898 
  52   0.0000       0.103671         2.8210 
  53   0.0000       0.106380         2.8947 
  54   0.0000       0.127467         3.4686 
  55   0.0000       0.150098         4.0844 
  56   0.0000       0.161164         4.3855 
  57   0.0000       0.184542         5.0216 
  58   0.0000       0.187584         5.1044 
  59   0.0000       0.193984         5.2786 
  60   0.0000       0.202512         5.5106 
  61   0.0000       0.203608         5.5405 
  62   0.0000       0.218753         5.9526 
  63   0.0000       0.231115         6.2890 
  64   0.0000       0.232093         6.3156 
  65   0.0000       0.235931         6.4200 
  66   0.0000       0.249505         6.7894 
  67   0.0000       0.274932         7.4813 
  68   0.0000       0.278191         7.5700 
  69   0.0000       0.296198         8.0600 
  70   0.0000       0.298655         8.1268 
  71   0.0000       0.307061         8.3556 
  72   0.0000       0.310073         8.4375 
  73   0.0000       0.315695         8.5905 
  74   0.0000       0.318425         8.6648 
  75   0.0000       0.355426         9.6716 
  76   0.0000       0.364170         9.9096 
  77   0.0000       0.404057        10.9950 
  78   0.0000       0.411603        11.2003 
  79   0.0000       0.412073        11.2131 
  80   0.0000       0.414276        11.2730 
  81   0.0000       0.433907        11.8072 
  82   0.0000       0.460162        12.5217 
  83   0.0000       0.471888        12.8407 
  84   0.0000       0.496711        13.5162 
  85   0.0000       0.508360        13.8332 
  86   0.0000       0.512593        13.9484 
  87   0.0000       0.518047        14.0968 
  88   0.0000       0.531850        14.4724 
  89   0.0000       0.547733        14.9046 
  90   0.0000       0.552779        15.0419 
  91   0.0000       0.556870        15.1532 
  92   0.0000       0.582864        15.8605 
  93   0.0000       0.594641        16.1810 
  94   0.0000       0.606113        16.4932 
  95   0.0000       0.606782        16.5114 
  96   0.0000       0.615223        16.7411 
  97   0.0000       0.646430        17.5902 
  98   0.0000       0.676905        18.4195 
  99   0.0000       0.678268        18.4566 
 100   0.0000       0.704050        19.1582 
 101   0.0000       0.723381        19.6842 
 102   0.0000       0.742399        20.2017 
 103   0.0000       0.820012        22.3137 
 104   0.0000       0.846441        23.0328 
 105   0.0000       0.928599        25.2685 
 106   0.0000       1.022173        27.8147 
 107   0.0000       1.048841        28.5404 
 108   0.0000       1.059990        28.8438 
 109   0.0000       1.076757        29.3001 
 110   0.0000       1.181581        32.1525 
 111   0.0000       1.190554        32.3966 
 112   0.0000       1.191118        32.4120 
 113   0.0000       1.248187        33.9649 
 114   0.0000       1.272779        34.6341 
 115   0.0000       1.295958        35.2648 
 116   0.0000       1.307570        35.5808 
 117   0.0000       1.324032        36.0287 
 118   0.0000       1.325328        36.0640 
 119   0.0000       1.351927        36.7878 
 120   0.0000       1.393825        37.9279 
 121   0.0000       1.397358        38.0240 
 122   0.0000       1.407050        38.2878 
 123   0.0000       1.421762        38.6881 
 124   0.0000       1.426612        38.8201 
 125   0.0000       1.435420        39.0598 
 126   0.0000       1.443160        39.2704 
 127   0.0000       1.465897        39.8891 
 128   0.0000       1.467275        39.9266 
 129   0.0000       1.472582        40.0710 
 130   0.0000       1.479890        40.2699 
 131   0.0000       1.489675        40.5361 
 132   0.0000       1.536042        41.7978 
 133   0.0000       1.538431        41.8628 
 134   0.0000       1.559367        42.4325 
 135   0.0000       1.580042        42.9951 
 136   0.0000       1.597512        43.4705 
 137   0.0000       1.603249        43.6266 
 138   0.0000       1.668116        45.3917 
 139   0.0000       1.694246        46.1028 
 140   0.0000       1.702219        46.3197 
 141   0.0000       1.708956        46.5030 
 142   0.0000       1.738516        47.3074 
 143   0.0000       1.745955        47.5098 
 144   0.0000       1.758101        47.8404 
 145   0.0000       1.775441        48.3122 
 146   0.0000       1.813519        49.3484 
 147   0.0000       1.832790        49.8727 
 148   0.0000       1.906881        51.8889 
 149   0.0000       1.968506        53.5658 
 150   0.0000       1.996437        54.3258 
 151   0.0000       2.013126        54.7799 
 152   0.0000       2.030111        55.2421 
 153   0.0000       2.076785        56.5122 
 154   0.0000       2.093229        56.9597 
 155   0.0000       2.097397        57.0731 
 156   0.0000       2.135865        58.1198 
 157   0.0000       2.156926        58.6929 
 158   0.0000       2.213757        60.2394 
 159   0.0000       2.219383        60.3925 
 160   0.0000       2.244462        61.0749 
 161   0.0000       2.254546        61.3493 
 162   0.0000       2.254879        61.3584 
 163   0.0000       2.267110        61.6912 
 164   0.0000       2.281986        62.0960 
 165   0.0000       2.297332        62.5136 
 166   0.0000       2.323855        63.2353 
 167   0.0000       2.327971        63.3473 
 168   0.0000       2.333427        63.4958 
 169   0.0000       2.341716        63.7213 
 170   0.0000       2.374641        64.6173 
 171   0.0000       2.383426        64.8563 
 172   0.0000       2.484899        67.6175 
 173   0.0000       2.499441        68.0132 
 174   0.0000       2.532931        68.9246 
 175   0.0000       2.601037        70.7778 
 176   0.0000       2.602527        70.8184 
 177   0.0000       2.635762        71.7227 
 178   0.0000       2.655750        72.2666 
 179   0.0000       2.657558        72.3158 
 180   0.0000       2.677028        72.8456 
 181   0.0000       2.689757        73.1920 
 182   0.0000       2.708601        73.7048 
 183   0.0000       2.736741        74.4705 
 184   0.0000       2.780809        75.6697 
 185   0.0000       2.823133        76.8213 
 186   0.0000       2.909715        79.1774 
 187   0.0000       2.921699        79.5035 
 188   0.0000       2.951147        80.3048 
 189   0.0000       2.955298        80.4177 
 190   0.0000       3.086704        83.9935 
 191   0.0000       3.129625        85.1614 
 192   0.0000       3.172923        86.3396 
 193   0.0000       3.180876        86.5560 
 194   0.0000       3.253900        88.5431 
 195   0.0000       3.292904        89.6045 
 196   0.0000       3.378576        91.9357 
 197   0.0000       3.388338        92.2014 
 198   0.0000       3.426732        93.2461 
 199   0.0000       3.578606        97.3788 
 200   0.0000       3.591708        97.7353 
 201   0.0000       3.607711        98.1708 
 202   0.0000       3.926052       106.8333 
 203   0.0000       4.259927       115.9185 
 204   0.0000       7.472361       203.3333 
 205   0.0000      21.292259       579.3918 
 206   0.0000      21.715413       590.9064 
 207   0.0000      21.901905       595.9811 
 208   0.0000      22.044621       599.8646 
 209   0.0000      22.126284       602.0868 
 210   0.0000      22.251661       605.4985 
 211   0.0000      22.370319       608.7273 
 212   0.0000      31.877388       867.4278 

                    ********************************
                    * MULLIKEN POPULATION ANALYSIS *
                    ********************************

-----------------------
MULLIKEN ATOMIC CHARGES
-----------------------
   0 N :   -0.235565
   1 C :    0.204753
   2 C :    0.015665
   3 C :   -0.146430
   4 C :   -0.197745
   5 C :    0.136507
   6 Br:   -0.097915
   7 C :   -0.197798
   8 C :   -0.146326
   9 H :    0.164532
  10 H :    0.167900
  11 H :    0.167898
  12 H :    0.164523
Sum of atomic charges:    0.0000000

--------------------------------
MULLIKEN REDUCED ORBITAL CHARGES
--------------------------------
  0 N s       :     3.693050  s :     3.693050
      pz      :     1.084952  p :     3.498130
      px      :     1.336493
      py      :     1.076686
      dz2     :     0.001489  d :     0.044385
      dxz     :     0.016502
      dyz     :     0.000040
      dx2y2   :     0.004692
      dxy     :     0.021661
  1 C s       :     3.097376  s :     3.097376
      pz      :     0.930694  p :     2.647100
      px      :     0.798778
      py      :     0.917627
      dz2     :     0.004369  d :     0.050772
      dxz     :     0.017881
      dyz     :     0.000063
      dx2y2   :     0.012580
      dxy     :     0.015879
  2 C s       :     3.247010  s :     3.247010
      pz      :     1.035351  p :     2.686157
      px      :     0.803245
      py      :     0.847561
      dz2     :     0.003920  d :     0.051168
      dxz     :     0.005588
      dyz     :     0.007108
      dx2y2   :     0.019033
      dxy     :     0.015519
  3 C s       :     3.202738  s :     3.202738
      pz      :     0.958124  p :     2.905146
      px      :     0.964717
      py      :     0.982304
      dz2     :     0.003311  d :     0.038546
      dxz     :     0.006103
      dyz     :     0.003476
      dx2y2   :     0.012072
      dxy     :     0.013583
  4 C s       :     3.212936  s :     3.212936
      pz      :     0.983720  p :     2.946821
      px      :     0.970968
      py      :     0.992133
      dz2     :     0.003322  d :     0.037989
      dxz     :     0.005532
      dyz     :     0.003569
      dx2y2   :     0.011856
      dxy     :     0.013710
  5 C s       :     3.108225  s :     3.108225
      pz      :     1.012266  p :     2.704916
      px      :     0.730455
      py      :     0.962195
      dz2     :     0.003486  d :     0.050352
      dxz     :     0.006499
      dyz     :     0.007372
      dx2y2   :     0.016740
      dxy     :     0.016256
  6 Brs       :     7.981731  s :     7.981731
      pz      :     5.923680  p :    17.068009
      px      :     5.191059
      py      :     5.953269
      dz2     :     2.006074  d :    10.048175
      dxz     :     2.014812
      dyz     :     2.000290
      dx2y2   :     2.018648
      dxy     :     2.008351
  7 C s       :     3.212971  s :     3.212971
      pz      :     0.983717  p :     2.946838
      px      :     0.970993
      py      :     0.992128
      dz2     :     0.003322  d :     0.037988
      dxz     :     0.005531
      dyz     :     0.003569
      dx2y2   :     0.011856
      dxy     :     0.013710
  8 C s       :     3.202662  s :     3.202662
      pz      :     0.958133  p :     2.905117
      px      :     0.964694
      py      :     0.982290
      dz2     :     0.003311  d :     0.038546
      dxz     :     0.006104
      dyz     :     0.003476
      dx2y2   :     0.012072
      dxy     :     0.013583
  9 H s       :     0.815951  s :     0.815951
      pz      :     0.003926  p :     0.019517
      px      :     0.005472
      py      :     0.010119
 10 H s       :     0.812520  s :     0.812520
      pz      :     0.003998  p :     0.019580
      px      :     0.005558
      py      :     0.010024
 11 H s       :     0.812523  s :     0.812523
      pz      :     0.003998  p :     0.019580
      px      :     0.005558
      py      :     0.010024
 12 H s       :     0.815960  s :     0.815960
      pz      :     0.003926  p :     0.019517
      px      :     0.005472
      py      :     0.010120


                     *******************************
                     * LOEWDIN POPULATION ANALYSIS *
                     *******************************

----------------------
LOEWDIN ATOMIC CHARGES
----------------------
   0 N :   -0.291708
   1 C :    0.162196
   2 C :   -0.074004
   3 C :   -0.105240
   4 C :   -0.163899
   5 C :   -0.222052
   6 Br:    0.224235
   7 C :   -0.163902
   8 C :   -0.105254
   9 H :    0.185989
  10 H :    0.183828
  11 H :    0.183826
  12 H :    0.185985

-------------------------------
LOEWDIN REDUCED ORBITAL CHARGES
-------------------------------
  0 N s       :     3.424916  s :     3.424916
      pz      :     1.098858  p :     3.682745
      px      :     1.501832
      py      :     1.082056
      dz2     :     0.020794  d :     0.184046
      dxz     :     0.050111
      dyz     :     0.000055
      dx2y2   :     0.063872
      dxy     :     0.049214
  1 C s       :     2.854254  s :     2.854254
      pz      :     0.875817  p :     2.884786
      px      :     1.149174
      py      :     0.859794
      dz2     :     0.009795  d :     0.098765
      dxz     :     0.032233
      dyz     :     0.000059
      dx2y2   :     0.028814
      dxy     :     0.027863
  2 C s       :     2.846336  s :     2.846336
      pz      :     1.011213  p :     3.124635
      px      :     1.001629
      py      :     1.111792
      dz2     :     0.006979  d :     0.103033
      dxz     :     0.009293
      dyz     :     0.012617
      dx2y2   :     0.040017
      dxy     :     0.034128
  3 C s       :     2.897520  s :     2.897520
      pz      :     0.950988  p :     3.125787
      px      :     1.083823
      py      :     1.090976
      dz2     :     0.005734  d :     0.081933
      dxz     :     0.010915
      dyz     :     0.005843
      dx2y2   :     0.027937
      dxy     :     0.031505
  4 C s       :     2.905115  s :     2.905115
      pz      :     0.978426  p :     3.176746
      px      :     1.103355
      py      :     1.094966
      dz2     :     0.005963  d :     0.082038
      dxz     :     0.009878
      dyz     :     0.006018
      dx2y2   :     0.027665
      dxy     :     0.032515
  5 C s       :     2.929674  s :     2.929674
      pz      :     1.007768  p :     3.191135
      px      :     1.031182
      py      :     1.152184
      dz2     :     0.006839  d :     0.101243
      dxz     :     0.010600
      dyz     :     0.013051
      dx2y2   :     0.035691
      dxy     :     0.035062
  6 Brs       :     7.665804  s :     7.665804
      pz      :     5.901784  p :    17.041181
      px      :     5.214323
      py      :     5.925074
      dz2     :     2.009976  d :    10.068780
      dxz     :     2.017588
      dyz     :     2.000263
      dx2y2   :     2.030499
      dxy     :     2.010454
  7 C s       :     2.905115  s :     2.905115
      pz      :     0.978426  p :     3.176749
      px      :     1.103358
      py      :     1.094964
      dz2     :     0.005963  d :     0.082038
      dxz     :     0.009877
      dyz     :     0.006019
      dx2y2   :     0.027665
      dxy     :     0.032515
  8 C s       :     2.897521  s :     2.897521
      pz      :     0.950991  p :     3.125800
      px      :     1.083827
      py      :     1.090983
      dz2     :     0.005734  d :     0.081933
      dxz     :     0.010916
      dyz     :     0.005842
      dx2y2   :     0.027937
      dxy     :     0.031504
  9 H s       :     0.768762  s :     0.768762
      pz      :     0.008516  p :     0.045249
      px      :     0.012543
      py      :     0.024190
 10 H s       :     0.770783  s :     0.770783
      pz      :     0.008760  p :     0.045390
      px      :     0.012520
      py      :     0.024109
 11 H s       :     0.770784  s :     0.770784
      pz      :     0.008760  p :     0.045390
      px      :     0.012522
      py      :     0.024108
 12 H s       :     0.768766  s :     0.768766
      pz      :     0.008517  p :     0.045249
      px      :     0.012541
      py      :     0.024192


                      *****************************
                      * MAYER POPULATION ANALYSIS *
                      *****************************

  NA   - Mulliken gross atomic population
  ZA   - Total nuclear charge
  QA   - Mulliken gross atomic charge
  VA   - Mayer's total valence
  BVA  - Mayer's bonded valence
  FA   - Mayer's free valence

  ATOM       NA         ZA         QA         VA         BVA        FA
  0 N      7.2356     7.0000    -0.2356     2.9737     2.9737    -0.0000
  1 C      5.7952     6.0000     0.2048     3.8827     3.8827     0.0000
  2 C      5.9843     6.0000     0.0157     3.8035     3.8035     0.0000
  3 C      6.1464     6.0000    -0.1464     3.8392     3.8392     0.0000
  4 C      6.1977     6.0000    -0.1977     3.8029     3.8029     0.0000
  5 C      5.8635     6.0000     0.1365     3.8136     3.8136     0.0000
  6 Br    35.0979    35.0000    -0.0979     1.1442     1.1442     0.0000
  7 C      6.1978     6.0000    -0.1978     3.8029     3.8029    -0.0000
  8 C      6.1463     6.0000    -0.1463     3.8391     3.8391     0.0000
  9 H      0.8355     1.0000     0.1645     0.9643     0.9643    -0.0000
 10 H      0.8321     1.0000     0.1679     0.9650     0.9650     0.0000
 11 H      0.8321     1.0000     0.1679     0.9650     0.9650     0.0000
 12 H      0.8355     1.0000     0.1645     0.9643     0.9643     0.0000

  Mayer bond orders larger than 0.100000
B(  0-N ,  1-C ) :   2.8515 B(  1-C ,  2-C ) :   1.0442 B(  2-C ,  3-C ) :   1.3812 
B(  2-C ,  8-C ) :   1.3811 B(  3-C ,  4-C ) :   1.4087 B(  3-C ,  9-H ) :   0.9534 
B(  4-C ,  5-C ) :   1.3822 B(  4-C , 10-H ) :   0.9439 B(  5-C ,  6-Br) :   1.0232 
B(  5-C ,  7-C ) :   1.3823 B(  7-C ,  8-C ) :   1.4086 B(  7-C , 11-H ) :   0.9439 
B(  8-C , 12-H ) :   0.9534 

-------
TIMINGS
-------

Total SCF time: 0 days 0 hours 0 min 3 sec 

Total time                  ....       3.404 sec
Sum of individual times     ....       3.270 sec  ( 96.1%)

Fock matrix formation       ....       2.131 sec  ( 62.6%)
  Split-RI-J                ....       0.444 sec  ( 20.8% of F)
  XC integration            ....       1.602 sec  ( 75.2% of F)
    Basis function eval.    ....       0.225 sec  ( 14.0% of XC)
    Density eval.           ....       0.418 sec  ( 26.1% of XC)
    XC-Functional eval.     ....       0.212 sec  ( 13.2% of XC)
    XC-Potential eval.      ....       0.505 sec  ( 31.5% of XC)
Diagonalization             ....       0.336 sec  (  9.9%)
Density matrix formation    ....       0.007 sec  (  0.2%)
Population analysis         ....       0.237 sec  (  7.0%)
Initial guess               ....       0.068 sec  (  2.0%)
Orbital Transformation      ....       0.000 sec  (  0.0%)
Orbital Orthonormalization  ....       0.000 sec  (  0.0%)
DIIS solution               ....       0.032 sec  (  0.9%)
SOSCF solution              ....       0.063 sec  (  1.9%)
Grid generation             ....       0.396 sec  ( 11.6%)

Maximum memory used throughout the entire SCF-calculation: 25.4 MB


-------------------------------------------------------------------------------
                          DFT DISPERSION CORRECTION                            
                                                                               
                                 DFTD4 V2.5                                    
-------------------------------------------------------------------------------
The R2SCAN3C composite method is recognized
Using three-body term ABC
Active option DFTDOPT                   ...         5   

Starting D4
-------------------------   ----------------
Dispersion correction           -0.005029185
-------------------------   ----------------

------------------   -----------------
gCP correction             0.002905409
------------------   -----------------

-------------------------   --------------------
FINAL SINGLE POINT ENERGY     -2897.949740857181
-------------------------   --------------------



           ************************************************************
           *        Program running with 16 parallel MPI-processes    *
           *              working on a common directory               *
           ************************************************************
------------------------------------------------------------------------------
                         ORCA SCF GRADIENT CALCULATION
------------------------------------------------------------------------------

Gradient of the Kohn-Sham DFT energy:
Kohn-Sham wavefunction type      ... RKS
Hartree-Fock exchange scaling    ...    0.000
Number of operators              ...    1
Number of atoms                  ...   13
Basis set dimensions             ...  213
Integral neglect threshold       ... 2.5e-11
Integral primitive cutoff        ... 2.5e-12
SHARK Integral package           ... ON

Nuc. rep. gradient       (SHARK) ... done (  0.0 sec)
HCore & Overlap gradient (SHARK) ... done (  0.0 sec)
RI-J gradient            (SHARK) ... done (  0.2 sec)
Exchange-correlation gradient    ... done
Dispersion correction            ... Starting D4
Starting D4
Starting D4
Starting D4
Starting D4
Starting D4


------------------- 
Dispersion Gradient 
------------------- 
   1  :    0.000106611    0.000000011    0.000000005
   2  :    0.000104340   -0.000000004   -0.000000002
   3  :    0.000059611   -0.000000004   -0.000000001
   4  :    0.000025402    0.000058700   -0.000000001
   5  :   -0.000040984    0.000053607   -0.000000000
   6  :   -0.000062796    0.000000001    0.000000000
   7  :   -0.000200427    0.000000008    0.000000002
   8  :   -0.000040984   -0.000053607   -0.000000000
   9  :    0.000025396   -0.000058709   -0.000000001
  10  :    0.000016434    0.000042237   -0.000000001
  11  :   -0.000020045    0.000039088    0.000000000
  12  :   -0.000020046   -0.000039087    0.000000000
  13  :    0.000016430   -0.000042241   -0.000000001

  |G| =    0.001126826

done
gCP correction                   ... Starting D4
Starting D4
Starting D4
Starting D4
Starting D4
Starting D4
Starting D4
Starting D4
Starting D4
Starting D4
done

------------------
CARTESIAN GRADIENT
------------------

   1   N   :   -0.024439595    0.000006579    0.000003468
   2   C   :    0.030936361   -0.000026540   -0.000010783
   3   C   :   -0.012808862    0.000019915    0.000006507
   4   C   :    0.001087369   -0.002757224    0.000000990
   5   C   :    0.000165525   -0.001884121   -0.000000726
   6   C   :   -0.002289353   -0.000001053    0.000000007
   7   Br  :    0.006068410   -0.000000026    0.000000123
   8   C   :    0.000164061    0.001888945   -0.000000727
   9   C   :    0.001097494    0.002753577    0.000000992
  10   H   :   -0.000965451   -0.002208034    0.000000270
  11   H   :    0.000958235   -0.002348312   -0.000000196
  12   H   :    0.000959889    0.002347966   -0.000000196
  13   H   :   -0.000965142    0.002208330    0.000000270

Difference to translation invariance:
           :   -0.0000310586    0.0000000010    0.0000000004

Difference to rotation invariance:
           :    0.0000000018    0.0000001007   -0.0000001286

Norm of the cartesian gradient     ...    0.0425407312
RMS gradient                       ...    0.0068119687
MAX gradient                       ...    0.0309363613

-------
TIMINGS
-------

Total SCF gradient time            ...        0.563 sec

One electron gradient       ....       0.015 sec  (  2.7%)
RI-J Coulomb gradient       ....       0.174 sec  ( 30.9%)
XC gradient                 ....       0.239 sec  ( 42.5%)

Maximum memory used throughout the entire SCFGRAD-calculation: 30.2 MB
------------------------------------------------------------------------------
                         ORCA GEOMETRY RELAXATION STEP
------------------------------------------------------------------------------

Reading the OPT-File                    .... done
Getting information on internals        .... done
Copying old internal coords+grads       .... done
Making the new internal coordinates     .... (new redundants).... done
Validating the new internal coordinates .... (new redundants).... done
Calculating the B-matrix                .... done
Calculating the G,G- and P matrices     .... done
Transforming gradient to internals      .... done
Projecting the internal gradient        .... done
Number of atoms                         ....  13
Number of internal coordinates          ....  57
Current Energy                          .... -2897.949740857 Eh
Current gradient norm                   ....     0.042540731 Eh/bohr
Maximum allowed component of the step   ....  0.300
Current trust radius                    ....  0.300
Evaluating the initial hessian          ....  (Almloef) done
Projecting the Hessian                  .... done
Forming the augmented Hessian           .... done
Diagonalizing the augmented Hessian     .... done
Last element of RFO vector              ....  0.999344284
Lowest eigenvalues of augmented Hessian:
 -0.000903445  0.026320735  0.026670767  0.027207204  0.027376771
Length of the computed step             ....  0.036231527
The final length of the internal step   ....  0.036231527
Converting the step to cartesian space:
 Initial RMS(Int)=    0.0047989829
Transforming coordinates:
 Iter   0:  RMS(Cart)=    0.0069641432 RMS(Int)=    2.8829229537
 Iter   1:  RMS(Cart)=    0.0000022346 RMS(Int)=    0.0000013732
 Iter   2:  RMS(Cart)=    0.0000001283 RMS(Int)=    0.0000001242
 Iter   3:  RMS(Cart)=    0.0000000648 RMS(Int)=    0.0000000627
done
Storing new coordinates                 .... done

                                .--------------------.
          ----------------------|Geometry convergence|-------------------------
          Item                value                   Tolerance       Converged
          ---------------------------------------------------------------------
          RMS gradient        0.0038207072            0.0001000000      NO
          MAX gradient        0.0244372005            0.0003000000      NO
          RMS step            0.0047989829            0.0020000000      NO
          MAX step            0.0180271176            0.0040000000      NO
          ........................................................
          Max(Bonds)      0.0095      Max(Angles)    0.06
          Max(Dihed)        0.00      Max(Improp)    0.00
          ---------------------------------------------------------------------

The optimization has not yet converged - more geometry cycles are needed


    ---------------------------------------------------------------------------
                         Redundant Internal Coordinates
                            (Angstroem and degrees)

        Definition                    Value    dE/dq     Step     New-Value
    ----------------------------------------------------------------------------
     1. B(C   1,N   0)                1.1474 -0.024437  0.0095    1.1569   
     2. B(C   2,C   1)                1.4356  0.006502 -0.0065    1.4291   
     3. B(C   3,C   2)                1.3935 -0.005903  0.0051    1.3985   
     4. B(C   4,C   3)                1.3840 -0.003021  0.0025    1.3865   
     5. B(C   5,C   4)                1.3874 -0.004587  0.0038    1.3913   
     6. B(Br  6,C   5)                1.8890 -0.006071  0.0095    1.8985   
     7. B(C   7,C   5)                1.3874 -0.004587  0.0038    1.3913   
     8. B(C   8,C   7)                1.3840 -0.003020  0.0025    1.3865   
     9. B(C   8,C   2)                1.3934 -0.005908  0.0051    1.3985   
    10. B(H   9,C   3)                1.0814 -0.002392  0.0034    1.0848   
    11. B(H  10,C   4)                1.0808 -0.002511  0.0036    1.0843   
    12. B(H  11,C   7)                1.0808 -0.002511  0.0036    1.0843   
    13. B(H  12,C   8)                1.0814 -0.002392  0.0034    1.0848   
    14. L(N   0,C   1,C   2,C   3, 1) 179.97 -0.000037    0.00    179.98   
    15. L(N   0,C   1,C   2,C   3, 2) 180.02  0.000004   -0.00    180.02   
    16. A(C   1,C   2,C   8)          119.88 -0.000278    0.03    119.92   
    17. A(C   3,C   2,C   8)          120.23  0.000539   -0.06    120.17   
    18. A(C   1,C   2,C   3)          119.89 -0.000261    0.03    119.92   
    19. A(C   4,C   3,H   9)          120.30  0.000332   -0.05    120.25   
    20. A(C   2,C   3,H   9)          119.75 -0.000252    0.04    119.78   
    21. A(C   2,C   3,C   4)          119.95 -0.000080    0.02    119.97   
    22. A(C   3,C   4,C   5)          119.24  0.000027   -0.01    119.23   
    23. A(C   5,C   4,H  10)          120.19 -0.000385    0.06    120.26   
    24. A(C   3,C   4,H  10)          120.57  0.000358   -0.06    120.51   
    25. A(C   4,C   5,C   7)          121.38 -0.000433    0.05    121.43   
    26. A(C   4,C   5,Br  6)          119.31  0.000216   -0.02    119.29   
    27. A(Br  6,C   5,C   7)          119.31  0.000217   -0.02    119.29   
    28. A(C   5,C   7,C   8)          119.24  0.000030   -0.01    119.23   
    29. A(C   8,C   7,H  11)          120.57  0.000355   -0.06    120.51   
    30. A(C   5,C   7,H  11)          120.19 -0.000385    0.06    120.26   
    31. A(C   2,C   8,C   7)          119.95 -0.000082    0.02    119.97   
    32. A(C   7,C   8,H  12)          120.30  0.000333   -0.05    120.25   
    33. A(C   2,C   8,H  12)          119.75 -0.000251    0.04    119.79   
    34. D(H   9,C   3,C   2,C   1)     -0.00 -0.000001    0.00      0.00   
    35. D(H   9,C   3,C   2,C   8)    180.00 -0.000000    0.00    180.00   
    36. D(C   4,C   3,C   2,C   8)     -0.00 -0.000000    0.00      0.00   
    37. D(C   4,C   3,C   2,C   1)    180.00 -0.000001    0.00    180.00   
    38. D(H  10,C   4,C   3,C   2)   -180.00  0.000000   -0.00   -180.00   
    39. D(C   5,C   4,C   3,C   2)      0.00  0.000000   -0.00     -0.00   
    40. D(C   5,C   4,C   3,H   9)    180.00 -0.000000    0.00    180.00   
    41. D(H  10,C   4,C   3,H   9)      0.00 -0.000000    0.00      0.00   
    42. D(C   7,C   5,C   4,H  10)    180.00 -0.000000    0.00    180.00   
    43. D(C   7,C   5,C   4,C   3)     -0.00 -0.000000    0.00      0.00   
    44. D(Br  6,C   5,C   4,H  10)     -0.00 -0.000000    0.00      0.00   
    45. D(Br  6,C   5,C   4,C   3)    180.00 -0.000000    0.00    180.00   
    46. D(H  11,C   7,C   5,C   4)   -180.00  0.000000   -0.00   -180.00   
    47. D(C   8,C   7,C   5,Br  6)   -180.00  0.000000   -0.00   -180.00   
    48. D(C   8,C   7,C   5,C   4)      0.00  0.000000   -0.00     -0.00   
    49. D(H  11,C   7,C   5,Br  6)      0.00  0.000000   -0.00     -0.00   
    50. D(H  12,C   8,C   7,H  11)     -0.00  0.000000   -0.00     -0.00   
    51. D(C   2,C   8,C   7,H  11)    180.00 -0.000000    0.00    180.00   
    52. D(C   2,C   8,C   7,C   5)     -0.00 -0.000000    0.00      0.00   
    53. D(H  12,C   8,C   2,C   3)   -180.00  0.000000   -0.00   -180.00   
    54. D(H  12,C   8,C   2,C   1)      0.00  0.000001   -0.00     -0.00   
    55. D(H  12,C   8,C   7,C   5)   -180.00  0.000000   -0.00   -180.00   
    56. D(C   7,C   8,C   2,C   3)      0.00  0.000000   -0.00     -0.00   
    57. D(C   7,C   8,C   2,C   1)   -180.00  0.000001   -0.00   -180.00   
    ----------------------------------------------------------------------------

         *************************************************************
         *                GEOMETRY OPTIMIZATION CYCLE   2            *
         *************************************************************
---------------------------------
CARTESIAN COORDINATES (ANGSTROEM)
---------------------------------
  N      4.764732    0.000276    0.000150
  C      3.607851   -0.000147   -0.000057
  C      2.178754   -0.000120   -0.000052
  C      1.481285    1.212083   -0.000045
  C      0.094796    1.213401   -0.000016
  C     -0.585794   -0.000024   -0.000003
  Br    -2.484307    0.000049    0.000031
  C      0.094706   -1.213495   -0.000016
  C      1.481198   -1.212272   -0.000045
  H      2.028614    2.148715   -0.000053
  H     -0.454829    2.148111   -0.000005
  H     -0.454982   -2.148168   -0.000005
  H      2.028455   -2.148945   -0.000053

----------------------------
CARTESIAN COORDINATES (A.U.)
----------------------------
  NO LB      ZA    FRAG     MASS         X           Y           Z
   0 N     7.0000    0    14.007    9.004039    0.000521    0.000283
   1 C     6.0000    0    12.011    6.817850   -0.000278   -0.000107
   2 C     6.0000    0    12.011    4.117248   -0.000227   -0.000098
   3 C     6.0000    0    12.011    2.799223    2.290504   -0.000084
   4 C     6.0000    0    12.011    0.179139    2.292996   -0.000031
   5 C     6.0000    0    12.011   -1.106991   -0.000045   -0.000006
   6 Br   35.0000    0    79.900   -4.694660    0.000092    0.000059
   7 C     6.0000    0    12.011    0.178968   -2.293174   -0.000031
   8 C     6.0000    0    12.011    2.799058   -2.290861   -0.000085
   9 H     1.0000    0     1.008    3.833526    4.060482   -0.000100
  10 H     1.0000    0     1.008   -0.859503    4.059341   -0.000010
  11 H     1.0000    0     1.008   -0.859791   -4.059450   -0.000010
  12 H     1.0000    0     1.008    3.833225   -4.060918   -0.000100

--------------------------------
INTERNAL COORDINATES (ANGSTROEM)
--------------------------------
 N      0   0   0     0.000000000000     0.00000000     0.00000000
 C      1   0   0     1.156881327900     0.00000000     0.00000000
 C      2   1   0     1.429097435362   179.97563616     0.00000000
 C      3   2   1     1.398534013380   119.91604631    25.29888742
 C      4   3   2     1.386489470448   119.96944709   180.00114165
 C      5   4   3     1.391260033215   119.23287365     0.00000000
 Br     6   5   4     1.898512541343   119.28517279   180.00015215
 C      6   5   4     1.391255934489   121.42944122     0.00000000
 C      8   6   5     1.386492486160   119.23263472     0.00000000
 H      4   3   2     1.084826558505   119.78477311     0.00000000
 H      5   4   3     1.084329125114   120.51076144   179.99968152
 H      8   6   5     1.084329280193   120.25672829   179.99996195
 H      9   8   6     1.084826413253   120.24530655   179.99985384

---------------------------
INTERNAL COORDINATES (A.U.)
---------------------------
 N      0   0   0     0.000000000000     0.00000000     0.00000000
 C      1   0   0     2.186188879177     0.00000000     0.00000000
 C      2   1   0     2.700602771524   179.97563616     0.00000000
 C      3   2   1     2.642846274261   119.91604631    25.29888742
 C      4   3   2     2.620085386712   119.96944709   180.00114165
 C      5   4   3     2.629100443846   119.23287365     0.00000000
 Br     6   5   4     3.587668764954   119.28517279   180.00015215
 C      6   5   4     2.629092698377   121.42944122     0.00000000
 C      8   6   5     2.620091085582   119.23263472     0.00000000
 H      4   3   2     2.050025098378   119.78477311     0.00000000
 H      5   4   3     2.049085085500   120.51076144   179.99968152
 H      8   6   5     2.049085378556   120.25672829   179.99996195
 H      9   8   6     2.050024823893   120.24530655   179.99985384



           ************************************************************
           *        Program running with 16 parallel MPI-processes    *
           *              working on a common directory               *
           ************************************************************
------------------------------------------------------------------------------
                   ___                                                        
                  /   \      - P O W E R E D   B Y -                         
                 /     \                                                     
                 |  |  |   _    _      __       _____    __    __             
                 |  |  |  | |  | |    /  \     |  _  \  |  |  /  |          
                  \  \/   | |  | |   /    \    | | | |  |  | /  /          
                 / \  \   | |__| |  /  /\  \   | |_| |  |  |/  /          
                |  |  |   |  __  | /  /__\  \  |    /   |      \           
                |  |  |   | |  | | |   __   |  |    \   |  |\   \          
                \     /   | |  | | |  |  |  |  | |\  \  |  | \   \       
                 \___/    |_|  |_| |__|  |__|  |_| \__\ |__|  \__/        
                                                                              
                      - O R C A' S   B I G   F R I E N D -                    
                                      &                                       
                       - I N T E G R A L  F E E D E R -                       
                                                                              
 v1 FN, 2020, v2 2021                                                         
------------------------------------------------------------------------------


Reading SHARK input file /tmp/254450/arbr_08_r2scan3c.SHARKINP.tmp ... ok
----------------------
SHARK INTEGRAL PACKAGE
----------------------

Number of atoms                             ...     13
Number of basis functions                   ...    213
Number of shells                            ...     99
Maximum angular momentum                    ...      2
Integral batch strategy                     ... SHARK/LIBINT Hybrid
RI-J (if used) integral strategy            ... SPLIT-RIJ (Revised 2003 algorithm where possible)
Printlevel                                  ...      1
Contraction scheme used                     ... SEGMENTED contraction
Coulomb Range Separation                    ... NOT USED
Exchange Range Separation                   ... NOT USED
Finite Nucleus Model                        ... NOT USED
Auxiliary Coulomb fitting basis             ... AVAILABLE
   # of basis functions in Aux-J            ...    342
   # of shells in Aux-J                     ...    134
   Maximum angular momentum in Aux-J        ...      4
Auxiliary J/K fitting basis                 ... NOT available
Auxiliary Correlation fitting basis         ... NOT available
[...]
     19      -0.000000   0.000000   0.000000   0.000000  -0.000000  -0.000000
     20       0.000000  -0.002536   0.000001  -0.000638   0.000000   0.000000
     21      -0.111604  -0.000000   0.000002  -0.000001   0.000002  -0.025260
     22      -0.303088   0.000004   0.000000   0.000000  -0.000000  -0.176311
     23      -0.000003  -0.075256   0.076110  -0.064947   0.083065  -0.000001
     24      -0.058061  -0.000001   0.000002   0.000001  -0.000002  -0.089735
     25      -0.260840   0.000002  -0.000000   0.000000  -0.000000   0.294520
     26       0.000001  -0.075893   0.070787   0.079392  -0.090263   0.000002
     27       0.129891   0.000007   0.000008  -0.000010  -0.000010   0.144364
     28       0.164950  -0.000000  -0.000000  -0.000001  -0.000001  -0.444225
     29       0.000011   0.404748   0.469129  -0.536138  -0.515577   0.000007
     30      -0.442345   0.000016   0.000011   0.000009   0.000010   0.201032
     31       0.117078  -0.000002   0.000001  -0.000001   0.000000   0.304610
     32       0.000024   0.560993   0.518423   0.448970   0.468061  -0.000003
     33      -0.442341   0.000016  -0.000011   0.000009  -0.000010   0.201010
     34      -0.117048   0.000002   0.000001   0.000001   0.000000  -0.304615
     35       0.000024   0.560527  -0.518843   0.448920  -0.468113  -0.000003
     36       0.129875   0.000007  -0.000008  -0.000010   0.000010   0.144372
     37      -0.164958   0.000000  -0.000000   0.000001  -0.000001   0.444210
     38       0.000011   0.404331  -0.469433  -0.536083   0.515635   0.000007
                 24         25         26         27         28         29    
      0      -0.012719  -0.000001  -0.037818  -0.122857   0.000003   0.000022
      1      -0.000003   0.003320  -0.000007  -0.000022  -0.002174  -0.012876
      2      -0.000002  -0.000000  -0.000005  -0.000018   0.000000   0.000000
      3      -0.007674   0.000003  -0.017021  -0.047636  -0.000000   0.000001
      4       0.000003  -0.017866   0.000007   0.000027   0.012103   0.045883
      5       0.000002   0.000000   0.000005   0.000019  -0.000000  -0.000000
      6       0.017960  -0.000001   0.111451   0.341385  -0.000006  -0.000037
      7      -0.000001   0.057624  -0.000007  -0.000022  -0.102764  -0.479073
      8       0.000001   0.000000   0.000001   0.000001   0.000000   0.000000
      9       0.088490  -0.069879  -0.032174   0.084093   0.023811  -0.209898
     10       0.032806  -0.036876   0.025015  -0.022728  -0.009808   0.217290
     11      -0.000001   0.000002   0.000000  -0.000003  -0.000001   0.000003
     12      -0.024795   0.068790   0.017434  -0.113622   0.037199   0.202761
     13       0.150011  -0.037366   0.047837   0.058329   0.012323   0.211608
     14      -0.000001  -0.000001  -0.000000   0.000002  -0.000001  -0.000005
     15      -0.325736   0.000001   0.017200  -0.006061   0.000003  -0.000004
     16       0.000006   0.052028  -0.000002  -0.000006   0.093125  -0.472573
     17       0.000006   0.000000  -0.000000  -0.000000   0.000000  -0.000000
     18       0.012622  -0.000000  -0.000568   0.001695  -0.000000  -0.000003
     19      -0.000000  -0.001201  -0.000000  -0.000000  -0.000652   0.000685
     20      -0.000000  -0.000000   0.000000  -0.000000   0.000000   0.000000
     21      -0.024802  -0.068794   0.017426  -0.113641  -0.037197  -0.202733
     22      -0.150008  -0.037364  -0.047836  -0.058316   0.012325   0.211638
     23      -0.000001   0.000001  -0.000000   0.000002   0.000001   0.000005
     24       0.088486   0.069881  -0.032172   0.084107  -0.023813   0.209883
     25      -0.032808  -0.036878  -0.025008   0.022740  -0.009806   0.217272
     26      -0.000001  -0.000002   0.000000  -0.000003   0.000001  -0.000003
     27       0.370433  -0.454638  -0.506861   0.025657  -0.426967  -0.048605
     28      -0.120996   0.178400   0.304675   0.026134   0.251793   0.138401
     29      -0.000011   0.000008   0.000009   0.000002   0.000008  -0.000003
     30       0.338195   0.460535   0.302752  -0.601340  -0.420854   0.172756
     31       0.385144   0.183913   0.217151  -0.214881  -0.255497   0.209603
     32      -0.000003  -0.000010  -0.000006   0.000014   0.000009  -0.000001
     33       0.338184  -0.460527   0.302729  -0.601328   0.420849  -0.172649
     34      -0.385164   0.183934  -0.217162   0.214908  -0.255521   0.209589
     35      -0.000003   0.000010  -0.000006   0.000014  -0.000009   0.000001
     36       0.370430   0.454666  -0.506857   0.025671   0.426993   0.048729
     37       0.120974   0.178386  -0.304632  -0.026116   0.251778   0.138479
     38      -0.000011  -0.000008   0.000009   0.000002  -0.000008   0.000003
                 30         31         32         33         34         35    
      0       0.000003   0.029474   0.000007  -0.025227  -0.580203   0.000316
      1      -0.004239   0.000005  -0.006709  -0.000004  -0.000108  -0.000000
      2       0.000000   0.000005   0.000000  -0.000003  -0.000098   0.000000
      3      -0.000004   0.004635  -0.000004  -0.007803   0.805485  -0.000065
      4       0.028450  -0.000006   0.025905   0.000001   0.000127   0.000001
      5      -0.000000  -0.000004  -0.000000   0.000002   0.000114  -0.000000
      6      -0.000005  -0.136127  -0.000013   0.224504  -0.117293  -0.002286
      7      -0.128233   0.000013  -0.349638   0.000027  -0.000002  -0.000007
      8       0.000000   0.000001   0.000000  -0.000002  -0.000001  -0.000000
      9       0.187348   0.054773  -0.123531  -0.305036  -0.013663  -0.024170
     10       0.026361  -0.094564   0.225600   0.091153   0.006149  -0.044623
     11      -0.000004  -0.000000   0.000001   0.000006   0.000001   0.000001
     12      -0.189562   0.124571  -0.097329   0.261722   0.009418  -0.014988
     13       0.011631   0.108880  -0.241601   0.052516   0.001876   0.029565
     14       0.000004  -0.000003   0.000002  -0.000006   0.000001   0.000000
     15      -0.000007  -0.126079  -0.000017  -0.118052  -0.004440  -0.001687
     16      -0.096155  -0.000014   0.384103  -0.000018  -0.000000   0.000002
     17      -0.000000   0.000002   0.000000   0.000002  -0.000000   0.000000
     18       0.000001   0.001348   0.000001  -0.001378   0.000051   0.000043
     19       0.001996  -0.000000  -0.001581  -0.000000   0.000000  -0.000000
     20       0.000000   0.000000   0.000000   0.000000  -0.000000  -0.000000
     21       0.189567   0.124548   0.097393   0.261703   0.009417  -0.015055
     22       0.011619  -0.108863  -0.241639  -0.052500  -0.001877  -0.029692
     23      -0.000004  -0.000003  -0.000002  -0.000006   0.000001   0.000000
     24      -0.187347   0.054777   0.123497  -0.305058  -0.013664  -0.024295
     25       0.026373   0.094546   0.225603  -0.091174  -0.006146   0.044849
     26       0.000004  -0.000000  -0.000001   0.000006   0.000001   0.000001
     27      -0.311758  -0.409522   0.358320   0.348792   0.002054   0.291865
     28       0.340074   0.159518  -0.035373  -0.294990  -0.005392   0.506585
     29       0.000006   0.000007  -0.000009  -0.000006  -0.000007  -0.000006
     30       0.310556  -0.451023   0.316957  -0.190324   0.004026   0.194885
     31       0.324920  -0.215593  -0.024232  -0.223514  -0.004885  -0.337788
     32      -0.000006   0.000010  -0.000007   0.000004   0.000001  -0.000004
     33      -0.310573  -0.450978  -0.317084  -0.190272   0.004023   0.195748
     34       0.324957   0.215610  -0.024131   0.223521   0.004885   0.339244
     35       0.000006   0.000010   0.000007   0.000004   0.000001  -0.000004
     36       0.311768  -0.409510  -0.358346   0.348861   0.002050   0.293330
     37       0.340055  -0.159499  -0.035323   0.294969   0.005395  -0.509182
     38      -0.000006   0.000007   0.000009  -0.000006  -0.000007  -0.000006
                 36         37         38    
      0      -0.000001   0.000000   0.000094
      1      -0.000096   0.000070   0.000000
      2      -0.000000  -0.000000   0.000000
      3       0.000000  -0.000000   0.000228
      4       0.000395  -0.000241   0.000000
      5       0.000000  -0.000000  -0.000000
      6       0.000005  -0.000000  -0.002180
      7      -0.002605   0.002801  -0.000000
      8       0.000000  -0.000000   0.000000
      9       0.025439  -0.018753  -0.019037
     10       0.045001  -0.028360  -0.029966
     11      -0.000001   0.000000   0.000000
     12       0.014783   0.027848   0.026937
     13      -0.028509  -0.045100  -0.045020
     14      -0.000000  -0.000001  -0.000001
     15       0.000004   0.000000   0.003235
     16       0.001138   0.003612  -0.000001
     17      -0.000000   0.000000  -0.000000
     18      -0.000000  -0.000000  -0.000070
     19       0.000002   0.000004   0.000000
     20       0.000000  -0.000000   0.000000
     21      -0.014706  -0.027846   0.026950
     22      -0.028354  -0.045093   0.045037
     23       0.000000   0.000001  -0.000001
     24      -0.025323   0.018741  -0.019035
     25       0.044792  -0.028342   0.029965
     26       0.000001  -0.000000   0.000000
     27      -0.298639   0.190326   0.196819
     28      -0.516577   0.324170   0.336490
     29       0.000006  -0.000004  -0.000004
     30      -0.188985  -0.301554  -0.296491
     31       0.327058   0.513730   0.505935
     32       0.000004   0.000006   0.000006
     33       0.187986   0.301542  -0.296644
     34       0.325292   0.513650  -0.506138
     35      -0.000004  -0.000006   0.000006
     36       0.297232  -0.190184   0.196789
     37      -0.514199   0.323966  -0.336478
     38      -0.000006   0.000004  -0.000004


-----------
IR SPECTRUM
-----------

 Mode   freq       eps      Int      T**2         TX        TY        TZ
       cm**-1   L/(mol*cm) km/mol    a.u.
----------------------------------------------------------------------------
  6:     73.52   0.000759    3.84  0.003222  (-0.000008  0.000000  0.056766)
  7:    130.08   0.001283    6.49  0.003079  (-0.000010  0.055490 -0.000000)
  8:    215.70   0.000534    2.70  0.000773  ( 0.000003  0.000000 -0.027800)
  9:    262.59   0.000074    0.38  0.000088  (-0.000067 -0.009396  0.000000)
 10:    273.89   0.000402    2.03  0.000458  (-0.021398  0.000029  0.000004)
 11:    403.13   0.000000    0.00  0.000000  ( 0.000000 -0.000000 -0.000001)
 12:    430.46   0.000521    2.63  0.000378  ( 0.000025  0.000000  0.019439)
 13:    541.12   0.003769   19.05  0.002174  ( 0.000055 -0.000000 -0.046623)
 14:    548.61   0.002456   12.41  0.001397  ( 0.037380 -0.000004  0.000040)
 15:    559.49   0.000016    0.08  0.000009  (-0.000042 -0.002944  0.000000)
 16:    653.72   0.000012    0.06  0.000006  ( 0.000001  0.002381  0.000000)
 17:    699.85   0.000113    0.57  0.000050  (-0.000007 -0.000000  0.007103)
 18:    789.63   0.001716    8.67  0.000678  ( 0.026039 -0.000001 -0.000000)
 19:    829.40   0.011194   56.57  0.004212  (-0.000000 -0.000000  0.064899)
 20:    832.13   0.000000    0.00  0.000000  (-0.000000 -0.000005 -0.000027)
 21:    957.03   0.000141    0.71  0.000046  ( 0.000011  0.000000 -0.006791)
 22:    969.95   0.000000    0.00  0.000000  (-0.000000  0.000001  0.000001)
 23:   1033.52   0.007686   38.84  0.002321  ( 0.048175 -0.000001 -0.000000)
 24:   1081.27   0.008657   43.75  0.002499  (-0.049985  0.000001  0.000001)
 25:   1133.72   0.001073    5.42  0.000295  ( 0.000003  0.017189  0.000000)
 26:   1202.34   0.000177    0.89  0.000046  (-0.006780  0.000000 -0.000000)
 27:   1226.44   0.000006    0.03  0.000002  ( 0.001233 -0.000000  0.000000)
 28:   1320.94   0.000029    0.15  0.000007  (-0.000003 -0.002627 -0.000000)
 29:   1331.98   0.000282    1.42  0.000066  (-0.000003 -0.008123 -0.000000)
 30:   1424.83   0.001931    9.76  0.000423  (-0.000005  0.020563  0.000000)
 31:   1509.17   0.011358   57.40  0.002349  (-0.048462  0.000001  0.000001)
 32:   1590.16   0.000045    0.22  0.000009  (-0.000012  0.002956 -0.000000)
 33:   1622.46   0.010208   51.59  0.001963  (-0.044310  0.000000  0.000001)
 34:   2318.39   0.007392   37.35  0.000995  ( 0.031543 -0.000004 -0.000002)
 35:   3193.28   0.000009    0.05  0.000001  (-0.000950  0.000007  0.000000)
 36:   3193.78   0.000059    0.30  0.000006  ( 0.000001  0.002404 -0.000000)
 37:   3206.95   0.000003    0.01  0.000000  ( 0.000000  0.000508  0.000000)
 38:   3208.47   0.000011    0.06  0.000001  (-0.001034  0.000000  0.000000)

* The epsilon (eps) is given for a Dirac delta lineshape.
** The dipole moment derivative (T) already includes vibrational overlap.

The first frequency considered to be a vibration is 6
The total number of vibrations considered is 33


--------------------------
THERMOCHEMISTRY AT 298.15K
--------------------------

Temperature         ... 298.15 K
Pressure            ... 1.00 atm
Total Mass          ... 182.02 AMU

Throughout the following assumptions are being made:
  (1) The electronic state is orbitally nondegenerate
  (2) There are no thermally accessible electronically excited states
  (3) Hindered rotations indicated by low frequency modes are not
      treated as such but are treated as vibrations and this may
      cause some error
  (4) All equations used are the standard statistical mechanics
      equations for an ideal gas
  (5) All vibrations are strictly harmonic

freq.      73.52  E(vib)   ...       0.49 
freq.     130.08  E(vib)   ...       0.43 
freq.     215.70  E(vib)   ...       0.34 
freq.     262.59  E(vib)   ...       0.29 
freq.     273.89  E(vib)   ...       0.28 
freq.     403.13  E(vib)   ...       0.19 
freq.     430.46  E(vib)   ...       0.18 
freq.     541.12  E(vib)   ...       0.12 
freq.     548.61  E(vib)   ...       0.12 
freq.     559.49  E(vib)   ...       0.12 
freq.     653.72  E(vib)   ...       0.08 
freq.     699.85  E(vib)   ...       0.07 
freq.     789.63  E(vib)   ...       0.05 
freq.     829.40  E(vib)   ...       0.04 
freq.     832.13  E(vib)   ...       0.04 
freq.     957.03  E(vib)   ...       0.03 
freq.     969.95  E(vib)   ...       0.03 
freq.    1033.52  E(vib)   ...       0.02 
freq.    1081.27  E(vib)   ...       0.02 
freq.    1133.72  E(vib)   ...       0.01 
freq.    1202.34  E(vib)   ...       0.01 
freq.    1226.44  E(vib)   ...       0.01 
freq.    1320.94  E(vib)   ...       0.01 
freq.    1331.98  E(vib)   ...       0.01 
freq.    1424.83  E(vib)   ...       0.00 
freq.    1509.17  E(vib)   ...       0.00 
freq.    1590.16  E(vib)   ...       0.00 
freq.    1622.46  E(vib)   ...       0.00 
freq.    2318.39  E(vib)   ...       0.00 
freq.    3193.28  E(vib)   ...       0.00 
freq.    3193.78  E(vib)   ...       0.00 
freq.    3206.95  E(vib)   ...       0.00 
freq.    3208.47  E(vib)   ...       0.00 

------------
INNER ENERGY
------------

The inner energy is: U= E(el) + E(ZPE) + E(vib) + E(rot) + E(trans)
    E(el)   - is the total energy from the electronic structure calculation
              = E(kin-el) + E(nuc-el) + E(el-el) + E(nuc-nuc)
    E(ZPE)  - the the zero temperature vibrational energy from the frequency calculation
    E(vib)  - the the finite temperature correction to E(ZPE) due to population
              of excited vibrational states
    E(rot)  - is the rotational thermal energy
    E(trans)- is the translational thermal energy

Summary of contributions to the inner energy U:
Electronic energy                ...  -2897.95031418 Eh
Zero point energy                ...      0.08831997 Eh      55.42 kcal/mol
Thermal vibrational correction   ...      0.00478415 Eh       3.00 kcal/mol
Thermal rotational correction    ...      0.00141627 Eh       0.89 kcal/mol
Thermal translational correction ...      0.00141627 Eh       0.89 kcal/mol
-----------------------------------------------------------------------
Total thermal energy                  -2897.85437751 Eh


Summary of corrections to the electronic energy:
(perhaps to be used in another calculation)
Total thermal correction                  0.00761669 Eh       4.78 kcal/mol
Non-thermal (ZPE) correction              0.08831997 Eh      55.42 kcal/mol
-----------------------------------------------------------------------
Total correction                          0.09593667 Eh      60.20 kcal/mol


--------
ENTHALPY
--------

The enthalpy is H = U + kB*T
                kB is Boltzmann's constant
Total free energy                 ...  -2897.85437751 Eh 
Thermal Enthalpy correction       ...      0.00094421 Eh       0.59 kcal/mol
-----------------------------------------------------------------------
Total Enthalpy                    ...  -2897.85343330 Eh


Note: Only C1 symmetry has been detected, increase convergence thresholds 
      if your molecule has a higher symmetry. Symmetry factor of 1.0 is   
      used for the rotational entropy correction. 
 

Note: Rotational entropy computed according to Herzberg 
Infrared and Raman Spectra, Chapter V,1, Van Nostrand Reinhold, 1945 
Point Group:  C1, Symmetry Number:   1  
Rotational constants in cm-1:     0.188505     0.015503     0.014324 

Vibrational entropy computed according to the QRRHO of S. Grimme
Chem.Eur.J. 2012 18 9955


-------
ENTROPY
-------

The entropy contributions are T*S = T*(S(el)+S(vib)+S(rot)+S(trans))
     S(el)   - electronic entropy
     S(vib)  - vibrational entropy
     S(rot)  - rotational entropy
     S(trans)- translational entropy
The entropies will be listed as multiplied by the temperature to get
units of energy

Electronic entropy                ...      0.00000000 Eh      0.00 kcal/mol
Vibrational entropy               ...      0.00795306 Eh      4.99 kcal/mol
Rotational entropy                ...      0.01427003 Eh      8.95 kcal/mol
Translational entropy             ...      0.01971948 Eh     12.37 kcal/mol
-----------------------------------------------------------------------
Final entropy term                ...      0.04194258 Eh     26.32 kcal/mol

In case the symmetry of your molecule has not been determined correctly
or in case you have a reason to use a different symmetry number we print 
out the resulting rotational entropy values for sn=1,12 :
 --------------------------------------------------------
|  sn= 1 | S(rot)=       0.01427003 Eh      8.95 kcal/mol|
|  sn= 2 | S(rot)=       0.01361558 Eh      8.54 kcal/mol|
|  sn= 3 | S(rot)=       0.01323274 Eh      8.30 kcal/mol|
|  sn= 4 | S(rot)=       0.01296112 Eh      8.13 kcal/mol|
|  sn= 5 | S(rot)=       0.01275043 Eh      8.00 kcal/mol|
|  sn= 6 | S(rot)=       0.01257829 Eh      7.89 kcal/mol|
|  sn= 7 | S(rot)=       0.01243274 Eh      7.80 kcal/mol|
|  sn= 8 | S(rot)=       0.01230666 Eh      7.72 kcal/mol|
|  sn= 9 | S(rot)=       0.01219546 Eh      7.65 kcal/mol|
|  sn=10 | S(rot)=       0.01209598 Eh      7.59 kcal/mol|
|  sn=11 | S(rot)=       0.01200599 Eh      7.53 kcal/mol|
|  sn=12 | S(rot)=       0.01192383 Eh      7.48 kcal/mol|
 --------------------------------------------------------


-------------------
GIBBS FREE ENERGY
-------------------

The Gibbs free energy is G = H - T*S

Total enthalpy                    ...  -2897.85343330 Eh 
Total entropy correction          ...     -0.04194258 Eh    -26.32 kcal/mol
-----------------------------------------------------------------------
Final Gibbs free energy         ...  -2897.89537588 Eh

For completeness - the Gibbs free energy minus the electronic energy
G-E(el)                           ...      0.05493830 Eh     34.47 kcal/mol


Timings for individual modules:

Sum of individual times         ...       43.860 sec (=   0.731 min)
GTO integral calculation        ...        1.929 sec (=   0.032 min)   4.4 %
SCF iterations                  ...       11.653 sec (=   0.194 min)  26.6 %
SCF Gradient evaluation         ...        3.371 sec (=   0.056 min)   7.7 %
Geometry relaxation             ...        0.077 sec (=   0.001 min)   0.2 %
Analytical frequency calculation...       26.832 sec (=   0.447 min)  61.2 %
                             ****ORCA TERMINATED NORMALLY****
TOTAL RUN TIME: 0 days 0 hours 0 minutes 45 seconds 228 msec
