Job Start Time: Thu Apr 18 14:07:09 MDT 2024
SLURM Job ID: 254457
SLURM Job Name: arbr_15_r2scan3c
SLURM Job Nodes: node16
SLURM Memory / CPU: 8000

                                 *****************
                                 * O   R   C   A *
                                 *****************

                                            #,                                       
                                            ###                                      
                                            ####                                     
                                            #####                                    
                                            ######                                   
                                           ########,                                 
                                     ,,################,,,,,                         
                               ,,#################################,,                 
                          ,,##########################################,,             
                       ,#########################################, ''#####,          
                    ,#############################################,,   '####,        
                  ,##################################################,,,,####,       
                ,###########''''           ''''###############################       
              ,#####''   ,,,,##########,,,,          '''####'''          '####       
            ,##' ,,,,###########################,,,                        '##       
           ' ,,###''''                  '''############,,,                           
         ,,##''                                '''############,,,,        ,,,,,,###''
      ,#''                                            '''#######################'''  
     '                                                          ''''####''''         
             ,#######,   #######,   ,#######,      ##                                
            ,#'     '#,  ##    ##  ,#'     '#,    #''#        ######   ,####,        
            ##       ##  ##   ,#'  ##            #'  '#       #        #'  '#        
            ##       ##  #######   ##           ,######,      #####,   #    #        
            '#,     ,#'  ##    ##  '#,     ,#' ,#      #,         ##   #,  ,#        
             '#######'   ##     ##  '#######'  #'      '#     #####' # '####'        



                  #######################################################
                  #                        -***-                        #
                  #          Department of theory and spectroscopy      #
                  #    Directorship and core code : Frank Neese         #
                  #        Max Planck Institute fuer Kohlenforschung    #
                  #                Kaiser Wilhelm Platz 1               #
                  #                 D-45470 Muelheim/Ruhr               #
                  #                      Germany                        #
                  #                                                     #
                  #                  All rights reserved                #
                  #                        -***-                        #
                  #######################################################


                         Program Version 5.0.3 -  RELEASE  -


 With contributions from (in alphabetic order):
   Daniel Aravena         : Magnetic Suceptibility
   Michael Atanasov       : Ab Initio Ligand Field Theory (pilot matlab implementation)
   Alexander A. Auer      : GIAO ZORA, VPT2 properties, NMR spectrum
   Ute Becker             : Parallelization
   Giovanni Bistoni       : ED, misc. LED, open-shell LED, HFLD
   Martin Brehm           : Molecular dynamics
   Dmytro Bykov           : SCF Hessian
   Vijay G. Chilkuri      : MRCI spin determinant printing, contributions to CSF-ICE
   Dipayan Datta          : RHF DLPNO-CCSD density
   Achintya Kumar Dutta   : EOM-CC, STEOM-CC
   Dmitry Ganyushin       : Spin-Orbit,Spin-Spin,Magnetic field MRCI
   Miquel Garcia          : C-PCM and meta-GGA Hessian, CC/C-PCM, Gaussian charge scheme
   Yang Guo               : DLPNO-NEVPT2, F12-NEVPT2, CIM, IAO-localization
   Andreas Hansen         : Spin unrestricted coupled pair/coupled cluster methods
   Benjamin Helmich-Paris : MC-RPA, TRAH-SCF, COSX integrals
   Lee Huntington         : MR-EOM, pCC
   Robert Izsak           : Overlap fitted RIJCOSX, COSX-SCS-MP3, EOM
   Marcus Kettner         : VPT2
   Christian Kollmar      : KDIIS, OOCD, Brueckner-CCSD(T), CCSD density, CASPT2, CASPT2-K
   Simone Kossmann        : Meta GGA functionals, TD-DFT gradient, OOMP2, MP2 Hessian
   Martin Krupicka        : Initial AUTO-CI
   Lucas Lang             : DCDCAS
   Marvin Lechner         : AUTO-CI (C++ implementation), FIC-MRCC
   Dagmar Lenk            : GEPOL surface, SMD
   Dimitrios Liakos       : Extrapolation schemes; Compound Job, initial MDCI parallelization
   Dimitrios Manganas     : Further ROCIS development; embedding schemes
   Dimitrios Pantazis     : SARC Basis sets
   Anastasios Papadopoulos: AUTO-CI, single reference methods and gradients
   Taras Petrenko         : DFT Hessian,TD-DFT gradient, ASA, ECA, R-Raman, ABS, FL, XAS/XES, NRVS
   Peter Pinski           : DLPNO-MP2, DLPNO-MP2 Gradient
   Christoph Reimann      : Effective Core Potentials
   Marius Retegan         : Local ZFS, SOC
   Christoph Riplinger    : Optimizer, TS searches, QM/MM, DLPNO-CCSD(T), (RO)-DLPNO pert. Triples
   Tobias Risthaus        : Range-separated hybrids, TD-DFT gradient, RPA, STAB
   Michael Roemelt        : Original ROCIS implementation
   Masaaki Saitow         : Open-shell DLPNO-CCSD energy and density
   Barbara Sandhoefer     : DKH picture change effects
   Avijit Sen             : IP-ROCIS
   Kantharuban Sivalingam : CASSCF convergence, NEVPT2, FIC-MRCI
   Bernardo de Souza      : ESD, SOC TD-DFT
   Georgi Stoychev        : AutoAux, RI-MP2 NMR, DLPNO-MP2 response
   Willem Van den Heuvel  : Paramagnetic NMR
   Boris Wezisla          : Elementary symmetry handling
   Frank Wennmohs         : Technical directorship


 We gratefully acknowledge several colleagues who have allowed us to
 interface, adapt or use parts of their codes:
   Stefan Grimme, W. Hujo, H. Kruse, P. Pracht,  : VdW corrections, initial TS optimization,
                  C. Bannwarth, S. Ehlert          DFT functionals, gCP, sTDA/sTD-DF
   Ed Valeev, F. Pavosevic, A. Kumar             : LibInt (2-el integral package), F12 methods
   Garnet Chan, S. Sharma, J. Yang, R. Olivares  : DMRG
   Ulf Ekstrom                                   : XCFun DFT Library
   Mihaly Kallay                                 : mrcc  (arbitrary order and MRCC methods)
   Jiri Pittner, Ondrej Demel                    : Mk-CCSD
   Frank Weinhold                                : gennbo (NPA and NBO analysis)
   Christopher J. Cramer and Donald G. Truhlar   : smd solvation model
   Lars Goerigk                                  : TD-DFT with DH, B97 family of functionals
   V. Asgeirsson, H. Jonsson                     : NEB implementation
   FAccTs GmbH                                   : IRC, NEB, NEB-TS, DLPNO-Multilevel, CI-OPT
                                                   MM, QMMM, 2- and 3-layer-ONIOM, Crystal-QMMM,
                                                   LR-CPCM, SF, NACMEs, symmetry and pop. for TD-DFT,
                                                   nearIR, NL-DFT gradient (VV10), updates on ESD,
                                                   ML-optimized integration grids
   S Lehtola, MJT Oliveira, MAL Marques          : LibXC Library
   Liviu Ungur et al                             : ANISO software


 Your calculation uses the libint2 library for the computation of 2-el integrals
 For citations please refer to: http://libint.valeyev.net

 Your ORCA version has been built with support for libXC version: 5.1.0
 For citations please refer to: https://tddft.org/programs/libxc/

 This ORCA versions uses:
   CBLAS   interface :  Fast vector & matrix operations
   LAPACKE interface :  Fast linear algebra routines
   SCALAPACK package :  Parallel linear algebra routines
   Shared memory     :  Shared parallel matrices
   BLAS/LAPACK       :  OpenBLAS 0.3.15  USE64BITINT DYNAMIC_ARCH NO_AFFINITY Zen SINGLE_THREADED
        Core in use  :  Zen
   Copyright (c) 2011-2014, The OpenBLAS Project


Your calculation utilizes the geometrical counterpoise correction gCP
Please cite in your paper:
H.Kruse, S. Grimme J.Chem.Phys., 136, (2012), 154101 
   

Your calculation utilizes the atom-pairwise dispersion correction
based on tight binding partial charges (D4)
Cite in your paper:
E.Caldeweyher, C.Bannwarth, S.Grimme, J.Chem.Phys., (2017), 147, 034112.
E.Caldeweyher, S.Ehlert, A.Hansen, H.Neugebauer, S.Grimme, J.Chem.Phys., (2018), in progress.
   

================================================================================

----- Orbital basis set information -----
Your calculation utilizes the basis: def2-mTZVPP
   Stefan Grimme, Andreas Hansen, Sebastian Ehlert, and Jan-Michael Mewes 
   J. Chem. Phys. 154, 000000 (2021). DOI: 10.1063/5.0040021

----- AuxJ basis set information -----
Your calculation utilizes the basis: def2-mTZVPP/J
   Stefan Grimme, Andreas Hansen, Sebastian Ehlert, and Jan-Michael Mewes 
   J. Chem. Phys. 154, 000000 (2021). DOI: 10.1063/5.0040021

================================================================================
                                        WARNINGS
                       Please study these warnings very carefully!
================================================================================

Using LibXC functional ID 497 : Re-regularized SCAN exchange by Furness et al
[ 1]  J. W. Furness, A. D. Kaplan, J. Ning, J. P. Perdew, and J. Sun, J. Phys. Chem. Lett. 11, 8208 (2020)
[ 2]  J. W. Furness, A. D. Kaplan, J. Ning, J. P. Perdew, and J. Sun, J. Phys. Chem. Lett. 11, 9248 (2020)
Using LibXC functional ID 498 : Re-regularized SCAN correlation by Furness et al
[ 1]  J. W. Furness, A. D. Kaplan, J. Ning, J. P. Perdew, and J. Sun, J. Phys. Chem. Lett. 11, 8208 (2020)
[ 2]  J. W. Furness, A. D. Kaplan, J. Ning, J. P. Perdew, and J. Sun, J. Phys. Chem. Lett. 11, 9248 (2020)
Using LibXC functional ID 497 : Re-regularized SCAN exchange by Furness et al
[ 1]  J. W. Furness, A. D. Kaplan, J. Ning, J. P. Perdew, and J. Sun, J. Phys. Chem. Lett. 11, 8208 (2020)
[ 2]  J. W. Furness, A. D. Kaplan, J. Ning, J. P. Perdew, and J. Sun, J. Phys. Chem. Lett. 11, 9248 (2020)
Using LibXC functional ID 498 : Re-regularized SCAN correlation by Furness et al
[ 1]  J. W. Furness, A. D. Kaplan, J. Ning, J. P. Perdew, and J. Sun, J. Phys. Chem. Lett. 11, 8208 (2020)
[ 2]  J. W. Furness, A. D. Kaplan, J. Ning, J. P. Perdew, and J. Sun, J. Phys. Chem. Lett. 11, 9248 (2020)

WARNING: Geometry Optimization
  ===> : Switching off AutoStart
         For restart on a previous wavefunction, please use MOREAD

INFO   : the flag for use of the SHARK integral package has been found!

================================================================================
                                       INPUT FILE
================================================================================
NAME = /tmp/254457/arbr_15_r2scan3c.inp
|  1> %maxcore 4000
|  2> %PAL NPROCS 16 END
|  3> ! r2scan-3c opt freq
|  4> 
|  5> # arbr_15_rdkit_conf_1_r2scan3ccreated by GaussianPrep
|  6> 
|  7> * xyz 0 1
|  8> C  -4.220662  -0.627572  -0.000019
|  9> O  -3.371582  0.498454  0.000015
| 10> C  -2.034083  0.281844  0.000005
| 11> C  -1.44395  -0.977338  0.000011
| 12> C  -0.057374  -1.090343  0.000007
| 13> C  0.727984  0.045125  0.0
| 14> Br  2.616929  -0.116102  -0.000002
| 15> C  0.145552  1.306545  -0.000001
| 16> C  -1.230121  1.421602  0.0
| 17> H  -4.064164  -1.239982  0.891863
| 18> H  -5.236186  -0.241818  -0.000039
| 19> H  -4.064121  -1.239959  -0.891907
| 20> H  -2.041982  -1.876536  0.000018
| 21> H  0.403543  -2.068333  0.000011
| 22> H  0.766767  2.191393  -0.000006
| 23> H  -1.707778  2.392013  -0.000003
| 24> 
| 25> *
| 26> 
| 27>                          ****END OF INPUT****
================================================================================

                       *****************************
                       * Geometry Optimization Run *
                       *****************************

Geometry optimization settings:
Update method            Update   .... BFGS
Choice of coordinates    CoordSys .... Z-matrix Internals
Initial Hessian          InHess   .... Almoef's Model

Convergence Tolerances:
Energy Change            TolE     ....  5.0000e-06 Eh
Max. Gradient            TolMAXG  ....  3.0000e-04 Eh/bohr
RMS Gradient             TolRMSG  ....  1.0000e-04 Eh/bohr
Max. Displacement        TolMAXD  ....  4.0000e-03 bohr
RMS Displacement         TolRMSD  ....  2.0000e-03 bohr
Strict Convergence                ....  False
------------------------------------------------------------------------------
                        ORCA OPTIMIZATION COORDINATE SETUP
------------------------------------------------------------------------------

The optimization will be done in new redundant internal coordinates
Making redundant internal coordinates   ...  (new redundants) done
Evaluating the initial hessian          ...  (Almloef) done
Evaluating the coordinates              ...  done
Calculating the B-matrix                .... done
Calculating the G-matrix                .... done
Diagonalizing the G-matrix              .... done
Small eigenvalue found = 2.071e-02
The first mode is                       ....   28
The number of degrees of freedom        ....   42

    -----------------------------------------------------------------
                    Redundant Internal Coordinates


    -----------------------------------------------------------------
         Definition                    Initial Value    Approx d2E/dq
    -----------------------------------------------------------------
      1. B(O   1,C   0)                  1.4103         0.519434   
      2. B(C   2,O   1)                  1.3549         0.636553   
      3. B(C   3,C   2)                  1.3906         0.623398   
      4. B(C   4,C   3)                  1.3912         0.622109   
      5. B(C   5,C   4)                  1.3806         0.646733   
      6. B(Br  6,C   5)                  1.8958         0.327522   
      7. B(C   7,C   5)                  1.3894         0.626196   
      8. B(C   8,C   7)                  1.3805         0.647043   
      9. B(C   8,C   2)                  1.3948         0.613927   
     10. B(H   9,C   0)                  1.0932         0.355948   
     11. B(H  10,C   0)                  1.0863         0.364999   
     12. B(H  11,C   0)                  1.0932         0.355951   
     13. B(H  12,C   3)                  1.0799         0.373702   
     14. B(H  13,C   4)                  1.0812         0.371985   
     15. B(H  14,C   7)                  1.0811         0.372013   
     16. B(H  15,C   8)                  1.0816         0.371388   
     17. A(H   9,C   0,H  10)          109.4377         0.290927   
     18. A(O   1,C   0,H  11)          111.1673         0.339801   
     19. A(O   1,C   0,H  10)          106.2185         0.341230   
     20. A(H   9,C   0,H  11)          109.3492         0.289783   
     21. A(O   1,C   0,H   9)          111.1674         0.339801   
     22. A(H  10,C   0,H  11)          109.4377         0.290927   
     23. A(C   0,O   1,C   2)          117.8189         0.417034   
     24. A(O   1,C   2,C   3)          124.3101         0.433700   
     25. A(C   3,C   2,C   8)          119.6909         0.433724   
     26. A(O   1,C   2,C   8)          115.9991         0.432507   
     27. A(C   2,C   3,C   4)          119.7701         0.434759   
     28. A(C   4,C   3,H  12)          118.9675         0.355338   
     29. A(C   2,C   3,H  12)          121.2624         0.355462   
     30. A(C   3,C   4,H  13)          119.8933         0.355060   
     31. A(C   5,C   4,H  13)          120.0959         0.357408   
     32. A(C   3,C   4,C   5)          120.0108         0.437647   
     33. A(Br  6,C   5,C   7)          119.6626         0.413762   
     34. A(C   4,C   5,C   7)          120.5459         0.438164   
     35. A(C   4,C   5,Br  6)          119.7915         0.416142   
     36. A(C   8,C   7,H  14)          120.2902         0.357442   
     37. A(C   5,C   7,H  14)          120.1448         0.355459   
     38. A(C   5,C   7,C   8)          119.5650         0.438202   
     39. A(C   7,C   8,H  15)          120.9883         0.357340   
     40. A(C   2,C   8,H  15)          118.5942         0.354168   
     41. A(C   2,C   8,C   7)          120.4174         0.436641   
     42. D(C   2,O   1,C   0,H  10)   -179.9981         0.021389   
     43. D(C   2,O   1,C   0,H  11)    -61.0326         0.021389   
     44. D(C   2,O   1,C   0,H   9)     61.0364         0.021389   
     45. D(C   8,C   2,O   1,C   0)    179.9982         0.029846   
     46. D(C   3,C   2,O   1,C   0)     -0.0024         0.029846   
     47. D(C   4,C   3,C   2,O   1)   -179.9997         0.026910   
     48. D(C   4,C   3,C   2,C   8)     -0.0002         0.026910   
     49. D(H  12,C   3,C   2,O   1)      0.0004         0.026910   
     50. D(H  12,C   3,C   2,C   8)    179.9998         0.026910   
     51. D(H  13,C   4,C   3,H  12)     -0.0000         0.026792   
     52. D(H  13,C   4,C   3,C   2)   -180.0000         0.026792   
     53. D(C   5,C   4,C   3,H  12)   -179.9999         0.026792   
     54. D(C   5,C   4,C   3,C   2)      0.0001         0.026792   
     55. D(Br  6,C   5,C   4,H  13)     -0.0000         0.029102   
     56. D(Br  6,C   5,C   4,C   3)    179.9999         0.029102   
     57. D(C   7,C   5,C   4,H  13)   -179.9998         0.029102   
     58. D(C   7,C   5,C   4,C   3)      0.0001         0.029102   
     59. D(H  14,C   7,C   5,Br  6)      0.0002         0.027167   
     60. D(H  14,C   7,C   5,C   4)    180.0000         0.027167   
     61. D(C   8,C   7,C   5,Br  6)    180.0000         0.027167   
     62. D(C   8,C   7,C   5,C   4)     -0.0002         0.027167   
     63. D(H  15,C   8,C   7,H  14)     -0.0001         0.029132   
     64. D(H  15,C   8,C   7,C   5)   -179.9999         0.029132   
     65. D(C   2,C   8,C   7,H  14)    179.9999         0.029132   
     66. D(C   2,C   8,C   7,C   5)      0.0001         0.029132   
     67. D(H  15,C   8,C   2,C   3)   -179.9999         0.026050   
     68. D(H  15,C   8,C   2,O   1)     -0.0004         0.026050   
     69. D(C   7,C   8,C   2,C   3)      0.0001         0.026050   
     70. D(C   7,C   8,C   2,O   1)    179.9996         0.026050   
    -----------------------------------------------------------------

Number of atoms                         .... 16
Number of degrees of freedom            .... 70

         *************************************************************
         *                GEOMETRY OPTIMIZATION CYCLE   1            *
         *************************************************************
---------------------------------
CARTESIAN COORDINATES (ANGSTROEM)
---------------------------------
  C     -4.220662   -0.627572   -0.000019
  O     -3.371582    0.498454    0.000015
  C     -2.034083    0.281844    0.000005
  C     -1.443950   -0.977338    0.000011
  C     -0.057374   -1.090343    0.000007
  C      0.727984    0.045125    0.000000
  Br     2.616929   -0.116102   -0.000002
  C      0.145552    1.306545   -0.000001
  C     -1.230121    1.421602    0.000000
  H     -4.064164   -1.239982    0.891863
  H     -5.236186   -0.241818   -0.000039
  H     -4.064121   -1.239959   -0.891907
  H     -2.041982   -1.876536    0.000018
  H      0.403543   -2.068333    0.000011
  H      0.766767    2.191393   -0.000006
  H     -1.707778    2.392013   -0.000003

----------------------------
CARTESIAN COORDINATES (A.U.)
----------------------------
  NO LB      ZA    FRAG     MASS         X           Y           Z
   0 C     6.0000    0    12.011   -7.975895   -1.185939   -0.000036
   1 O     8.0000    0    15.999   -6.371367    0.941942    0.000028
   2 C     6.0000    0    12.011   -3.843860    0.532608    0.000009
   3 C     6.0000    0    12.011   -2.728670   -1.846901    0.000021
   4 C     6.0000    0    12.011   -0.108421   -2.060450    0.000013
   5 C     6.0000    0    12.011    1.375690    0.085274    0.000000
   6 Br   35.0000    0    79.900    4.945279   -0.219401   -0.000004
   7 C     6.0000    0    12.011    0.275053    2.469012   -0.000002
   8 C     6.0000    0    12.011   -2.324592    2.686438    0.000000
   9 H     1.0000    0     1.008   -7.680157   -2.343226    1.685377
  10 H     1.0000    0     1.008   -9.894958   -0.456970   -0.000074
  11 H     1.0000    0     1.008   -7.680076   -2.343183   -1.685460
  12 H     1.0000    0     1.008   -3.858787   -3.546139    0.000034
  13 H     1.0000    0     1.008    0.762586   -3.908583    0.000021
  14 H     1.0000    0     1.008    1.448980    4.141133   -0.000011
  15 H     1.0000    0     1.008   -3.227233    4.520249   -0.000006

--------------------------------
INTERNAL COORDINATES (ANGSTROEM)
--------------------------------
 C      0   0   0     0.000000000000     0.00000000     0.00000000
 O      1   0   0     1.410273519652     0.00000000     0.00000000
 C      2   1   0     1.354925631613   117.81885624     0.00000000
 C      3   2   1     1.390610034067   124.31005143     0.00000000
 C      4   3   2     1.391173293956   119.77005418   180.00034946
 C      5   4   3     1.380606666374   120.01079708     0.00000000
 Br     6   5   4     1.895813112772   119.79152752   179.99988088
 C      6   5   4     1.389391036039   120.54587589     0.00000000
 C      8   6   5     1.380476119380   119.56497099     0.00000000
 H      1   2   3     1.093156500245   111.16737729    61.03641691
 H      1   2   3     1.086321841579   106.21848679   180.00190378
 H      1   2   3     1.093154667462   111.16734431   298.96735922
 H      4   3   2     1.079907086872   121.26242283     0.00000000
 H      5   4   3     1.081160913558   119.89330688   180.00003982
 H      8   6   5     1.081140166377   120.14484466   179.99996945
 H      9   8   6     1.081597761915   120.98830869   180.00013935

---------------------------
INTERNAL COORDINATES (A.U.)
---------------------------
 C      0   0   0     0.000000000000     0.00000000     0.00000000
 O      1   0   0     2.665030726064     0.00000000     0.00000000
 C      2   1   0     2.560438375578   117.81885624     0.00000000
 C      3   2   1     2.627872123470   124.31005143     0.00000000
 C      4   3   2     2.628936530402   119.77005418   180.00034946
 C      5   4   3     2.608968498113   120.01079708     0.00000000
 Br     6   5   4     3.582567584236   119.79152752   179.99988088
 C      6   5   4     2.625568551038   120.54587589     0.00000000
 C      8   6   5     2.608721800047   119.56497099     0.00000000
 H      1   2   3     2.065766406979   111.16737729    61.03641691
 H      1   2   3     2.052850773882   106.21848679   180.00190378
 H      1   2   3     2.065762943521   111.16734431   298.96735922
 H      4   3   2     2.040728644269   121.26242283     0.00000000
 H      5   4   3     2.043098033324   119.89330688   180.00003982
 H      8   6   5     2.043058826835   120.14484466   179.99996945
 H      9   8   6     2.043923557081   120.98830869   180.00013935

---------------------
BASIS SET INFORMATION
---------------------
There are 4 groups of distinct atoms

 Group   1 Type C   : 11s6p1d contracted to 5s3p1d pattern {62111/411/1}
 Group   2 Type O   : 11s6p2d contracted to 5s3p2d pattern {62111/411/11}
 Group   3 Type Br  : 17s13p7d contracted to 6s5p3d pattern {842111/64111/511}
 Group   4 Type H   : 4s1p contracted to 2s1p pattern {31/1}

Atom   0C    basis set group =>   1
Atom   1O    basis set group =>   2
Atom   2C    basis set group =>   1
Atom   3C    basis set group =>   1
Atom   4C    basis set group =>   1
Atom   5C    basis set group =>   1
Atom   6Br   basis set group =>   3
Atom   7C    basis set group =>   1
Atom   8C    basis set group =>   1
Atom   9H    basis set group =>   4
Atom  10H    basis set group =>   4
Atom  11H    basis set group =>   4
Atom  12H    basis set group =>   4
Atom  13H    basis set group =>   4
Atom  14H    basis set group =>   4
Atom  15H    basis set group =>   4
---------------------------------
AUXILIARY/J BASIS SET INFORMATION
---------------------------------
There are 4 groups of distinct atoms

 Group   1 Type C   : 8s3p3d contracted to 6s3p3d pattern {311111/111/111}
 Group   2 Type O   : 8s3p3d contracted to 6s3p3d pattern {311111/111/111}
 Group   3 Type Br  : 19s5p5d3f1g contracted to 8s4p3d2f1g pattern {121111111/2111/311/21/1}
 Group   4 Type H   : 5s2p1d contracted to 3s1p1d pattern {311/2/1}

Atom   0C    basis set group =>   1
Atom   1O    basis set group =>   2
Atom   2C    basis set group =>   1
Atom   3C    basis set group =>   1
Atom   4C    basis set group =>   1
Atom   5C    basis set group =>   1
Atom   6Br   basis set group =>   3
Atom   7C    basis set group =>   1
Atom   8C    basis set group =>   1
Atom   9H    basis set group =>   4
Atom  10H    basis set group =>   4
Atom  11H    basis set group =>   4
Atom  12H    basis set group =>   4
Atom  13H    basis set group =>   4
Atom  14H    basis set group =>   4
Atom  15H    basis set group =>   4


           ************************************************************
           *        Program running with 16 parallel MPI-processes    *
           *              working on a common directory               *
           ************************************************************
------------------------------------------------------------------------------
                           ORCA GTO INTEGRAL CALCULATION
                           -- RI-GTO INTEGRALS CHOSEN --
------------------------------------------------------------------------------
------------------------------------------------------------------------------
                   ___                                                        
                  /   \      - P O W E R E D   B Y -                         
                 /     \                                                     
                 |  |  |   _    _      __       _____    __    __             
                 |  |  |  | |  | |    /  \     |  _  \  |  |  /  |          
                  \  \/   | |  | |   /    \    | | | |  |  | /  /          
                 / \  \   | |__| |  /  /\  \   | |_| |  |  |/  /          
                |  |  |   |  __  | /  /__\  \  |    /   |      \           
                |  |  |   | |  | | |   __   |  |    \   |  |\   \          
                \     /   | |  | | |  |  |  |  | |\  \  |  | \   \       
                 \___/    |_|  |_| |__|  |__|  |_| \__\ |__|  \__/        
                                                                              
                      - O R C A' S   B I G   F R I E N D -                    
                                      &                                       
                       - I N T E G R A L  F E E D E R -                       
                                                                              
 v1 FN, 2020, v2 2021                                                         
------------------------------------------------------------------------------


Reading SHARK input file /tmp/254457/arbr_15_r2scan3c.SHARKINP.tmp ... ok
----------------------
SHARK INTEGRAL PACKAGE
----------------------

Number of atoms                             ...     16
Number of basis functions                   ...    228
Number of shells                            ...    108
Maximum angular momentum                    ...      2
Integral batch strategy                     ... SHARK/LIBINT Hybrid
RI-J (if used) integral strategy            ... SPLIT-RIJ (Revised 2003 algorithm where possible)
Printlevel                                  ...      1
Contraction scheme used                     ... SEGMENTED contraction
Coulomb Range Separation                    ... NOT USED
Exchange Range Separation                   ... NOT USED
Finite Nucleus Model                        ... NOT USED
Auxiliary Coulomb fitting basis             ... AVAILABLE
   # of basis functions in Aux-J            ...    375
   # of shells in Aux-J                     ...    149
   Maximum angular momentum in Aux-J        ...      4
Auxiliary J/K fitting basis                 ... NOT available
Auxiliary Correlation fitting basis         ... NOT available
Auxiliary 'external' fitting basis          ... NOT available
Integral threshold                          ...     2.500000e-11
Primitive cut-off                           ...     2.500000e-12
Primitive pair pre-selection threshold      ...     2.500000e-12

Calculating pre-screening integrals         ... done (  0.0 sec) Dimension = 108
Organizing shell pair data                  ... done (  0.0 sec)
Shell pair information
Total number of shell pairs                 ...      5886
Shell pairs after pre-screening             ...      5041
Total number of primitive shell pairs       ...     23916
Primitive shell pairs kept                  ...     13948
          la=0 lb=0:   1516 shell pairs
          la=1 lb=0:   1882 shell pairs
          la=1 lb=1:    599 shell pairs
          la=2 lb=0:    600 shell pairs
          la=2 lb=1:    377 shell pairs
          la=2 lb=2:     67 shell pairs

Calculating one electron integrals          ... done (  0.0 sec)
Calculating RI/J V-Matrix + Cholesky decomp.... done (  0.0 sec)
Calculating Nuclear repulsion               ... done (  0.0 sec) ENN=    619.360845259236 Eh

SHARK setup successfully completed in   0.2 seconds

Maximum memory used throughout the entire GTOINT-calculation: 18.1 MB


           ************************************************************
           *        Program running with 16 parallel MPI-processes    *
           *              working on a common directory               *
           ************************************************************
-------------------------------------------------------------------------------
                                 ORCA SCF
-------------------------------------------------------------------------------

------------
SCF SETTINGS
------------
Hamiltonian:
 Density Functional     Method          .... DFT(GTOs)
  Functional kind                       .... Exchange
  Functional name                       .... Re-regularized SCAN exchange by Furness et al
  Functional family                     .... MGGA
  Functional refs                              
    [ 0] J. W. Furness, A. D. Kaplan, J. Ning, J. P. Perdew, and J. Sun, J. Phys. Chem. Lett. 11, 8208 (2020)
    [ 1] J. W. Furness, A. D. Kaplan, J. Ning, J. P. Perdew, and J. Sun, J. Phys. Chem. Lett. 11, 9248 (2020)
  Functional external parameters         .... 8
 Parameter  0 :         c1 parameter
 Parameter  1 :         c2 parameter
 Parameter  2 :          d parameter
 Parameter  3 :         k1 parameter
 Parameter  4 :       taur parameter
 Parameter  5 :     alphar parameter
 Parameter  6 :        eta parameter
 Parameter  7 :        dp2 parameter
  Functional kind                       .... Correlation
  Functional name                       .... Re-regularized SCAN correlation by Furness et al
  Functional family                     .... MGGA
  Functional refs                              
    [ 0] J. W. Furness, A. D. Kaplan, J. Ning, J. P. Perdew, and J. Sun, J. Phys. Chem. Lett. 11, 8208 (2020)
    [ 1] J. W. Furness, A. D. Kaplan, J. Ning, J. P. Perdew, and J. Sun, J. Phys. Chem. Lett. 11, 9248 (2020)
  Functional external parameters         .... 0
 Gradients option       PostSCFGGA      .... off
   Density functional embedding theory  .... OFF
 RI-approximation to the Coulomb term is turned on
   Number of AuxJ basis functions       .... 375


General Settings:
 Integral files         IntName         .... /tmp/254457/arbr_15_r2scan3c
 Hartree-Fock type      HFTyp           .... RHF
 Total Charge           Charge          ....    0
 Multiplicity           Mult            ....    1
 Number of Electrons    NEL             ....   92
 Basis Dimension        Dim             ....  228
 Nuclear Repulsion      ENuc            ....    619.3608452592 Eh

Convergence Acceleration:
 DIIS                   CNVDIIS         .... on
   Start iteration      DIISMaxIt       ....    12
   Startup error        DIISStart       ....  0.200000
   # of expansion vecs  DIISMaxEq       ....     5
   Bias factor          DIISBfac        ....   1.050
   Max. coefficient     DIISMaxC        ....  10.000
 Trust-Rad. Augm. Hess. CNVTRAH         .... auto
   Auto Start mean grad. ratio tolernc. ....  1.125000
   Auto Start start iteration           ....    20
   Auto Start num. interpolation iter.  ....    10
   Max. Number of Micro iterations      ....    16
   Max. Number of Macro iterations      .... Maxiter - #DIIS iter
   Number of Davidson start vectors     ....     2
   Converg. threshold I  (grad. norm)   ....   1.000e-05
   Converg. threshold II (energy diff.) ....   1.000e-08
   Grad. Scal. Fac. for Micro threshold ....   0.100
   Minimum threshold for Micro iter.    ....   0.010
   NR start threshold (gradient norm)   ....   0.001
   Initial trust radius                 ....   0.400
   Minimum AH scaling param. (alpha)    ....   1.000
   Maximum AH scaling param. (alpha)    .... 1000.000
   Orbital update algorithm             .... Taylor
   White noise on init. David. guess    .... on
   Maximum white noise                  ....   0.010
   Quad. conv. algorithm                .... NR
   COSX micro iterations for RIJONX calc.... off
 SOSCF                  CNVSOSCF        .... on
   Start iteration      SOSCFMaxIt      ....   150
   Startup grad/error   SOSCFStart      ....  0.003300
 Level Shifting         CNVShift        .... on
   Level shift para.    LevelShift      ....    0.2500
   Turn off err/grad.   ShiftErr        ....    0.0010
 Zerner damping         CNVZerner       .... off
 Static damping         CNVDamp         .... on
   Fraction old density DampFac         ....    0.7000
   Max. Damping (<1)    DampMax         ....    0.9800
   Min. Damping (>=0)   DampMin         ....    0.0000
   Turn off err/grad.   DampErr         ....    0.1000
 Fernandez-Rico         CNVRico         .... off

SCF Procedure:
 Maximum # iterations   MaxIter         ....   125
 SCF integral mode      SCFMode         .... Direct
   Integral package                     .... SHARK and LIBINT hybrid scheme
 Reset frequency        DirectResetFreq ....    20
 Integral Threshold     Thresh          ....  2.500e-11 Eh
 Primitive CutOff       TCut            ....  2.500e-12 Eh

Convergence Tolerance:
 Convergence Check Mode ConvCheckMode   .... Total+1el-Energy
 Convergence forced     ConvForced      .... 0
 Energy Change          TolE            ....  1.000e-08 Eh
 1-El. energy change                    ....  1.000e-05 Eh
 Orbital Gradient       TolG            ....  1.000e-05
 Orbital Rotation angle TolX            ....  1.000e-05
 DIIS Error             TolErr          ....  5.000e-07


Diagonalization of the overlap matrix:
Smallest eigenvalue                        ... 2.771e-05
Time for diagonalization                   ...    0.005 sec
Threshold for overlap eigenvalues          ... 1.000e-08
Number of eigenvalues below threshold      ... 0
Time for construction of square roots      ...    0.003 sec
Total time needed                          ...    0.043 sec

Time for model grid setup =    0.079 sec

------------------------------
INITIAL GUESS: MODEL POTENTIAL
------------------------------
Loading Hartree-Fock densities                     ... done
Calculating cut-offs                               ... done
Initializing the effective Hamiltonian             ... done
Setting up the integral package (SHARK)            ... done
Starting the Coulomb interaction                   ... done (   0.0 sec)
Reading the grid                                   ... done
Mapping shells                                     ... done
Starting the XC term evaluation                    ... done (   0.0 sec)
  promolecular density results
     # of electrons  =     91.995988014
     EX              =   -135.330640996
     EC              =     -3.619449000
     EX+EC           =   -138.950089996
Transforming the Hamiltonian                       ... done (   0.0 sec)
Diagonalizing the Hamiltonian                      ... done (   0.0 sec)
Back transforming the eigenvectors                 ... done (   0.0 sec)
Now organizing SCF variables                       ... done
                      ------------------
                      INITIAL GUESS DONE (   0.1 sec)
                      ------------------
-------------------
DFT GRID GENERATION
-------------------

General Integration Accuracy     IntAcc      ... 4.388
Radial Grid Type                 RadialGrid  ... OptM3 with GC (2021)
Angular Grid (max. ang.)         AngularGrid ... 4 (Lebedev-302)
Angular grid pruning method      GridPruning ... 4 (adaptive)
Weight generation scheme         WeightScheme... Becke
Basis function cutoff            BFCut       ... 1.0000e-11
Integration weight cutoff        WCut        ... 1.0000e-14
Angular grids for H and He will be reduced by one unit
Partially contracted basis set               ... off
Rotationally invariant grid construction     ... off

Total number of grid points                  ...    82210
Total number of batches                      ...     1293
Average number of points per batch           ...       63
Average number of grid points per atom       ...     5138
Time for grid setup =    0.407 sec

--------------
SCF ITERATIONS
--------------
ITER       Energy         Delta-E        Max-DP      RMS-DP      [F,P]     Damp
               ***  Starting incremental Fock matrix formation  ***
  0  -2920.0557733734   0.000000000000 0.03717787  0.00137601  0.1476811 0.7000
  1  -2920.1380029223  -0.082229548940 0.03801745  0.00106132  0.0683714 0.7000
                               ***Turning on DIIS***
  2  -2920.1702963179  -0.032293395544 0.06182661  0.00188672  0.0293111 0.0000
  3  -2920.2162344608  -0.045938142908 0.04468252  0.00094420  0.0401910 0.0000
  4  -2920.2305348850  -0.014300424183 0.01743143  0.00036952  0.0085312 0.0000
  5  -2920.2310493583  -0.000514473367 0.00353193  0.00013721  0.0034519 0.0000
                      *** Initiating the SOSCF procedure ***
                           *** Shutting down DIIS ***
                      *** Re-Reading the Fockian *** 
                      *** Removing any level shift *** 
ITER      Energy       Delta-E        Grad      Rot      Max-DP    RMS-DP
  6  -2920.23110247  -0.0000531166  0.000183  0.000183  0.002450  0.000072
               *** Restarting incremental Fock matrix formation ***
  7  -2920.23110546  -0.0000029862  0.000170  0.000687  0.000468  0.000022
  8  -2920.23110227   0.0000031950  0.000360  0.000498  0.000325  0.000014
  9  -2920.23110668  -0.0000044187  0.000044  0.000180  0.000169  0.000005
 10  -2920.23110654   0.0000001423  0.000083  0.000124  0.000131  0.000003
 11  -2920.23110674  -0.0000001968  0.000014  0.000075  0.000091  0.000002
 12  -2920.23110673   0.0000000084  0.000030  0.000054  0.000058  0.000001
                  ***Gradient check signals convergence***
              ***Rediagonalizing the Fockian in SOSCF/NRSCF***

               *****************************************************
               *                     SUCCESS                       *
               *           SCF CONVERGED AFTER  13 CYCLES          *
               *****************************************************


----------------
TOTAL SCF ENERGY
----------------

Total Energy       :        -2920.23110674 Eh          -79463.52826 eV

Components:
Nuclear Repulsion  :          619.36084526 Eh           16853.66542 eV
Electronic Energy  :        -3539.59195200 Eh          -96317.19369 eV
One Electron Energy:        -5281.84130251 Eh         -143726.20874 eV
Two Electron Energy:         1742.24935050 Eh           47409.01505 eV

Virial components:
Potential Energy   :        -5835.60523223 Eh         -158794.89135 eV
Kinetic Energy     :         2915.37412549 Eh           79331.36308 eV
Virial Ratio       :            2.00166599


DFT components:
N(Alpha)           :       46.000051411118 electrons
N(Beta)            :       46.000051411118 electrons
N(Total)           :       92.000102822235 electrons
E(X)               :     -136.833081504872 Eh       
E(C)               :       -3.575398876651 Eh       
E(XC)              :     -140.408480381523 Eh       
DFET-embed. en.    :        0.000000000000 Eh       

---------------
SCF CONVERGENCE
---------------

  Last Energy change         ...   -1.2846e-08  Tolerance :   1.0000e-08
  Last MAX-Density change    ...    1.0960e-05  Tolerance :   1.0000e-07
  Last RMS-Density change    ...    3.5118e-07  Tolerance :   5.0000e-09
  Last Orbital Gradient      ...    2.0368e-06  Tolerance :   1.0000e-05
  Last Orbital Rotation      ...    1.2880e-05  Tolerance :   1.0000e-05

             **** THE GBW FILE WAS UPDATED (/tmp/254457/arbr_15_r2scan3c.gbw) ****
             **** DENSITY /tmp/254457/arbr_15_r2scan3c.scfp WAS UPDATED ****
             **** ENERGY FILE WAS UPDATED (/tmp/254457/arbr_15_r2scan3c.en.tmp) ****
             **** THE GBW FILE WAS UPDATED (/tmp/254457/arbr_15_r2scan3c.gbw) ****
             **** DENSITY /tmp/254457/arbr_15_r2scan3c.scfp WAS UPDATED ****
----------------
ORBITAL ENERGIES
----------------

  NO   OCC          E(Eh)            E(eV) 
   0   2.0000    -482.225496    -13122.0229 
   1   2.0000     -62.296762     -1695.1811 
   2   2.0000     -56.077993     -1525.9598 
   3   2.0000     -56.074102     -1525.8539 
   4   2.0000     -56.074061     -1525.8528 
   5   2.0000     -18.996495      -516.9209 
   6   2.0000     -10.104916      -274.9687 
   7   2.0000     -10.094022      -274.6723 
   8   2.0000     -10.089710      -274.5550 
   9   2.0000     -10.052218      -273.5348 
  10   2.0000     -10.051404      -273.5126 
  11   2.0000     -10.047617      -273.4096 
  12   2.0000     -10.044143      -273.3150 
  13   2.0000      -8.628793      -234.8014 
  14   2.0000      -6.436498      -175.1460 
  15   2.0000      -6.422539      -174.7662 
  16   2.0000      -6.422342      -174.7608 
  17   2.0000      -2.534000       -68.9536 
  18   2.0000      -2.530720       -68.8644 
  19   2.0000      -2.530570       -68.8603 
  20   2.0000      -2.519916       -68.5704 
  21   2.0000      -2.519902       -68.5700 
  22   2.0000      -1.048293       -28.5255 
  23   2.0000      -0.846133       -23.0244 
  24   2.0000      -0.773920       -21.0594 
  25   2.0000      -0.735665       -20.0185 
  26   2.0000      -0.712899       -19.3990 
  27   2.0000      -0.663026       -18.0418 
  28   2.0000      -0.597529       -16.2596 
  29   2.0000      -0.565370       -15.3845 
  30   2.0000      -0.518233       -14.1018 
  31   2.0000      -0.469196       -12.7675 
  32   2.0000      -0.448745       -12.2110 
  33   2.0000      -0.448314       -12.1992 
  34   2.0000      -0.429156       -11.6779 
  35   2.0000      -0.409089       -11.1319 
  36   2.0000      -0.397471       -10.8157 
  37   2.0000      -0.372341       -10.1319 
  38   2.0000      -0.350780        -9.5452 
  39   2.0000      -0.343867        -9.3571 
  40   2.0000      -0.323853        -8.8125 
  41   2.0000      -0.309537        -8.4229 
  42   2.0000      -0.269704        -7.3390 
  43   2.0000      -0.263426        -7.1682 
  44   2.0000      -0.251219        -6.8360 
  45   2.0000      -0.204691        -5.5699 
  46   0.0000      -0.046757        -1.2723 
  47   0.0000      -0.029330        -0.7981 
  48   0.0000      -0.015750        -0.4286 
  49   0.0000       0.060212         1.6385 
  50   0.0000       0.082631         2.2485 
  51   0.0000       0.106282         2.8921 
  52   0.0000       0.113226         3.0810 
  53   0.0000       0.118606         3.2274 
  54   0.0000       0.126557         3.4438 
  55   0.0000       0.144276         3.9259 
  56   0.0000       0.156819         4.2673 
  57   0.0000       0.162109         4.4112 
  58   0.0000       0.167624         4.5613 
  59   0.0000       0.172595         4.6965 
  60   0.0000       0.182134         4.9561 
  61   0.0000       0.204175         5.5559 
  62   0.0000       0.207845         5.6558 
  63   0.0000       0.215480         5.8635 
  64   0.0000       0.220711         6.0059 
  65   0.0000       0.222921         6.0660 
  66   0.0000       0.225983         6.1493 
  67   0.0000       0.251477         6.8430 
  68   0.0000       0.258316         7.0291 
  69   0.0000       0.270002         7.3471 
  70   0.0000       0.276215         7.5162 
  71   0.0000       0.290006         7.8915 
  72   0.0000       0.292426         7.9573 
  73   0.0000       0.311580         8.4785 
  74   0.0000       0.315363         8.5815 
  75   0.0000       0.326355         8.8806 
  76   0.0000       0.332426         9.0458 
  77   0.0000       0.344496         9.3742 
  78   0.0000       0.347733         9.4623 
  79   0.0000       0.353543         9.6204 
  80   0.0000       0.390765        10.6333 
  81   0.0000       0.400391        10.8952 
  82   0.0000       0.406187        11.0529 
  83   0.0000       0.431251        11.7349 
  84   0.0000       0.441623        12.0172 
  85   0.0000       0.466511        12.6944 
  86   0.0000       0.480420        13.0729 
  87   0.0000       0.504766        13.7354 
  88   0.0000       0.528823        14.3900 
  89   0.0000       0.534465        14.5435 
  90   0.0000       0.542848        14.7716 
  91   0.0000       0.549689        14.9578 
  92   0.0000       0.558197        15.1893 
  93   0.0000       0.568467        15.4688 
  94   0.0000       0.574264        15.6265 
  95   0.0000       0.584160        15.8958 
  96   0.0000       0.607414        16.5286 
  97   0.0000       0.612090        16.6558 
  98   0.0000       0.624458        16.9924 
  99   0.0000       0.663448        18.0533 
 100   0.0000       0.663950        18.0670 
 101   0.0000       0.670912        18.2565 
 102   0.0000       0.710479        19.3331 
 103   0.0000       0.714560        19.4442 
 104   0.0000       0.742991        20.2178 
 105   0.0000       0.792655        21.5692 
 106   0.0000       0.831741        22.6328 
 107   0.0000       0.879179        23.9237 
 108   0.0000       0.944923        25.7127 
 109   0.0000       1.009343        27.4656 
 110   0.0000       1.011137        27.5144 
 111   0.0000       1.037049        28.2195 
 112   0.0000       1.047730        28.5102 
 113   0.0000       1.107721        30.1426 
 114   0.0000       1.115581        30.3565 
 115   0.0000       1.135515        30.8989 
 116   0.0000       1.188534        32.3417 
 117   0.0000       1.228788        33.4370 
 118   0.0000       1.229787        33.4642 
 119   0.0000       1.257604        34.2211 
 120   0.0000       1.286642        35.0113 
 121   0.0000       1.292733        35.1771 
 122   0.0000       1.321958        35.9723 
 123   0.0000       1.323024        36.0013 
 124   0.0000       1.338049        36.4102 
 125   0.0000       1.352944        36.8155 
 126   0.0000       1.362215        37.0677 
 127   0.0000       1.410010        38.3683 
 128   0.0000       1.411616        38.4120 
 129   0.0000       1.430824        38.9347 
 130   0.0000       1.446731        39.3676 
 131   0.0000       1.456908        39.6445 
 132   0.0000       1.463013        39.8106 
 133   0.0000       1.471235        40.0343 
 134   0.0000       1.483721        40.3741 
 135   0.0000       1.489166        40.5223 
 136   0.0000       1.492282        40.6070 
 137   0.0000       1.497233        40.7418 
 138   0.0000       1.515003        41.2253 
 139   0.0000       1.559813        42.4447 
 140   0.0000       1.586045        43.1585 
 141   0.0000       1.601886        43.5895 
 142   0.0000       1.619837        44.0780 
 143   0.0000       1.633749        44.4566 
 144   0.0000       1.658559        45.1317 
 145   0.0000       1.680727        45.7349 
 146   0.0000       1.721457        46.8432 
 147   0.0000       1.726070        46.9687 
 148   0.0000       1.734731        47.2044 
 149   0.0000       1.766315        48.0639 
 150   0.0000       1.780038        48.4373 
 151   0.0000       1.790023        48.7090 
 152   0.0000       1.810888        49.2768 
 153   0.0000       1.855698        50.4961 
 154   0.0000       1.872188        50.9448 
 155   0.0000       1.990026        54.1514 
 156   0.0000       2.038510        55.4707 
 157   0.0000       2.056296        55.9547 
 158   0.0000       2.065951        56.2174 
 159   0.0000       2.090611        56.8884 
 160   0.0000       2.095178        57.0127 
 161   0.0000       2.101949        57.1969 
 162   0.0000       2.111247        57.4499 
 163   0.0000       2.127668        57.8968 
 164   0.0000       2.186436        59.4959 
 165   0.0000       2.212228        60.1978 
 166   0.0000       2.246613        61.1335 
 167   0.0000       2.261330        61.5339 
 168   0.0000       2.283855        62.1469 
 169   0.0000       2.293598        62.4120 
 170   0.0000       2.298738        62.5518 
 171   0.0000       2.325433        63.2783 
 172   0.0000       2.329521        63.3895 
 173   0.0000       2.348879        63.9163 
 174   0.0000       2.352597        64.0174 
 175   0.0000       2.358358        64.1742 
 176   0.0000       2.372173        64.5501 
 177   0.0000       2.407618        65.5146 
 178   0.0000       2.460873        66.9637 
 179   0.0000       2.501408        68.0668 
 180   0.0000       2.530487        68.8581 
 181   0.0000       2.548743        69.3548 
 182   0.0000       2.595386        70.6240 
 183   0.0000       2.626290        71.4650 
 184   0.0000       2.640983        71.8648 
 185   0.0000       2.649746        72.1033 
 186   0.0000       2.677287        72.8527 
 187   0.0000       2.687721        73.1366 
 188   0.0000       2.707947        73.6870 
 189   0.0000       2.734848        74.4190 
 190   0.0000       2.744923        74.6932 
 191   0.0000       2.757889        75.0460 
 192   0.0000       2.805834        76.3506 
 193   0.0000       2.849319        77.5339 
 194   0.0000       2.867294        78.0230 
 195   0.0000       2.925048        79.5946 
 196   0.0000       2.944514        80.1243 
 197   0.0000       2.956905        80.4615 
 198   0.0000       2.985314        81.2345 
 199   0.0000       3.044973        82.8579 
 200   0.0000       3.053020        83.0769 
 201   0.0000       3.106301        84.5267 
 202   0.0000       3.136197        85.3403 
 203   0.0000       3.150682        85.7344 
 204   0.0000       3.181051        86.5608 
 205   0.0000       3.217702        87.5581 
 206   0.0000       3.244276        88.2812 
 207   0.0000       3.280780        89.2746 
 208   0.0000       3.357676        91.3670 
 209   0.0000       3.392009        92.3013 
 210   0.0000       3.407703        92.7283 
 211   0.0000       3.446304        93.7787 
 212   0.0000       3.515420        95.6595 
 213   0.0000       3.526338        95.9565 
 214   0.0000       3.622583        98.5755 
 215   0.0000       3.637838        98.9906 
 216   0.0000       3.847019       104.6827 
 217   0.0000       4.050764       110.2269 
 218   0.0000       4.297661       116.9453 
 219   0.0000       7.477377       203.4698 
 220   0.0000      21.359724       581.2276 
 221   0.0000      21.898948       595.9007 
 222   0.0000      21.949831       597.2853 
 223   0.0000      21.981489       598.1467 
 224   0.0000      22.165347       603.1498 
 225   0.0000      22.170905       603.3010 
 226   0.0000      22.326830       607.5439 
 227   0.0000      43.711183      1189.4417 

                    ********************************
                    * MULLIKEN POPULATION ANALYSIS *
                    ********************************

-----------------------
MULLIKEN ATOMIC CHARGES
-----------------------
   0 C :   -0.343460
   1 O :   -0.178041
   2 C :    0.331178
   3 C :   -0.233235
   4 C :   -0.206429
   5 C :    0.109802
   6 Br:   -0.141517
   7 C :   -0.164309
   8 C :   -0.278864
   9 H :    0.154466
  10 H :    0.156137
  11 H :    0.154466
  12 H :    0.152057
  13 H :    0.162046
  14 H :    0.164743
  15 H :    0.160960
Sum of atomic charges:    0.0000000

--------------------------------
MULLIKEN REDUCED ORBITAL CHARGES
--------------------------------
  0 C s       :     3.346327  s :     3.346327
      pz      :     1.085473  p :     2.948507
      px      :     0.993533
      py      :     0.869500
      dz2     :     0.007280  d :     0.048627
      dxz     :     0.003073
      dyz     :     0.015018
      dx2y2   :     0.010756
      dxy     :     0.012499
  1 O s       :     3.705929  s :     3.705929
      pz      :     1.805421  p :     4.438297
      px      :     1.115055
      py      :     1.517821
      dz2     :     0.004225  d :     0.033815
      dxz     :     0.001501
      dyz     :     0.005634
      dx2y2   :     0.008471
      dxy     :     0.013984
  2 C s       :     3.093374  s :     3.093374
      pz      :     0.956173  p :     2.499758
      px      :     0.740718
      py      :     0.802867
      dz2     :     0.004776  d :     0.075690
      dxz     :     0.016375
      dyz     :     0.007566
      dx2y2   :     0.023491
      dxy     :     0.023482
  3 C s       :     3.180464  s :     3.180464
      pz      :     1.073830  p :     3.015836
      px      :     0.965086
      py      :     0.976921
      dz2     :     0.003383  d :     0.036934
      dxz     :     0.005328
      dyz     :     0.003634
      dx2y2   :     0.011201
      dxy     :     0.013388
  4 C s       :     3.207717  s :     3.207717
      pz      :     0.984620  p :     2.959649
      px      :     0.966183
      py      :     1.008847
      dz2     :     0.003325  d :     0.039063
      dxz     :     0.007047
      dyz     :     0.003427
      dx2y2   :     0.011777
      dxy     :     0.013487
  5 C s       :     3.115748  s :     3.115748
      pz      :     1.064212  p :     2.724780
      px      :     0.712149
      py      :     0.948420
      dz2     :     0.003488  d :     0.049670
      dxz     :     0.006287
      dyz     :     0.007295
      dx2y2   :     0.016443
      dxy     :     0.016157
  6 Brs       :     7.978705  s :     7.978705
      pz      :     5.945275  p :    17.114086
      px      :     5.214946
      py      :     5.953866
      dz2     :     2.005903  d :    10.048726
      dxz     :     2.016222
      dyz     :     2.000387
      dx2y2   :     2.017820
      dxy     :     2.008393
  7 C s       :     3.176375  s :     3.176375
      pz      :     0.989466  p :     2.948915
      px      :     0.982250
      py      :     0.977199
      dz2     :     0.003322  d :     0.039018
      dxz     :     0.006167
      dyz     :     0.004165
      dx2y2   :     0.011810
      dxy     :     0.013554
  8 C s       :     3.229717  s :     3.229717
      pz      :     1.021060  p :     3.012111
      px      :     0.963461
      py      :     1.027590
      dz2     :     0.003370  d :     0.037035
      dxz     :     0.006077
      dyz     :     0.002974
      dx2y2   :     0.010442
      dxy     :     0.014173
  9 H s       :     0.828065  s :     0.828065
      pz      :     0.008793  p :     0.017469
      px      :     0.003094
      py      :     0.005582
 10 H s       :     0.826279  s :     0.826279
      pz      :     0.003754  p :     0.017584
      px      :     0.010365
      py      :     0.003465
 11 H s       :     0.828065  s :     0.828065
      pz      :     0.008793  p :     0.017469
      px      :     0.003094
      py      :     0.005582
 12 H s       :     0.827629  s :     0.827629
      pz      :     0.004765  p :     0.020314
      px      :     0.006078
      py      :     0.009471
 13 H s       :     0.818390  s :     0.818390
      pz      :     0.004129  p :     0.019564
      px      :     0.004873
      py      :     0.010561
 14 H s       :     0.815751  s :     0.815751
      pz      :     0.004074  p :     0.019506
      px      :     0.006227
      py      :     0.009205
 15 H s       :     0.819482  s :     0.819482
      pz      :     0.004279  p :     0.019558
      px      :     0.004823
      py      :     0.010456


                     *******************************
                     * LOEWDIN POPULATION ANALYSIS *
                     *******************************

----------------------
LOEWDIN ATOMIC CHARGES
----------------------
   0 C :   -0.055008
   1 O :   -0.676601
   2 C :    0.186322
   3 C :   -0.165622
   4 C :   -0.165583
   5 C :   -0.256351
   6 Br:    0.186437
   7 C :   -0.165218
   8 C :   -0.122273
   9 H :    0.165826
  10 H :    0.180516
  11 H :    0.165826
  12 H :    0.178863
  13 H :    0.178450
  14 H :    0.179216
  15 H :    0.185200

-------------------------------
LOEWDIN REDUCED ORBITAL CHARGES
-------------------------------
  0 C s       :     2.899745  s :     2.899745
      pz      :     1.101851  p :     3.042215
      px      :     1.004863
      py      :     0.935501
      dz2     :     0.016790  d :     0.113048
      dxz     :     0.005225
      dyz     :     0.036809
      dx2y2   :     0.026153
      dxy     :     0.028070
  1 O s       :     3.464033  s :     3.464033
      pz      :     1.786580  p :     4.723182
      px      :     1.349296
      py      :     1.587306
      dz2     :     0.049114  d :     0.489386
      dxz     :     0.090031
      dyz     :     0.060789
      dx2y2   :     0.147897
      dxy     :     0.141554
  2 C s       :     2.776523  s :     2.776523
      pz      :     0.901777  p :     2.874810
      px      :     0.892155
      py      :     1.080877
      dz2     :     0.010964  d :     0.162346
      dxz     :     0.031633
      dyz     :     0.012975
      dx2y2   :     0.052035
      dxy     :     0.054739
  3 C s       :     2.890108  s :     2.890108
      pz      :     1.044951  p :     3.197246
      px      :     1.077970
      py      :     1.074325
      dz2     :     0.005741  d :     0.078268
      dxz     :     0.009353
      dyz     :     0.006061
      dx2y2   :     0.026358
      dxy     :     0.030754
  4 C s       :     2.903536  s :     2.903536
      pz      :     0.980877  p :     3.177898
      px      :     1.097461
      py      :     1.099560
      dz2     :     0.005922  d :     0.084149
      dxz     :     0.013024
      dyz     :     0.005741
      dx2y2   :     0.027645
      dxy     :     0.031817
  5 C s       :     2.924087  s :     2.924087
      pz      :     1.064796  p :     3.231864
      px      :     1.019756
      py      :     1.147312
      dz2     :     0.006866  d :     0.100400
      dxz     :     0.010274
      dyz     :     0.012952
      dx2y2   :     0.035187
      dxy     :     0.035120
  6 Brs       :     7.667366  s :     7.667366
      pz      :     5.921794  p :    17.076833
      px      :     5.232976
      py      :     5.922063
      dz2     :     2.009592  d :    10.069364
      dxz     :     2.019905
      dyz     :     2.000382
      dx2y2   :     2.028685
      dxy     :     2.010800
  7 C s       :     2.903570  s :     2.903570
      pz      :     0.979009  p :     3.177731
      px      :     1.106785
      py      :     1.091936
      dz2     :     0.005907  d :     0.083917
      dxz     :     0.011107
      dyz     :     0.007294
      dx2y2   :     0.027182
      dxy     :     0.032428
  8 C s       :     2.891208  s :     2.891208
      pz      :     1.004474  p :     3.153138
      px      :     1.068087
      py      :     1.080577
      dz2     :     0.005664  d :     0.077927
      dxz     :     0.010626
      dyz     :     0.004771
      dx2y2   :     0.025546
      dxy     :     0.031320
  9 H s       :     0.793209  s :     0.793209
      pz      :     0.021523  p :     0.040965
      px      :     0.007068
      py      :     0.012375
 10 H s       :     0.779805  s :     0.779805
      pz      :     0.007695  p :     0.039679
      px      :     0.023280
      py      :     0.008704
 11 H s       :     0.793208  s :     0.793208
      pz      :     0.021523  p :     0.040966
      px      :     0.007068
      py      :     0.012374
 12 H s       :     0.774621  s :     0.774621
      pz      :     0.010589  p :     0.046516
      px      :     0.013800
      py      :     0.022127
 13 H s       :     0.776583  s :     0.776583
      pz      :     0.008951  p :     0.044967
      px      :     0.010689
      py      :     0.025327
 14 H s       :     0.775827  s :     0.775827
      pz      :     0.008855  p :     0.044957
      px      :     0.014068
      py      :     0.022033
 15 H s       :     0.769863  s :     0.769863
      pz      :     0.009398  p :     0.044937
      px      :     0.010988
      py      :     0.024551


                      *****************************
                      * MAYER POPULATION ANALYSIS *
                      *****************************

  NA   - Mulliken gross atomic population
  ZA   - Total nuclear charge
  QA   - Mulliken gross atomic charge
  VA   - Mayer's total valence
  BVA  - Mayer's bonded valence
  FA   - Mayer's free valence

  ATOM       NA         ZA         QA         VA         BVA        FA
  0 C      6.3435     6.0000    -0.3435     3.7768     3.7768     0.0000
  1 O      8.1780     8.0000    -0.1780     2.0004     2.0004    -0.0000
  2 C      5.6688     6.0000     0.3312     3.8501     3.8501    -0.0000
  3 C      6.2332     6.0000    -0.2332     3.7595     3.7595    -0.0000
  4 C      6.2064     6.0000    -0.2064     3.8360     3.8360     0.0000
  5 C      5.8902     6.0000     0.1098     3.8053     3.8053     0.0000
  6 Br    35.1415    35.0000    -0.1415     1.0902     1.0902     0.0000
  7 C      6.1643     6.0000    -0.1643     3.7756     3.7756     0.0000
  8 C      6.2789     6.0000    -0.2789     3.8302     3.8302    -0.0000
  9 H      0.8455     1.0000     0.1545     0.9526     0.9526    -0.0000
 10 H      0.8439     1.0000     0.1561     0.9583     0.9583     0.0000
 11 H      0.8455     1.0000     0.1545     0.9526     0.9526     0.0000
 12 H      0.8479     1.0000     0.1521     0.9681     0.9681     0.0000
 13 H      0.8380     1.0000     0.1620     0.9661     0.9661     0.0000
 14 H      0.8353     1.0000     0.1647     0.9654     0.9654     0.0000
 15 H      0.8390     1.0000     0.1610     0.9674     0.9674    -0.0000

  Mayer bond orders larger than 0.100000
B(  0-C ,  1-O ) :   0.8654 B(  0-C ,  9-H ) :   0.9625 B(  0-C , 10-H ) :   0.9665 
B(  0-C , 11-H ) :   0.9625 B(  1-O ,  2-C ) :   1.0547 B(  2-C ,  3-C ) :   1.3777 
B(  2-C ,  8-C ) :   1.4087 B(  3-C ,  4-C ) :   1.3759 B(  3-C , 12-H ) :   0.9259 
B(  4-C ,  5-C ) :   1.4323 B(  4-C , 13-H ) :   0.9388 B(  5-C ,  6-Br) :   0.9789 
B(  5-C ,  7-C ) :   1.3697 B(  7-C ,  8-C ) :   1.3928 B(  7-C , 14-H ) :   0.9371 
B(  8-C , 15-H ) :   0.9449 

-------
TIMINGS
-------

Total SCF time: 0 days 0 hours 0 min 4 sec 

Total time                  ....       4.329 sec
Sum of individual times     ....       4.129 sec  ( 95.4%)

Fock matrix formation       ....       3.218 sec  ( 74.3%)
  Split-RI-J                ....       0.496 sec  ( 15.4% of F)
  XC integration            ....       2.085 sec  ( 64.8% of F)
    Basis function eval.    ....       0.286 sec  ( 13.7% of XC)
    Density eval.           ....       0.471 sec  ( 22.6% of XC)
    XC-Functional eval.     ....       0.234 sec  ( 11.2% of XC)
    XC-Potential eval.      ....       0.506 sec  ( 24.2% of XC)
Diagonalization             ....       0.067 sec  (  1.5%)
Density matrix formation    ....       0.007 sec  (  0.2%)
Population analysis         ....       0.009 sec  (  0.2%)
Initial guess               ....       0.051 sec  (  1.2%)
Orbital Transformation      ....       0.000 sec  (  0.0%)
Orbital Orthonormalization  ....       0.000 sec  (  0.0%)
DIIS solution               ....       0.242 sec  (  5.6%)
SOSCF solution              ....       0.051 sec  (  1.2%)
Grid generation             ....       0.485 sec  ( 11.2%)

Maximum memory used throughout the entire SCF-calculation: 28.7 MB


-------------------------------------------------------------------------------
                          DFT DISPERSION CORRECTION                            
                                                                               
                                 DFTD4 V2.5                                    
-------------------------------------------------------------------------------
The R2SCAN3C composite method is recognized
Using three-body term ABC
Active option DFTDOPT                   ...         5   

Starting D4
-------------------------   ----------------
Dispersion correction           -0.005644527
-------------------------   ----------------

------------------   -----------------
gCP correction             0.007230406
------------------   -----------------

-------------------------   --------------------
FINAL SINGLE POINT ENERGY     -2920.229520864739
-------------------------   --------------------



           ************************************************************
           *        Program running with 16 parallel MPI-processes    *
           *              working on a common directory               *
           ************************************************************
------------------------------------------------------------------------------
                         ORCA SCF GRADIENT CALCULATION
------------------------------------------------------------------------------

Gradient of the Kohn-Sham DFT energy:
Kohn-Sham wavefunction type      ... RKS
Hartree-Fock exchange scaling    ...    0.000
Number of operators              ...    1
Number of atoms                  ...   16
Basis set dimensions             ...  228
Integral neglect threshold       ... 2.5e-11
Integral primitive cutoff        ... 2.5e-12
SHARK Integral package           ... ON

Nuc. rep. gradient       (SHARK) ... done (  0.0 sec)
HCore & Overlap gradient (SHARK) ... done (  0.0 sec)
RI-J gradient            (SHARK) ... done (  0.2 sec)
Exchange-correlation gradient    ... done
Dispersion correction            ... Starting D4
Starting D4
Starting D4
Starting D4
Starting D4
Starting D4
Starting D4
Starting D4
Starting D4
Starting D4
Starting D4
Starting D4


------------------- 
Dispersion Gradient 
------------------- 
   1  :   -0.000088870   -0.000032051   -0.000000001
   2  :   -0.000075957    0.000017360    0.000000000
   3  :   -0.000040211    0.000019833    0.000000000
   4  :   -0.000022627   -0.000051207    0.000000001
   5  :    0.000056999   -0.000053302    0.000000000
   6  :    0.000071502   -0.000000404   -0.000000000
   7  :    0.000202107   -0.000016610   -0.000000000
   8  :    0.000047143    0.000059491   -0.000000000
   9  :   -0.000005305    0.000082686    0.000000000
  10  :   -0.000038326   -0.000014561    0.000014699
  11  :   -0.000041298    0.000000803   -0.000000000
  12  :   -0.000038326   -0.000014561   -0.000014699
  13  :   -0.000016574   -0.000037598    0.000000000
  14  :    0.000022850   -0.000040691    0.000000000
  15  :    0.000021657    0.000036556   -0.000000000
  16  :   -0.000011660    0.000048951    0.000000000

  |G| =    0.001357486

done
gCP correction                   ... Starting D4
Starting D4
Starting D4
Starting D4
done

------------------
CARTESIAN GRADIENT
------------------

   1   C   :    0.001735146    0.003701106   -0.000000930
   2   O   :    0.000474274   -0.009225337    0.000000539
   3   C   :   -0.001275592    0.000742015   -0.000000963
   4   C   :   -0.000682917    0.001968531    0.000000407
   5   C   :   -0.000010299    0.002601312    0.000000009
   6   C   :    0.003103941   -0.001048029   -0.000000289
   7   Br  :   -0.006542646    0.000484917    0.000000056
   8   C   :   -0.001381576   -0.001432280    0.000000355
   9   C   :    0.001407224   -0.001551056    0.000000049
  10   H   :    0.000334542    0.002392640   -0.002958588
  11   H   :    0.003048274   -0.001025110   -0.000000087
  12   H   :    0.000334265    0.002393166    0.002959578
  13   H   :    0.000767827    0.002405346   -0.000000062
  14   H   :   -0.000742364    0.002505153    0.000000012
  15   H   :   -0.001194975   -0.002284528   -0.000000037
  16   H   :    0.000667980   -0.002623152   -0.000000049

Difference to translation invariance:
           :    0.0000431034    0.0000046928    0.0000000003

Difference to rotation invariance:
           :    0.0000000875   -0.0000000964   -0.0002586419

Norm of the cartesian gradient     ...    0.0156254391
RMS gradient                       ...    0.0022553379
MAX gradient                       ...    0.0092253373

-------
TIMINGS
-------

Total SCF gradient time            ...        0.752 sec

One electron gradient       ....       0.024 sec  (  3.2%)
RI-J Coulomb gradient       ....       0.229 sec  ( 30.5%)
XC gradient                 ....       0.328 sec  ( 43.5%)

Maximum memory used throughout the entire SCFGRAD-calculation: 31.0 MB
------------------------------------------------------------------------------
                         ORCA GEOMETRY RELAXATION STEP
------------------------------------------------------------------------------

Reading the OPT-File                    .... done
Getting information on internals        .... done
Copying old internal coords+grads       .... done
Making the new internal coordinates     .... (new redundants).... done
Validating the new internal coordinates .... (new redundants).... done
Calculating the B-matrix                .... done
Calculating the G,G- and P matrices     .... done
Transforming gradient to internals      .... done
Projecting the internal gradient        .... done
Number of atoms                         ....  16
Number of internal coordinates          ....  70
Current Energy                          .... -2920.229520865 Eh
Current gradient norm                   ....     0.015625439 Eh/bohr
Maximum allowed component of the step   ....  0.300
Current trust radius                    ....  0.300
Evaluating the initial hessian          ....  (Almloef) done
Projecting the Hessian                  .... done
Forming the augmented Hessian           .... done
Diagonalizing the augmented Hessian     .... done
Last element of RFO vector              ....  0.999143052
Lowest eigenvalues of augmented Hessian:
 -0.000759168  0.021389376  0.026536732  0.026851734  0.027105162
Length of the computed step             ....  0.041425859
The final length of the internal step   ....  0.041425859
Converting the step to cartesian space:
 Initial RMS(Int)=    0.0049513372
Transforming coordinates:
 Iter   0:  RMS(Cart)=    0.0148379180 RMS(Int)=    1.3007521075
 Iter   1:  RMS(Cart)=    0.0000468812 RMS(Int)=    0.0000211172
 Iter   2:  RMS(Cart)=    0.0000003663 RMS(Int)=    0.0000002162
 Iter   3:  RMS(Cart)=    0.0000000030 RMS(Int)=    0.0000000016
done
Storing new coordinates                 .... done

                                .--------------------.
          ----------------------|Geometry convergence|-------------------------
          Item                value                   Tolerance       Converged
          ---------------------------------------------------------------------
          RMS gradient        0.0022753443            0.0001000000      NO
          MAX gradient        0.0092235337            0.0003000000      NO
          RMS step            0.0049513372            0.0020000000      NO
          MAX step            0.0199928328            0.0040000000      NO
          ........................................................
          Max(Bonds)      0.0106      Max(Angles)    0.25
          Max(Dihed)        0.15      Max(Improp)    0.00
          ---------------------------------------------------------------------

The optimization has not yet converged - more geometry cycles are needed


    ---------------------------------------------------------------------------
                         Redundant Internal Coordinates
                            (Angstroem and degrees)

        Definition                    Value    dE/dq     Step     New-Value
    ----------------------------------------------------------------------------
     1. B(O   1,C   0)                1.4103 -0.009224  0.0094    1.4197   
     2. B(C   2,O   1)                1.3549 -0.006125  0.0051    1.3600   
     3. B(C   3,C   2)                1.3906 -0.005794  0.0049    1.3955   
     4. B(C   4,C   3)                1.3912 -0.003050  0.0026    1.3938   
     5. B(C   5,C   4)                1.3806 -0.004945  0.0040    1.3846   
     6. B(Br  6,C   5)                1.8958 -0.006563  0.0106    1.9064   
     7. B(C   7,C   5)                1.3894 -0.004040  0.0034    1.3928   
     8. B(C   8,C   7)                1.3805 -0.003781  0.0031    1.3836   
     9. B(C   8,C   2)                1.3948 -0.004246  0.0037    1.3984   
    10. B(H   9,C   0)                1.0932 -0.003705  0.0055    1.0987   
    11. B(H  10,C   0)                1.0863 -0.003213  0.0046    1.0910   
    12. B(H  11,C   0)                1.0932 -0.003706  0.0055    1.0987   
    13. B(H  12,C   3)                1.0799 -0.002427  0.0034    1.0833   
    14. B(H  13,C   4)                1.0812 -0.002585  0.0037    1.0848   
    15. B(H  14,C   7)                1.0811 -0.002557  0.0036    1.0848   
    16. B(H  15,C   8)                1.0816 -0.002646  0.0038    1.0854   
    17. A(H   9,C   0,H  10)          109.44  0.000718   -0.17    109.26   
    18. A(O   1,C   0,H  11)          111.17 -0.001145    0.22    111.39   
    19. A(O   1,C   0,H  10)          106.22  0.000476   -0.11    106.11   
    20. A(H   9,C   0,H  11)          109.35  0.000431   -0.00    109.35   
    21. A(O   1,C   0,H   9)          111.17 -0.001145    0.22    111.39   
    22. A(H  10,C   0,H  11)          109.44  0.000718   -0.17    109.26   
    23. A(C   0,O   1,C   2)          117.82 -0.001582    0.22    118.04   
    24. A(O   1,C   2,C   3)          124.31 -0.001866    0.25    124.56   
    25. A(C   3,C   2,C   8)          119.69  0.000067   -0.01    119.68   
    26. A(O   1,C   2,C   8)          116.00  0.001799   -0.24    115.76   
    27. A(C   2,C   3,C   4)          119.77 -0.000082    0.01    119.78   
    28. A(C   4,C   3,H  12)          118.97  0.000748   -0.12    118.85   
    29. A(C   2,C   3,H  12)          121.26 -0.000666    0.11    121.37   
    30. A(C   3,C   4,H  13)          119.89  0.000188   -0.04    119.86   
    31. A(C   5,C   4,H  13)          120.10 -0.000624    0.09    120.19   
    32. A(C   3,C   4,C   5)          120.01  0.000435   -0.06    119.95   
    33. A(Br  6,C   5,C   7)          119.66  0.000403   -0.05    119.61   
    34. A(C   4,C   5,C   7)          120.55 -0.000561    0.07    120.62   
    35. A(C   4,C   5,Br  6)          119.79  0.000158   -0.02    119.77   
    36. A(C   8,C   7,H  14)          120.29  0.000285   -0.05    120.24   
    37. A(C   5,C   7,H  14)          120.14 -0.000386    0.06    120.21   
    38. A(C   5,C   7,C   8)          119.56  0.000101   -0.02    119.55   
    39. A(C   7,C   8,H  15)          120.99  0.000558   -0.09    120.90   
    40. A(C   2,C   8,H  15)          118.59 -0.000596    0.10    118.69   
    41. A(C   2,C   8,C   7)          120.42  0.000039   -0.01    120.41   
    42. D(C   2,O   1,C   0,H  10)   -180.00  0.000000   -0.00   -180.00   
    43. D(C   2,O   1,C   0,H  11)    -61.03  0.000525   -0.15    -61.19   
    44. D(C   2,O   1,C   0,H   9)     61.04 -0.000525    0.15     61.19   
    45. D(C   8,C   2,O   1,C   0)    180.00 -0.000000    0.00    180.00   
    46. D(C   3,C   2,O   1,C   0)     -0.00 -0.000000    0.00     -0.00   
    47. D(C   4,C   3,C   2,O   1)   -180.00  0.000000   -0.00   -180.00   
    48. D(C   4,C   3,C   2,C   8)     -0.00 -0.000000    0.00     -0.00   
    49. D(H  12,C   3,C   2,O   1)      0.00  0.000000   -0.00      0.00   
    50. D(H  12,C   3,C   2,C   8)    180.00 -0.000000    0.00    180.00   
    51. D(H  13,C   4,C   3,H  12)     -0.00 -0.000000    0.00      0.00   
    52. D(H  13,C   4,C   3,C   2)   -180.00  0.000000   -0.00   -180.00   
    53. D(C   5,C   4,C   3,H  12)   -180.00  0.000000   -0.00   -180.00   
    54. D(C   5,C   4,C   3,C   2)      0.00  0.000000   -0.00      0.00   
    55. D(Br  6,C   5,C   4,H  13)     -0.00 -0.000000    0.00      0.00   
    56. D(Br  6,C   5,C   4,C   3)    180.00 -0.000000    0.00    180.00   
    57. D(C   7,C   5,C   4,H  13)   -180.00  0.000000   -0.00   -180.00   
    58. D(C   7,C   5,C   4,C   3)      0.00  0.000000   -0.00     -0.00   
    59. D(H  14,C   7,C   5,Br  6)      0.00  0.000000   -0.00      0.00   
    60. D(H  14,C   7,C   5,C   4)    180.00 -0.000000    0.00    180.00   
    61. D(C   8,C   7,C   5,Br  6)    180.00 -0.000000    0.00    180.00   
    62. D(C   8,C   7,C   5,C   4)     -0.00 -0.000000    0.00     -0.00   
    63. D(H  15,C   8,C   7,H  14)     -0.00 -0.000000    0.00     -0.00   
    64. D(H  15,C   8,C   7,C   5)   -180.00  0.000000   -0.00   -180.00   
    65. D(C   2,C   8,C   7,H  14)    180.00 -0.000000    0.00    180.00   
    66. D(C   2,C   8,C   7,C   5)      0.00  0.000000   -0.00      0.00   
    67. D(H  15,C   8,C   2,C   3)   -180.00  0.000000   -0.00   -180.00   
    68. D(H  15,C   8,C   2,O   1)     -0.00 -0.000000    0.00     -0.00   
    69. D(C   7,C   8,C   2,C   3)      0.00  0.000000   -0.00     -0.00   
    70. D(C   7,C   8,C   2,O   1)    180.00 -0.000000    0.00    180.00   
    ----------------------------------------------------------------------------

         *************************************************************
         *                GEOMETRY OPTIMIZATION CYCLE   2            *
         *************************************************************
---------------------------------
CARTESIAN COORDINATES (ANGSTROEM)
---------------------------------
  C     -4.235694   -0.627937   -0.000019
  O     -3.373986    0.500284    0.000011
  C     -2.031989    0.279658    0.000006
  C     -1.437371   -0.982852    0.000010
  C     -0.048020   -1.093780    0.000007
  C      0.736590    0.047113    0.000002
  Br     2.636448   -0.110598   -0.000001
  C      0.150983    1.310813   -0.000001
  C     -1.227950    1.423833    0.000001
  H     -4.087074   -1.245590    0.896337
  H     -5.252417   -0.232346   -0.000038
  H     -4.087033   -1.245573   -0.896379
  H     -2.033909   -1.887153    0.000015
  H      0.415466   -2.074615    0.000010
  H      0.772095    2.200165   -0.000006
  H     -1.707368    2.397571   -0.000002

----------------------------
CARTESIAN COORDINATES (A.U.)
----------------------------
  NO LB      ZA    FRAG     MASS         X           Y           Z
   0 C     6.0000    0    12.011   -8.004302   -1.186629   -0.000035
   1 O     8.0000    0    15.999   -6.375909    0.945400    0.000021
   2 C     6.0000    0    12.011   -3.839903    0.528477    0.000012
   3 C     6.0000    0    12.011   -2.716237   -1.857321    0.000019
   4 C     6.0000    0    12.011   -0.090745   -2.066945    0.000014
   5 C     6.0000    0    12.011    1.391953    0.089031    0.000003
   6 Br   35.0000    0    79.900    4.982165   -0.209000   -0.000002
   7 C     6.0000    0    12.011    0.285317    2.477078   -0.000002
[...]
     35       0.085310  -0.011192   0.018025   0.051974   0.065127  -0.176332
     36      -0.345725  -0.137871   0.388352   0.039545   0.284760  -0.177679
     37       0.247999   0.096549  -0.249720  -0.146853  -0.341568   0.116247
     38      -0.000002  -0.000000   0.000002   0.000001   0.000002  -0.000001
     39       0.170660  -0.462751   0.457444   0.102762  -0.355502  -0.101051
     40       0.107430  -0.089848   0.231320  -0.105657  -0.306266  -0.012545
     41       0.000000  -0.000001   0.000000   0.000001   0.000000  -0.000000
     42      -0.008641  -0.439262  -0.455686   0.117821   0.133570  -0.103331
     43      -0.036023   0.156840   0.325295  -0.130642  -0.277288   0.054049
     44       0.000000  -0.000001  -0.000002   0.000001   0.000001  -0.000000
     45      -0.079726  -0.094485  -0.385837  -0.063759  -0.372381  -0.088078
     46      -0.048954  -0.093091  -0.181324  -0.095873  -0.322043  -0.027652
     47       0.000000   0.000000  -0.000000   0.000001   0.000000  -0.000000
                 36         37         38         39         40         41    
      0      -0.000000  -0.036093   0.014798   0.011128   0.022583  -0.007503
      1      -0.000001   0.032503   0.031182  -0.014676   0.015035  -0.047565
      2       0.055464   0.000001   0.000000  -0.000000   0.000000  -0.000000
      3      -0.000000  -0.024698   0.046711  -0.031046   0.027872  -0.002843
      4      -0.000000   0.013289   0.013130   0.039184   0.007621  -0.002176
      5       0.010615   0.000000   0.000000   0.000000   0.000000  -0.000000
      6      -0.000000   0.030284  -0.147907   0.053884  -0.243915   0.002499
      7       0.000000  -0.012054  -0.011030  -0.395302  -0.072230  -0.000289
      8       0.001250   0.000000  -0.000000   0.000001  -0.000000   0.000000
      9      -0.000000   0.009164   0.042726  -0.154964   0.258764   0.000394
     10      -0.000000   0.006718  -0.077330   0.266069  -0.050802   0.001132
     11      -0.001342   0.000000   0.000000  -0.000001   0.000001  -0.000000
     12       0.000000  -0.024466   0.117303  -0.071616  -0.278712   0.000094
     13       0.000000  -0.003309   0.083886  -0.207129  -0.094941   0.000249
     14      -0.000430  -0.000000   0.000000   0.000000  -0.000000  -0.000000
     15      -0.000000   0.015865  -0.117281   0.009477   0.129741  -0.000036
     16       0.000000  -0.012721   0.014140   0.339103   0.079313  -0.000060
     17       0.000238   0.000000  -0.000000  -0.000001   0.000000  -0.000000
     18       0.000000  -0.000110   0.001068  -0.000407   0.000723  -0.000007
     19      -0.000000   0.000127  -0.000041  -0.001102  -0.000458  -0.000004
     20       0.000001  -0.000000   0.000000   0.000000   0.000000   0.000000
     21      -0.000000  -0.007963   0.125357   0.155167  -0.245362   0.000042
     22      -0.000000   0.019448  -0.114496  -0.237336   0.028387  -0.000065
     23      -0.000157  -0.000000   0.000000   0.000001  -0.000001  -0.000000
     24       0.000001  -0.021866   0.038060   0.011711   0.347903  -0.000603
     25       0.000000  -0.012544   0.088783   0.189894   0.111693   0.000019
     26      -0.000506  -0.000000  -0.000000  -0.000000   0.000001   0.000000
     27       0.487908   0.252324  -0.081329   0.023137  -0.080931  -0.094316
     28      -0.016881  -0.454018  -0.249366   0.006398  -0.084330   0.361354
     29      -0.068013  -0.360798  -0.168668   0.013029  -0.055931  -0.552951
     30       0.000007   0.127603  -0.026732   0.064235  -0.004069   0.303769
     31       0.000000   0.400986  -0.095759   0.115660  -0.070789  -0.121163
     32      -0.714069  -0.000009  -0.000002   0.000002  -0.000000   0.000003
     33      -0.487909   0.252300  -0.081335   0.023138  -0.080933  -0.094328
     34       0.016900  -0.454020  -0.249367   0.006397  -0.084331   0.361349
     35      -0.068038   0.360799   0.168664  -0.013028   0.055929   0.552949
     36      -0.000001  -0.007793  -0.372376   0.443045  -0.229136  -0.010067
     37       0.000000   0.020722   0.185708  -0.107095   0.273389  -0.012079
     38       0.031201   0.000000  -0.000001   0.000001  -0.000001   0.000000
     39      -0.000001   0.056870  -0.392732   0.274664   0.284362  -0.000578
     40      -0.000001   0.035400  -0.142879  -0.066609   0.167383   0.000328
     41      -0.001373   0.000000  -0.000001   0.000001   0.000000  -0.000000
     42      -0.000001   0.055204  -0.401518  -0.332034   0.113307   0.000635
     43       0.000000  -0.021327   0.242127   0.085947  -0.236418   0.001273
     44       0.001093   0.000000  -0.000001  -0.000001   0.000001  -0.000000
     45      -0.000002   0.082159  -0.340526  -0.147392  -0.395033   0.001510
     46      -0.000001   0.036334  -0.075904   0.132229  -0.245610  -0.001173
     47       0.001049   0.000000  -0.000001  -0.000001  -0.000000   0.000000
                 42         43         44         45         46         47    
      0       0.000001   0.078468  -0.000407   0.000906   0.000090   0.001139
      1       0.000000  -0.048227   0.000114  -0.000996  -0.000029  -0.001628
      2      -0.094794   0.000000  -0.000000   0.000000   0.000000   0.000000
      3       0.000000   0.000122  -0.000093  -0.000086   0.000262   0.000119
      4       0.000000   0.000431  -0.000126  -0.000106   0.000205  -0.000354
      5       0.000232  -0.000000  -0.000000  -0.000000  -0.000000   0.000000
      6      -0.000000  -0.000840   0.002301  -0.000415  -0.001963  -0.002227
      7      -0.000000  -0.000553   0.001326   0.000578  -0.001955   0.002715
      8       0.000403   0.000000   0.000000  -0.000000   0.000000  -0.000000
      9       0.000000   0.001191   0.002878  -0.016990   0.003977  -0.043495
     10       0.000000   0.001897   0.005742  -0.030583   0.005404  -0.065372
     11       0.000130  -0.000000  -0.000000   0.000000  -0.000000   0.000000
     12       0.000000   0.000089   0.003483  -0.031499  -0.000388   0.017838
     13       0.000000  -0.000274  -0.009134   0.070790  -0.000909  -0.034636
     14      -0.000034   0.000000   0.000000  -0.000000   0.000000   0.000000
     15      -0.000000  -0.000040   0.001572  -0.002385   0.002221   0.001845
     16      -0.000000   0.000017  -0.000595  -0.001996  -0.002743   0.001523
     17      -0.000034  -0.000000   0.000000  -0.000000   0.000000  -0.000000
     18      -0.000000  -0.000010  -0.000040   0.000047  -0.000052  -0.000034
     19      -0.000000  -0.000007   0.000004  -0.000009  -0.000000   0.000006
     20      -0.000007  -0.000000   0.000000  -0.000000  -0.000000   0.000000
     21      -0.000000  -0.000001   0.025044   0.005851   0.042493   0.003281
     22       0.000000  -0.000060   0.040370   0.007666   0.058771   0.005169
     23      -0.000026   0.000000  -0.000000  -0.000000  -0.000000  -0.000000
     24      -0.000000  -0.000041   0.028815   0.003214  -0.024301  -0.000485
     25       0.000000  -0.000015  -0.063681  -0.007074   0.045109   0.001979
     26      -0.000059   0.000000   0.000000   0.000000  -0.000000  -0.000000
     27       0.114094  -0.021824   0.000388  -0.001707   0.000132  -0.003461
     28      -0.394816   0.109655   0.000312   0.004239  -0.000640   0.007742
     29       0.571287  -0.185901   0.000072  -0.006987   0.000845  -0.012143
     30       0.000003  -0.879015   0.002518  -0.010646   0.000540  -0.014450
     31      -0.000001   0.352122  -0.001638   0.005543  -0.000045   0.008348
     32      -0.021863  -0.000009   0.000000  -0.000000  -0.000000  -0.000000
     33      -0.114107  -0.021829   0.000388  -0.001707   0.000132  -0.003462
     34       0.394814   0.109656   0.000312   0.004239  -0.000640   0.007742
     35       0.571288   0.185904  -0.000072   0.006987  -0.000845   0.012143
     36       0.000000  -0.016085  -0.041851   0.229720  -0.044026   0.497282
     37      -0.000000  -0.021224  -0.065139   0.350666  -0.065254   0.747251
     38       0.001243   0.000000   0.000000  -0.000001   0.000000  -0.000001
     39       0.000000  -0.001858  -0.048128   0.376564  -0.002638  -0.181806
     40      -0.000000   0.004081   0.104045  -0.809017   0.007267   0.384472
     41       0.000187  -0.000000  -0.000000   0.000003   0.000000  -0.000001
     42      -0.000000   0.000503  -0.317396  -0.063531  -0.465886  -0.038247
     43      -0.000000   0.000764  -0.461226  -0.091031  -0.667649  -0.055455
     44      -0.000031  -0.000000   0.000000   0.000000   0.000001   0.000000
     45      -0.000000  -0.000301  -0.350122  -0.038757   0.248045   0.008355
     46       0.000000   0.001240   0.733151   0.080323  -0.511330  -0.019572
     47      -0.000205  -0.000000  -0.000002  -0.000000   0.000002   0.000000


-----------
IR SPECTRUM
-----------

 Mode   freq       eps      Int      T**2         TX        TY        TZ
       cm**-1   L/(mol*cm) km/mol    a.u.
----------------------------------------------------------------------------
  6:     74.20   0.000254    1.28  0.001067  (-0.000000 -0.000002  0.032668)
  7:    128.47   0.000497    2.51  0.001208  (-0.000000 -0.000000 -0.034750)
  8:    182.03   0.000184    0.93  0.000316  ( 0.016708 -0.006051 -0.000000)
  9:    250.81   0.000039    0.20  0.000048  (-0.000000  0.000000  0.006955)
 10:    264.62   0.000395    2.00  0.000466  ( 0.021556  0.000983  0.000000)
 11:    317.80   0.000132    0.67  0.000129  (-0.008465  0.007594 -0.000002)
 12:    324.95   0.000489    2.47  0.000469  (-0.000000  0.000001  0.021662)
 13:    418.49   0.000000    0.00  0.000000  (-0.000000 -0.000000 -0.000088)
 14:    488.62   0.000066    0.33  0.000042  ( 0.003661 -0.005362  0.000003)
 15:    499.01   0.003415   17.26  0.002135  (-0.000001  0.000001  0.046211)
 16:    607.74   0.007386   37.32  0.003792  (-0.059804  0.014692 -0.000000)
 17:    643.55   0.000480    2.43  0.000233  (-0.015126  0.001989 -0.000000)
 18:    685.40   0.000173    0.88  0.000079  (-0.000000 -0.000000 -0.008883)
 19:    799.56   0.002291   11.58  0.000894  ( 0.000000  0.000001  0.029900)
 20:    809.43   0.000212    1.07  0.000082  (-0.004225 -0.007998  0.000000)
 21:    824.16   0.011242   56.81  0.004257  (-0.000000  0.000001  0.065242)
 22:    919.28   0.000002    0.01  0.000001  ( 0.000000 -0.000000 -0.000890)
 23:    950.97   0.000037    0.19  0.000012  ( 0.000001 -0.000000 -0.003481)
 24:   1021.63   0.003852   19.47  0.001177  ( 0.034275  0.001380  0.000000)
 25:   1056.34   0.012820   64.79  0.003787  ( 0.049261  0.036887  0.000000)
 26:   1085.18   0.003939   19.90  0.001133  ( 0.031561 -0.011682 -0.000000)
 27:   1132.77   0.002071   10.47  0.000571  ( 0.002935 -0.023704  0.000000)
 28:   1167.52   0.000076    0.38  0.000020  (-0.000000  0.000000 -0.004499)
 29:   1197.12   0.004774   24.13  0.001244  (-0.035246 -0.001471 -0.000000)
 30:   1206.94   0.004142   20.93  0.001071  ( 0.030387  0.012148  0.000000)
 31:   1277.64   0.049302  249.15  0.012042  ( 0.109242  0.010402  0.000000)
 32:   1318.89   0.000277    1.40  0.000065  (-0.000866  0.008046  0.000000)
 33:   1351.18   0.005049   25.51  0.001166  (-0.032623 -0.010088 -0.000000)
 34:   1434.34   0.000190    0.96  0.000041  ( 0.005723 -0.002945  0.000000)
 35:   1468.09   0.002862   14.46  0.000608  (-0.023183  0.008420  0.000000)
 36:   1484.89   0.002054   10.38  0.000432  (-0.000001  0.000000 -0.020775)
 37:   1499.36   0.013739   69.43  0.002860  ( 0.053422  0.002364 -0.000000)
 38:   1517.67   0.029582  149.49  0.006083  (-0.077989  0.000608 -0.000000)
 39:   1612.02   0.003140   15.87  0.000608  ( 0.023312 -0.008025  0.000000)
 40:   1630.74   0.006876   34.75  0.001316  (-0.035598 -0.006969 -0.000000)
 41:   2985.22   0.010232   51.71  0.001070  (-0.024641 -0.021504 -0.000000)
 42:   3060.46   0.005041   25.48  0.000514  ( 0.000000  0.000000 -0.022672)
 43:   3132.89   0.002762   13.96  0.000275  ( 0.015912 -0.004686  0.000000)
 44:   3188.23   0.000268    1.36  0.000026  ( 0.005053 -0.000845  0.000000)
 45:   3193.20   0.000215    1.09  0.000021  (-0.004583  0.000185 -0.000000)
 46:   3202.28   0.000124    0.62  0.000012  (-0.001162  0.003271 -0.000000)
 47:   3209.90   0.000587    2.97  0.000057  (-0.006716 -0.003460 -0.000000)

* The epsilon (eps) is given for a Dirac delta lineshape.
** The dipole moment derivative (T) already includes vibrational overlap.

The first frequency considered to be a vibration is 6
The total number of vibrations considered is 42


--------------------------
THERMOCHEMISTRY AT 298.15K
--------------------------

Temperature         ... 298.15 K
Pressure            ... 1.00 atm
Total Mass          ... 187.03 AMU

Throughout the following assumptions are being made:
  (1) The electronic state is orbitally nondegenerate
  (2) There are no thermally accessible electronically excited states
  (3) Hindered rotations indicated by low frequency modes are not
      treated as such but are treated as vibrations and this may
      cause some error
  (4) All equations used are the standard statistical mechanics
      equations for an ideal gas
  (5) All vibrations are strictly harmonic

freq.      74.20  E(vib)   ...       0.49 
freq.     128.47  E(vib)   ...       0.43 
freq.     182.03  E(vib)   ...       0.37 
freq.     250.81  E(vib)   ...       0.30 
freq.     264.62  E(vib)   ...       0.29 
freq.     317.80  E(vib)   ...       0.25 
freq.     324.95  E(vib)   ...       0.24 
freq.     418.49  E(vib)   ...       0.18 
freq.     488.62  E(vib)   ...       0.15 
freq.     499.01  E(vib)   ...       0.14 
freq.     607.74  E(vib)   ...       0.10 
freq.     643.55  E(vib)   ...       0.09 
freq.     685.40  E(vib)   ...       0.07 
freq.     799.56  E(vib)   ...       0.05 
freq.     809.43  E(vib)   ...       0.05 
freq.     824.16  E(vib)   ...       0.05 
freq.     919.28  E(vib)   ...       0.03 
freq.     950.97  E(vib)   ...       0.03 
freq.    1021.63  E(vib)   ...       0.02 
freq.    1056.34  E(vib)   ...       0.02 
freq.    1085.18  E(vib)   ...       0.02 
freq.    1132.77  E(vib)   ...       0.01 
freq.    1167.52  E(vib)   ...       0.01 
freq.    1197.12  E(vib)   ...       0.01 
freq.    1206.94  E(vib)   ...       0.01 
freq.    1277.64  E(vib)   ...       0.01 
freq.    1318.89  E(vib)   ...       0.01 
freq.    1351.18  E(vib)   ...       0.01 
freq.    1434.34  E(vib)   ...       0.00 
freq.    1468.09  E(vib)   ...       0.00 
freq.    1484.89  E(vib)   ...       0.00 
freq.    1499.36  E(vib)   ...       0.00 
freq.    1517.67  E(vib)   ...       0.00 
freq.    1612.02  E(vib)   ...       0.00 
freq.    1630.74  E(vib)   ...       0.00 
freq.    2985.22  E(vib)   ...       0.00 
freq.    3060.46  E(vib)   ...       0.00 
freq.    3132.89  E(vib)   ...       0.00 
freq.    3188.23  E(vib)   ...       0.00 
freq.    3193.20  E(vib)   ...       0.00 
freq.    3202.28  E(vib)   ...       0.00 
freq.    3209.90  E(vib)   ...       0.00 

------------
INNER ENERGY
------------

The inner energy is: U= E(el) + E(ZPE) + E(vib) + E(rot) + E(trans)
    E(el)   - is the total energy from the electronic structure calculation
              = E(kin-el) + E(nuc-el) + E(el-el) + E(nuc-nuc)
    E(ZPE)  - the the zero temperature vibrational energy from the frequency calculation
    E(vib)  - the the finite temperature correction to E(ZPE) due to population
              of excited vibrational states
    E(rot)  - is the rotational thermal energy
    E(trans)- is the translational thermal energy

Summary of contributions to the inner energy U:
Electronic energy                ...  -2920.23000848 Eh
Zero point energy                ...      0.12216354 Eh      76.66 kcal/mol
Thermal vibrational correction   ...      0.00550682 Eh       3.46 kcal/mol
Thermal rotational correction    ...      0.00141627 Eh       0.89 kcal/mol
Thermal translational correction ...      0.00141627 Eh       0.89 kcal/mol
-----------------------------------------------------------------------
Total thermal energy                  -2920.09950557 Eh


Summary of corrections to the electronic energy:
(perhaps to be used in another calculation)
Total thermal correction                  0.00833936 Eh       5.23 kcal/mol
Non-thermal (ZPE) correction              0.12216354 Eh      76.66 kcal/mol
-----------------------------------------------------------------------
Total correction                          0.13050290 Eh      81.89 kcal/mol


--------
ENTHALPY
--------

The enthalpy is H = U + kB*T
                kB is Boltzmann's constant
Total free energy                 ...  -2920.09950557 Eh 
Thermal Enthalpy correction       ...      0.00094421 Eh       0.59 kcal/mol
-----------------------------------------------------------------------
Total Enthalpy                    ...  -2920.09856136 Eh


Note: Rotational entropy computed according to Herzberg 
Infrared and Raman Spectra, Chapter V,1, Van Nostrand Reinhold, 1945 
Point Group:  Cs, Symmetry Number:   1  
Rotational constants in cm-1:     0.160243     0.015117     0.013851 

Vibrational entropy computed according to the QRRHO of S. Grimme
Chem.Eur.J. 2012 18 9955


-------
ENTROPY
-------

The entropy contributions are T*S = T*(S(el)+S(vib)+S(rot)+S(trans))
     S(el)   - electronic entropy
     S(vib)  - vibrational entropy
     S(rot)  - rotational entropy
     S(trans)- translational entropy
The entropies will be listed as multiplied by the temperature to get
units of energy

Electronic entropy                ...      0.00000000 Eh      0.00 kcal/mol
Vibrational entropy               ...      0.00917489 Eh      5.76 kcal/mol
Rotational entropy                ...      0.01437447 Eh      9.02 kcal/mol
Translational entropy             ...      0.01975798 Eh     12.40 kcal/mol
-----------------------------------------------------------------------
Final entropy term                ...      0.04330735 Eh     27.18 kcal/mol

In case the symmetry of your molecule has not been determined correctly
or in case you have a reason to use a different symmetry number we print 
out the resulting rotational entropy values for sn=1,12 :
 --------------------------------------------------------
|  sn= 1 | S(rot)=       0.01437447 Eh      9.02 kcal/mol|
|  sn= 2 | S(rot)=       0.01372002 Eh      8.61 kcal/mol|
|  sn= 3 | S(rot)=       0.01333719 Eh      8.37 kcal/mol|
|  sn= 4 | S(rot)=       0.01306556 Eh      8.20 kcal/mol|
|  sn= 5 | S(rot)=       0.01285487 Eh      8.07 kcal/mol|
|  sn= 6 | S(rot)=       0.01268273 Eh      7.96 kcal/mol|
|  sn= 7 | S(rot)=       0.01253718 Eh      7.87 kcal/mol|
|  sn= 8 | S(rot)=       0.01241110 Eh      7.79 kcal/mol|
|  sn= 9 | S(rot)=       0.01229990 Eh      7.72 kcal/mol|
|  sn=10 | S(rot)=       0.01220042 Eh      7.66 kcal/mol|
|  sn=11 | S(rot)=       0.01211043 Eh      7.60 kcal/mol|
|  sn=12 | S(rot)=       0.01202827 Eh      7.55 kcal/mol|
 --------------------------------------------------------


-------------------
GIBBS FREE ENERGY
-------------------

The Gibbs free energy is G = H - T*S

Total enthalpy                    ...  -2920.09856136 Eh 
Total entropy correction          ...     -0.04330735 Eh    -27.18 kcal/mol
-----------------------------------------------------------------------
Final Gibbs free energy         ...  -2920.14186871 Eh

For completeness - the Gibbs free energy minus the electronic energy
G-E(el)                           ...      0.08813976 Eh     55.31 kcal/mol


Timings for individual modules:

Sum of individual times         ...       60.149 sec (=   1.002 min)
GTO integral calculation        ...        2.133 sec (=   0.036 min)   3.5 %
SCF iterations                  ...       15.773 sec (=   0.263 min)  26.2 %
SCF Gradient evaluation         ...        4.098 sec (=   0.068 min)   6.8 %
Geometry relaxation             ...        0.114 sec (=   0.002 min)   0.2 %
Analytical frequency calculation...       38.031 sec (=   0.634 min)  63.2 %
                             ****ORCA TERMINATED NORMALLY****
TOTAL RUN TIME: 0 days 0 hours 1 minutes 1 seconds 615 msec
