      -----------------------------------------------------------      
     |                   =====================                   |     
     |                           x T B                           |     
     |                   =====================                   |     
     |                         S. Grimme                         |     
     |          Mulliken Center for Theoretical Chemistry        |     
     |                    University of Bonn                     |     
      -----------------------------------------------------------      

   * xtb version 6.7.0 (08769fc) compiled by 'albert@albert-system' on 2024-03-04

   xtb is free software: you can redistribute it and/or modify it under
   the terms of the GNU Lesser General Public License as published by
   the Free Software Foundation, either version 3 of the License, or
   (at your option) any later version.
   
   xtb is distributed in the hope that it will be useful,
   but WITHOUT ANY WARRANTY; without even the implied warranty of
   MERCHANTABILITY or FITNESS FOR A PARTICULAR PURPOSE.  See the
   GNU Lesser General Public License for more details.
   
   Cite this work as:
   * C. Bannwarth, E. Caldeweyher, S. Ehlert, A. Hansen, P. Pracht,
     J. Seibert, S. Spicher, S. Grimme, WIREs Comput. Mol. Sci., 2020, 11,
     e01493. DOI: 10.1002/wcms.1493
   
   for GFN2-xTB:
   * C. Bannwarth, S. Ehlert and S. Grimme., J. Chem. Theory Comput., 2019,
     15, 1652-1671. DOI: 10.1021/acs.jctc.8b01176
   for GFN1-xTB:
   * S. Grimme, C. Bannwarth, P. Shushkov, J. Chem. Theory Comput., 2017,
     13, 1989-2009. DOI: 10.1021/acs.jctc.7b00118
   for GFN0-xTB:
   * P. Pracht, E. Caldeweyher, S. Ehlert, S. Grimme, ChemRxiv, 2019, preprint.
     DOI: 10.26434/chemrxiv.8326202.v1
   for GFN-FF:
   * S. Spicher and S. Grimme, Angew. Chem. Int. Ed., 2020, 59, 15665-15673.
     DOI: 10.1002/anie.202004239
   
   for ALPB and GBSA implicit solvation:
   * S. Ehlert, M. Stahn, S. Spicher, S. Grimme, J. Chem. Theory Comput.,
     2021, 17, 4250-4261. DOI: 10.1021/acs.jctc.1c00471
   
   for ddCOSMO and CPCM-X implicit solvation:
   * M. Stahn, S. Ehlert, S. Grimme, J. Phys. Chem. A,
     2023, XX, XXXX-XXXX. DOI: 10.1021/acs.jpca.3c04382
   
   for DFT-D4:
   * E. Caldeweyher, C. Bannwarth and S. Grimme, J. Chem. Phys., 2017,
     147, 034112. DOI: 10.1063/1.4993215
   * E. Caldeweyher, S. Ehlert, A. Hansen, H. Neugebauer, S. Spicher,
     C. Bannwarth and S. Grimme, J. Chem. Phys., 2019, 150, 154122.
     DOI: 10.1063/1.5090222
   * E. Caldeweyher, J.-M. Mewes, S. Ehlert and S. Grimme, Phys. Chem. Chem. Phys.
     2020, 22, 8499-8512. DOI: 10.1039/D0CP00502A
   
   for sTDA-xTB:
   * S. Grimme and C. Bannwarth, J. Chem. Phys., 2016, 145, 054103.
     DOI: 10.1063/1.4959605
   
   in the mass-spec context:
   * V. Asgeirsson, C. Bauer and S. Grimme, Chem. Sci., 2017, 8, 4879.
     DOI: 10.1039/c7sc00601b
   * J. Koopman and S. Grimme, ACS Omega 2019, 4, 12, 15120-15133.
     DOI: 10.1021/acsomega.9b02011
   
   for metadynamics refer to:
   * S. Grimme, J. Chem. Theory Comput., 2019, 155, 2847-2862
     DOI: 10.1021/acs.jctc.9b00143
   
   for SPH calculations refer to:
   * S. Spicher and S. Grimme, J. Chem. Theory Comput., 2021, 17, 1701-1714
     DOI: 10.1021/acs.jctc.0c01306
   
   for ONIOM refer to:
   * C. Plett, A. Katbashev, S. Ehlert, S. Grimme, M. Bursch,
     Phys. Chem. Chem. Phys., 2023, 25, 17860-17868. DOI: 10.1039/D3CP02178E
   
   for DIPRO refer to:
   * J. Kohn, N. Gildemeister, S. Grimme, D. Fazzi, A. Hansen,
     J. Chem. Phys., 2023, just accepted.
   
   for PTB refer to:
   * S. Grimme, M. Mueller, A. Hansen, J. Chem. Phys., 2023, 158, 124111.
     DOI: 10.1063/5.0137838
   
   with help from (in alphabetical order)
   P. Atkinson, C. Bannwarth, F. Bohle, G. Brandenburg, E. Caldeweyher
   M. Checinski, S. Dohm, S. Ehlert, S. Ehrlich, I. Gerasimov, C. Hölzer
   A. Katbashev, J. Kohn, J. Koopman, C. Lavigne, S. Lehtola, F. März, M. Müller,
   F. Musil, H. Neugebauer, J. Pisarek, C. Plett, P. Pracht, F. Pultar,
   J. Seibert, P. Shushkov, S. Spicher, M. Stahn, M. Steiner, T. Strunk,
   J. Stückrath, T. Rose, and J. Unsleber
   
 * started run on 2024/09/25 at 09:27:06.653     
   ID    Z sym.   atoms
    1   35 Br     1
    2    6 C      2-4, 6-10
    3   53 I      5
    4    8 O      11
    5    1 H      12-17

           -------------------------------------------------
          |                Calculation Setup                |
           -------------------------------------------------

          program call               : xtb arbr48_xtb.xyz --opt
          hostname                   : dynamo.chem.colostate.edu
          coordinate file            : arbr48_xtb.xyz
          omp threads                :                    96


           -------------------------------------------------
          |                 G F N 2 - x T B                 |
           -------------------------------------------------

        Reference                      10.1021/acs.jctc.8b01176
      * Hamiltonian:
        H0-scaling (s, p, d)           1.850000    2.230000    2.230000
        zeta-weighting                 0.500000
      * Dispersion:
        s8                             2.700000
        a1                             0.520000
        a2                             5.000000
        s9                             5.000000
      * Repulsion:
        kExp                           1.500000    1.000000
        rExp                           1.000000
      * Coulomb:
        alpha                          2.000000
        third order                    shell-resolved
        anisotropic                    true
        a3                             3.000000
        a5                             4.000000
        cn-shift                       1.200000
        cn-exp                         4.000000
        max-rad                        5.000000


          ...................................................
          :                      SETUP                      :
          :.................................................:
          :  # basis functions                  62          :
          :  # atomic orbitals                  60          :
          :  # shells                           30          :
          :  # electrons                        58          :
          :  max. iterations                   250          :
          :  Hamiltonian                  GFN2-xTB          :
          :  restarted?                      false          :
          :  GBSA solvation                  false          :
          :  PC potential                    false          :
          :  electronic temp.          300.0000000     K    :
          :  accuracy                    1.0000000          :
          :  -> integral cutoff          0.2500000E+02      :
          :  -> integral neglect         0.1000000E-07      :
          :  -> SCF convergence          0.1000000E-05 Eh   :
          :  -> wf. convergence          0.1000000E-03 e    :
          :  Broyden damping             0.4000000          :
          :  net charge                          0          :
          :  unpaired electrons                  0          :
          ...................................................

 iter      E             dE          RMSdq      gap      omega  full diag
   1    -32.4930710 -0.324931E+02  0.639E+00    3.73       0.0  T
   2    -32.5251119 -0.320409E-01  0.425E+00    3.53       1.0  T
   3    -32.5107749  0.143369E-01  0.158E+00    3.52       1.0  T
   4    -32.5307774 -0.200024E-01  0.619E-01    3.53       1.0  T
   5    -32.5311497 -0.372363E-03  0.460E-01    3.52       1.0  T
   6    -32.5315492 -0.399479E-03  0.213E-01    3.52       1.0  T
   7    -32.5316534 -0.104236E-03  0.149E-01    3.54       1.0  T
   8    -32.5316905 -0.370849E-04  0.770E-02    3.53       1.0  T
   9    -32.5317128 -0.222659E-04  0.298E-02    3.53       1.0  T
  10    -32.5317154 -0.264886E-05  0.215E-02    3.53       1.1  T
  11    -32.5317167 -0.124810E-05  0.129E-02    3.53       1.9  T
  12    -32.5317171 -0.438109E-06  0.806E-03    3.53       3.0  T
  13    -32.5317172 -0.973166E-07  0.575E-03    3.53       4.2  T
  14    -32.5317174 -0.141928E-06  0.107E-03    3.53      22.7  T
  15    -32.5317174 -0.856957E-09  0.414E-04    3.53      58.5  T
  16    -32.5317174 -0.284075E-09  0.126E-04    3.53     192.1  T

   *** convergence criteria satisfied after 16 iterations ***

         #    Occupation            Energy/Eh            Energy/eV
      -------------------------------------------------------------
         1        2.0000           -0.8454091             -23.0048
       ...           ...                  ...                  ...
        23        2.0000           -0.4627680             -12.5926
        24        2.0000           -0.4575489             -12.4505
        25        2.0000           -0.4294679             -11.6864
        26        2.0000           -0.4206063             -11.4453
        27        2.0000           -0.4154865             -11.3060
        28        2.0000           -0.4130289             -11.2391
        29        2.0000           -0.3951742             -10.7532 (HOMO)
        30                         -0.2653373              -7.2202 (LUMO)
        31                         -0.2536722              -6.9028
        32                         -0.2361509              -6.4260
        33                         -0.2048829              -5.5751
        34                         -0.1373851              -3.7384
       ...                                ...                  ...
        60                          0.6354641              17.2919
      -------------------------------------------------------------
                  HL-Gap            0.1298369 Eh            3.5330 eV
             Fermi-level           -0.3302558 Eh           -8.9867 eV

 SCC (total)                   0 d,  0 h,  0 min,  0.690 sec
 SCC setup                      ...        0 min,  0.000 sec (  0.068%)
 Dispersion                     ...        0 min,  0.001 sec (  0.171%)
 classical contributions        ...        0 min,  0.001 sec (  0.098%)
 integral evaluation            ...        0 min,  0.610 sec ( 88.405%)
 iterations                     ...        0 min,  0.070 sec ( 10.191%)
 molecular gradient             ...        0 min,  0.007 sec (  0.982%)
 printout                       ...        0 min,  0.000 sec (  0.071%)

         :::::::::::::::::::::::::::::::::::::::::::::::::::::
         ::                     SUMMARY                     ::
         :::::::::::::::::::::::::::::::::::::::::::::::::::::
         :: total energy             -32.158703731310 Eh    ::
         :: gradient norm              0.020537710387 Eh/a0 ::
         :: HOMO-LUMO gap              3.533041256358 eV    ::
         ::.................................................::
         :: SCC energy               -32.531649140609 Eh    ::
         :: -> isotropic ES            0.019713113613 Eh    ::
         :: -> anisotropic ES          0.001531899561 Eh    ::
         :: -> anisotropic XC          0.004784368247 Eh    ::
         :: -> dispersion             -0.019332259304 Eh    ::
         :: repulsion energy           0.372945409299 Eh    ::
         :: add. restraining           0.000000000000 Eh    ::
         :: total charge              -0.000000000000 e     ::
         :::::::::::::::::::::::::::::::::::::::::::::::::::::

      ----------------------------------------------------------- 
     |                   =====================                   |
     |                        A N C O P T                        |
     |                   =====================                   |
     |               Approximate Normal Coordinate               |
     |                Rational Function Optimizer                |
      ----------------------------------------------------------- 
      ----------------------------------------------------------- 
     |                   =====================                   |
     |                        A N C O P T                        |
     |                   =====================                   |
     |               Approximate Normal Coordinate               |
     |                Rational Function Optimizer                |
      ----------------------------------------------------------- 

          ...................................................
          :                      SETUP                      :
          :.................................................:
          :   optimization level            normal          :
          :   max. optcycles                   200          :
          :   ANC micro-cycles                  20          :
          :   degrees of freedom                45          :
          :.................................................:
          :   RF solver                   davidson          :
          :   write xtbopt.log                true          :
          :   linear?                        false          :
          :   energy convergence         0.5000000E-05 Eh   :
          :   grad. convergence          0.1000000E-02 Eh/α :
          :   maxmium RF displ.          1.0000000          :
          :   Hlow (freq-cutoff)         0.1000000E-01      :
          :   Hmax (freq-cutoff)         5.0000000          :
          :   S6 in model hess.         20.0000000          :
          ...................................................

generating ANC from model Hessian ...
Using Lindh-Hessian (1995)
 Shifting diagonal of input Hessian by   7.103243626503157E-003
 Lowest  eigenvalues of input Hessian
    0.000000    0.000000    0.000000    0.000000    0.000000    0.000000
    0.010000    0.011494    0.014130    0.015965    0.019236    0.029447
    0.036097    0.045873    0.048883    0.050776    0.055814    0.058709
 Highest eigenvalues
    1.404885    1.549278    1.690536    1.883774    1.965764    2.079653
 

........................................................................
.............................. CYCLE    1 ..............................
........................................................................

 iter      E             dE          RMSdq      gap      omega  full diag
   1    -32.5317174 -0.325317E+02  0.756E-05    3.53       0.0  T
   2    -32.5317174 -0.493827E-11  0.578E-05    3.53     419.7  T
   3    -32.5317174  0.296296E-11  0.423E-05    3.53     572.8  T
     SCC iter.                  ...        0 min,  0.022 sec
     gradient                   ...        0 min,  0.007 sec
 * total energy  :   -32.1587037 Eh     change       -0.1704592E-10 Eh
   gradient norm :     0.0205381 Eh/α   predicted     0.0000000E+00 (-100.00%)
   displ. norm   :     0.0895300 α      lambda       -0.7626407E-03
   maximum displ.:     0.0670089 α      in ANC's #4, #16, #18, ...

........................................................................
.............................. CYCLE    2 ..............................
........................................................................

 iter      E             dE          RMSdq      gap      omega  full diag
   1    -32.5308008 -0.325308E+02  0.166E-01    3.54       0.0  T
   2    -32.5308186 -0.177685E-04  0.100E-01    3.54       1.0  T
   3    -32.5308121  0.645819E-05  0.527E-02    3.54       1.0  T
   4    -32.5308213 -0.918402E-05  0.369E-02    3.54       1.0  T
   5    -32.5308257 -0.438552E-05  0.198E-02    3.54       1.2  T
   6    -32.5308256  0.592825E-07  0.115E-02    3.54       2.1  T
   7    -32.5308261 -0.454854E-06  0.392E-03    3.54       6.2  T
   8    -32.5308262 -0.108854E-06  0.196E-03    3.54      12.4  T
   9    -32.5308262 -0.886881E-08  0.707E-04    3.54      34.3  T
  10    -32.5308262 -0.225124E-08  0.397E-04    3.54      61.1  T
     SCC iter.                  ...        0 min,  0.102 sec
     gradient                   ...        0 min,  0.007 sec
 * total energy  :   -32.1590523 Eh     change       -0.3485851E-03 Eh
   gradient norm :     0.0083745 Eh/α   predicted    -0.3843761E-03 (  10.27%)
   displ. norm   :     0.0265521 α      lambda       -0.1134611E-03
   maximum displ.:     0.0107080 α      in ANC's #5, #14, #16, ...

........................................................................
.............................. CYCLE    3 ..............................
........................................................................

 iter      E             dE          RMSdq      gap      omega  full diag
   1    -32.5319436 -0.325319E+02  0.524E-02    3.55       0.0  T
   2    -32.5319451 -0.157255E-05  0.361E-02    3.55       1.0  T
   3    -32.5319411  0.408152E-05  0.213E-02    3.55       1.1  T
   4    -32.5319463 -0.526609E-05  0.979E-03    3.55       2.5  T
   5    -32.5319464 -0.820654E-07  0.586E-03    3.55       4.1  T
   6    -32.5319464 -0.226085E-07  0.340E-03    3.55       7.1  T
   7    -32.5319465 -0.352672E-07  0.133E-03    3.55      18.3  T
   8    -32.5319465 -0.395869E-08  0.790E-04    3.55      30.7  T
   9    -32.5319465 -0.187585E-08  0.389E-04    3.55      62.4  T
     SCC iter.                  ...        0 min,  0.059 sec
     gradient                   ...        0 min,  0.022 sec
 * total energy  :   -32.1591223 Eh     change       -0.6995806E-04 Eh
   gradient norm :     0.0030912 Eh/α   predicted    -0.5677038E-04 ( -18.85%)
   displ. norm   :     0.0145442 α      lambda       -0.1780202E-04
   maximum displ.:     0.0087780 α      in ANC's #5, #11, #7, ...

........................................................................
.............................. CYCLE    4 ..............................
........................................................................

 iter      E             dE          RMSdq      gap      omega  full diag
   1    -32.5321435 -0.325321E+02  0.202E-02    3.55       0.0  T
   2    -32.5321439 -0.364535E-06  0.133E-02    3.55       1.8  T
   3    -32.5321436  0.262104E-06  0.692E-03    3.55       3.5  T
   4    -32.5321441 -0.423301E-06  0.315E-03    3.55       7.7  T
   5    -32.5321441 -0.229595E-07  0.213E-03    3.55      11.4  T
   6    -32.5321441 -0.320758E-08  0.153E-03    3.55      15.9  T
   7    -32.5321441 -0.741639E-08  0.711E-04    3.55      34.1  T
   8    -32.5321441 -0.125480E-08  0.409E-04    3.55      59.3  T
     SCC iter.                  ...        0 min,  0.063 sec
     gradient                   ...        0 min,  0.008 sec
 * total energy  :   -32.1591332 Eh     change       -0.1094423E-04 Eh
   gradient norm :     0.0010243 Eh/α   predicted    -0.8902680E-05 ( -18.65%)
   displ. norm   :     0.0184988 α      lambda       -0.3993824E-05
   maximum displ.:     0.0135058 α      in ANC's #5, #7, #3, ...

........................................................................
.............................. CYCLE    5 ..............................
........................................................................

 iter      E             dE          RMSdq      gap      omega  full diag
   1    -32.5320423 -0.325320E+02  0.127E-02    3.55       0.0  T
   2    -32.5320425 -0.171820E-06  0.756E-03    3.55       3.2  T
   3    -32.5320424  0.486127E-07  0.403E-03    3.55       6.0  T
   4    -32.5320425 -0.989838E-07  0.136E-03    3.55      17.8  T
   5    -32.5320425 -0.806345E-08  0.713E-04    3.55      34.0  T
   6    -32.5320425 -0.655398E-09  0.545E-04    3.55      44.5  T
     SCC iter.                  ...        0 min,  0.032 sec
     gradient                   ...        0 min,  0.017 sec
 * total energy  :   -32.1591366 Eh     change       -0.3354647E-05 Eh
   gradient norm :     0.0008519 Eh/α   predicted    -0.1995432E-05 ( -40.52%)
   displ. norm   :     0.0210319 α      lambda       -0.2326589E-05
   maximum displ.:     0.0121219 α      in ANC's #5, #1, #2, ...

   *** GEOMETRY OPTIMIZATION CONVERGED AFTER 5 ITERATIONS ***

------------------------------------------------------------------------
 total energy gain   :        -0.0004328 Eh       -0.2716 kcal/mol
 total RMSD          :         0.0217424 a0        0.0115 Å
 total power (kW/mol):        -0.2272853 (step)   -2.7908 (real)
------------------------------------------------------------------------

 ANCopt (total)                0 d,  0 h,  0 min,  0.407 sec
 optimizer setup                ...        0 min,  0.000 sec (  0.035%)
 model hessian                  ...        0 min,  0.020 sec (  4.964%)
 ANC generation                 ...        0 min,  0.010 sec (  2.425%)
 coordinate transformation      ...        0 min,  0.000 sec (  0.020%)
 single point calculation       ...        0 min,  0.366 sec ( 89.826%)
 optimization log               ...        0 min,  0.007 sec (  1.715%)
 hessian update                 ...        0 min,  0.003 sec (  0.663%)
 rational function              ...        0 min,  0.001 sec (  0.234%)

================
 final structure:
================
17
 xtb: 6.7.0 (08769fc)
Br           3.49951786544264       -0.89334675397520        0.00664493525648
C            1.81950240299147        0.00208181277649       -0.00084562291970
C            0.65976010546664       -0.75455474237269       -0.00012166251455
C           -0.57028678589585       -0.11604143816058       -0.00166531065930
I           -2.37274856108416       -1.20211913638393       -0.00201070192870
C           -0.61067409293245        1.26535162538685       -0.00373291764171
C            0.56933572564105        2.01229129554392       -0.00730179932910
C            1.79733195289517        1.39259378776484       -0.00607113653033
C            0.19050766039835        3.46420139562208       -0.02291365224817
C           -1.34975421012479        3.39203035522207        0.03978732224004
O           -1.72690946227294        2.01412875936459       -0.00428583808626
H            0.71392980273916       -1.83172333150088        0.00284962342672
H            2.71420599681211        1.96007448002117       -0.00856608704529
H            0.60930507443125        4.00205289205751        0.82808290814480
H            0.53844024396706        3.95081572580273       -0.93587367779106
H           -1.82940868387035        3.89523760190438       -0.80361093450379
H           -1.74361503460437        3.81458567092665        0.96951455212990
 
 Bond Distances (Angstroems)
 ---------------------------
Br1-C2=1.9038        C2-Br1=1.9038        C2-C3=1.3847         C2-C8=1.3907         C3-C2=1.3847         C3-C4=1.3859         
C3-H12=1.0785        C4-C3=1.3859         C4-I5=2.1044         C4-C6=1.3820         I5-C4=2.1044         C6-C4=1.3820         
C6-C7=1.3966         C6-O11=1.3441        C7-C6=1.3966         C7-C8=1.3755         C7-C9=1.5006         C8-C2=1.3907         
C8-C7=1.3755         C8-H13=1.0783        C9-C7=1.5006         C9-C10=1.5432        C9-H14=1.0904        C9-H15=1.0915        
C10-C9=1.5432        C10-O11=1.4293       C10-H16=1.0930       C10-H17=1.0946       O11-C6=1.3441        O11-C10=1.4293       
H12-C3=1.0785        H13-C8=1.0783        H14-C9=1.0904        H15-C9=1.0915        H16-C10=1.0930       H17-C10=1.0946       
 C  H  Rav=1.0877 sigma=0.0067  Rmin=1.0783  Rmax=1.0946     6
 C  C  Rav=1.4199 sigma=0.0601  Rmin=1.3755  Rmax=1.5432     8
 O  C  Rav=1.3867 sigma=0.0426  Rmin=1.3441  Rmax=1.4293     2
 Br C  Rav=1.9038 sigma=0.0000  Rmin=1.9038  Rmax=1.9038     1
 I  C  Rav=2.1044 sigma=0.0000  Rmin=2.1044  Rmax=2.1044     1
 
 selected bond angles (degree)
 --------------------
C3-C2-Br1=118.82               C8-C2-Br1=118.97               C8-C2-C3=122.21                C4-C3-C2=119.45                
H12-C3-C2=120.24               H12-C3-C4=120.31               I5-C4-C3=121.50                C6-C4-C3=119.11                
C6-C4-I5=119.40                C7-C6-C4=120.66                O11-C6-C4=125.53               O11-C6-C7=113.81               
C8-C7-C6=120.89                C9-C7-C6=107.71                C9-C7-C8=131.40                C7-C8-C2=117.69                
H13-C8-C2=120.84               H13-C8-C7=121.47               C10-C9-C7=101.91               H14-C9-C7=111.85               
H14-C9-C10=112.01              H15-C9-C7=111.07               H15-C9-C10=111.90              H15-C9-H14=108.09              
O11-C10-C9=107.89              H16-C10-C9=112.65              H16-C10-O11=107.71             H17-C10-C9=112.06              
H17-C10-O11=107.66             H17-C10-H16=108.65             
 
 selected dihedral angles (degree)
 ---------------------------------
C4-C3-C2-Br1=179.82           C4-C3-C2-C8=359.85            H12-C3-C2-Br1=359.89          H12-C3-C2-C8=179.93           
I5-C4-C3-C2=179.96            I5-C4-C3-H12=359.88           C6-C4-C3-C2=  0.00            C6-C4-C3-H12=179.92           
C7-C6-C4-C3=  0.14            C7-C6-C4-I5=180.18            O11-C6-C4-C3=180.06           O11-C6-C4-I5=  0.09           
C8-C7-C6-C4=359.87            C8-C7-C6-O11=179.94           C9-C7-C6-C4=179.43            C9-C7-C6-O11=359.51           
C7-C8-C2-Br1=180.19           C7-C8-C2-C3=  0.16            H13-C8-C2-Br1=  0.16          H13-C8-C2-C3=180.13           
C2-C8-C7-C6=  0.00            C2-C8-C7-C9=180.53            H13-C8-C7-C6=180.01           H13-C8-C7-C9=  0.56           
C10-C9-C7-C6=  2.54           C10-C9-C7-C8=182.05           H14-C9-C7-C6=122.35           H14-C9-C7-C8=301.86           
H15-C9-C7-C6=243.22           H15-C9-C7-C8= 62.72           O11-C10-C9-C7=356.29          O11-C10-C9-H14=236.59         
O11-C10-C9-H15=115.03         H16-C10-C9-C7=237.53          H16-C10-C9-H14=117.83         H16-C10-C9-H15=356.27         
H17-C10-C9-C7=114.64          H17-C10-C9-H14=354.94         H17-C10-C9-H15=233.38         
           -------------------------------------------------
          |                Final Singlepoint                |
           -------------------------------------------------

          ...................................................
          :                      SETUP                      :
          :.................................................:
          :  # basis functions                  62          :
          :  # atomic orbitals                  60          :
          :  # shells                           30          :
          :  # electrons                        58          :
          :  max. iterations                   250          :
          :  Hamiltonian                  GFN2-xTB          :
          :  restarted?                      false          :
          :  GBSA solvation                  false          :
          :  PC potential                    false          :
          :  electronic temp.          300.0000000     K    :
          :  accuracy                    1.0000000          :
          :  -> integral cutoff          0.2500000E+02      :
          :  -> integral neglect         0.1000000E-07      :
          :  -> SCF convergence          0.1000000E-05 Eh   :
          :  -> wf. convergence          0.1000000E-03 e    :
          :  Broyden damping             0.4000000          :
          :  net charge                          0          :
          :  unpaired electrons                  0          :
          ...................................................

 iter      E             dE          RMSdq      gap      omega  full diag
   1    -32.5320425 -0.325320E+02  0.319E-04    3.55       0.0  T
   2    -32.5320425 -0.147750E-09  0.270E-04    3.55      89.8  T
   3    -32.5320425 -0.747704E-10  0.219E-04    3.55     110.6  T

   *** convergence criteria satisfied after 3 iterations ***

         #    Occupation            Energy/Eh            Energy/eV
      -------------------------------------------------------------
         1        2.0000           -0.8450389             -22.9947
       ...           ...                  ...                  ...
        23        2.0000           -0.4620876             -12.5740
        24        2.0000           -0.4569148             -12.4333
        25        2.0000           -0.4291772             -11.6785
        26        2.0000           -0.4202442             -11.4354
        27        2.0000           -0.4145025             -11.2792
        28        2.0000           -0.4127756             -11.2322
        29        2.0000           -0.3951599             -10.7528 (HOMO)
        30                         -0.2648018              -7.2056 (LUMO)
        31                         -0.2549250              -6.9369
        32                         -0.2398405              -6.5264
        33                         -0.2067197              -5.6251
        34                         -0.1377999              -3.7497
       ...                                ...                  ...
        60                          0.6350687              17.2811
      -------------------------------------------------------------
                  HL-Gap            0.1303581 Eh            3.5472 eV
             Fermi-level           -0.3299808 Eh           -8.9792 eV

 SCC (total)                   0 d,  0 h,  0 min,  0.037 sec
 SCC setup                      ...        0 min,  0.001 sec (  3.444%)
 Dispersion                     ...        0 min,  0.001 sec (  1.802%)
 classical contributions        ...        0 min,  0.000 sec (  1.129%)
 integral evaluation            ...        0 min,  0.002 sec (  4.060%)
 iterations                     ...        0 min,  0.014 sec ( 38.131%)
 molecular gradient             ...        0 min,  0.019 sec ( 50.132%)
 printout                       ...        0 min,  0.000 sec (  1.067%)

         :::::::::::::::::::::::::::::::::::::::::::::::::::::
         ::                     SUMMARY                     ::
         :::::::::::::::::::::::::::::::::::::::::::::::::::::
         :: total energy             -32.159136574353 Eh    ::
         :: gradient norm              0.000850729375 Eh/a0 ::
         :: HOMO-LUMO gap              3.547224291115 eV    ::
         ::.................................................::
         :: SCC energy               -32.531974167383 Eh    ::
         :: -> isotropic ES            0.019640822045 Eh    ::
         :: -> anisotropic ES          0.001434932870 Eh    ::
         :: -> anisotropic XC          0.005233348940 Eh    ::
         :: -> dispersion             -0.019311520948 Eh    ::
         :: repulsion energy           0.372837593031 Eh    ::
         :: add. restraining           0.000000000000 Eh    ::
         :: total charge              -0.000000000000 e     ::
         :::::::::::::::::::::::::::::::::::::::::::::::::::::

           -------------------------------------------------
          |                Property Printout                |
           -------------------------------------------------

    * Orbital Energies and Occupations

         #    Occupation            Energy/Eh            Energy/eV
      -------------------------------------------------------------
         1        2.0000           -0.8450389             -22.9947
       ...           ...                  ...                  ...
        17        2.0000           -0.5214694             -14.1899
        18        2.0000           -0.5173014             -14.0765
        19        2.0000           -0.5093752             -13.8608
        20        2.0000           -0.4974801             -13.5371
        21        2.0000           -0.4840981             -13.1730
        22        2.0000           -0.4793185             -13.0429
        23        2.0000           -0.4620876             -12.5740
        24        2.0000           -0.4569148             -12.4333
        25        2.0000           -0.4291772             -11.6785
        26        2.0000           -0.4202442             -11.4354
        27        2.0000           -0.4145025             -11.2792
        28        2.0000           -0.4127756             -11.2322
        29        2.0000           -0.3951599             -10.7528 (HOMO)
        30                         -0.2648018              -7.2056 (LUMO)
        31                         -0.2549250              -6.9369
        32                         -0.2398405              -6.5264
        33                         -0.2067197              -5.6251
        34                         -0.1377999              -3.7497
        35                         -0.0191081              -0.5200
        36                          0.0131590               0.3581
        37                          0.0151894               0.4133
        38                          0.0228806               0.6226
        39                          0.0289475               0.7877
        40                          0.0331650               0.9025
       ...                                ...                  ...
        60                          0.6350687              17.2811
      -------------------------------------------------------------
                  HL-Gap            0.1303581 Eh            3.5472 eV
             Fermi-level           -0.3299808 Eh           -8.9792 eV

     #   Z          covCN         q      C6AA      α(0)
     1  35 Br       1.073    -0.154   189.314    22.185
     2   6 C        2.922     0.070    26.440     8.432
     3   6 C        3.114    -0.044    28.927     8.810
     4   6 C        2.952     0.026    27.425     8.589
     5  53 I        1.220    -0.096   379.070    33.610
     6   6 C        3.115     0.141    24.776     8.153
     7   6 C        3.006    -0.017    28.419     8.745
     8   6 C        2.988    -0.047    29.161     8.858
     9   6 C        3.835    -0.065    21.718     6.630
    10   6 C        3.785     0.072    19.390     6.272
    11   8 O        1.709    -0.246    18.079     5.741
    12   1 H        0.926     0.073     2.050     2.239
    13   1 H        0.926     0.062     2.170     2.304
    14   1 H        0.924     0.058     2.219     2.330
    15   1 H        0.924     0.059     2.215     2.327
    16   1 H        0.924     0.055     2.255     2.348
    17   1 H        0.924     0.053     2.284     2.363

 Mol. C6AA /au·bohr⁶  :       7522.086816
 Mol. C8AA /au·bohr⁸  :     316898.574387
 Mol. α(0) /au        :        139.937694


Wiberg/Mayer (AO) data.
largest (>0.10) Wiberg bond orders for each atom

 ---------------------------------------------------------------------------
     #   Z sym  total        # sym  WBO       # sym  WBO       # sym  WBO
 ---------------------------------------------------------------------------
     1  35 Br   1.104 --     2 C    0.985
     2   6 C    3.937 --     3 C    1.416     8 C    1.379     1 Br   0.985
     3   6 C    3.987 --     2 C    1.416     4 C    1.410    12 H    0.965
     4   6 C    3.955 --     3 C    1.410     6 C    1.362     5 I    0.976
     5  53 I    1.095 --     4 C    0.976
     6   6 C    3.945 --     4 C    1.362     7 C    1.305    11 O    1.096
     7   6 C    3.985 --     8 C    1.449     6 C    1.305     9 C    1.011
     8   6 C    3.989 --     7 C    1.449     2 C    1.379    13 H    0.966
     9   6 C    3.989 --     7 C    1.011    10 C    0.998    14 H    0.966
                            15 H    0.964
    10   6 C    3.939 --     9 C    0.998    16 H    0.974    17 H    0.973
                            11 O    0.957
    11   8 O    2.262 --     6 C    1.096    10 C    0.957
    12   1 H    0.994 --     3 C    0.965
    13   1 H    0.995 --     8 C    0.966
    14   1 H    0.996 --     9 C    0.966
    15   1 H    0.996 --     9 C    0.964
    16   1 H    0.996 --    10 C    0.974
    17   1 H    0.996 --    10 C    0.973
 ---------------------------------------------------------------------------

Topologies differ in total number of bonds
Writing topology from bond orders to xtbtopo.mol

molecular dipole:
                 x           y           z       tot (Debye)
 q only:        0.003       1.432       0.008
   full:        0.089       2.118       0.006       5.389
molecular quadrupole (traceless):
                xx          xy          yy          xz          yz          zz
 q only:      -12.564       1.205      13.243      -0.097       0.081      -0.680
  q+dip:      -22.777       0.782      17.438      -0.096       0.050       5.338
   full:      -21.883       1.115      16.413      -0.112       0.083       5.470

           -------------------------------------------------
          |                Geometry Summary                 |
           -------------------------------------------------

      molecular mass/u    :      324.9409363
   center of mass at/Å    :       -0.0554307      -0.1470565       0.0006943
  moments of inertia/u·Å² :        0.7569605E+03   0.1877218E+04   0.2627774E+04
rotational constants/cm⁻¹ :        0.2227016E-01   0.8980115E-02   0.6415175E-02

 * 17 selected distances

     #   Z          #   Z                                           value/Å
     1  35 Br       2   6 C                                       1.9037597
     2   6 C        3   6 C                                       1.3847389
     3   6 C        4   6 C                                       1.3858995
     4   6 C        5  53 I                                       2.1043845 (max)
     4   6 C        6   6 C                                       1.3819850
     6   6 C        7   6 C                                       1.3965512
     2   6 C        8   6 C                                       1.3906987
     7   6 C        8   6 C                                       1.3755005
     9   6 C       10   6 C                                       1.5432262
     6   6 C       11   8 O                                       1.3441165
    10   6 C       11   8 O                                       1.4292661
     3   6 C       12   1 H                                       1.0785340
     8   6 C       13   1 H                                       1.0782851 (min)
     9   6 C       14   1 H                                       1.0903536
     9   6 C       15   1 H                                       1.0914884
    10   6 C       16   1 H                                       1.0929807
    10   6 C       17   1 H                                       1.0945649

 * 5 distinct bonds (by element types)

   Z      Z             #   av. dist./Å        max./Å        min./Å
   1 H    6 C           6     1.0877011     1.0945649     1.0782851
   6 C    6 C           7     1.4083714     1.5432262     1.3755005
   6 C    8 O           2     1.3866913     1.4292661     1.3441165
   6 C   35 Br          1     1.9037597     1.9037597     1.9037597
   6 C   53 I           1     2.1043845     2.1043845     2.1043845


optimized geometry written to: xtbopt.xyz


           -------------------------------------------------
          | TOTAL ENERGY              -32.159136574353 Eh   |
          | GRADIENT NORM               0.000850729375 Eh/α |
          | HOMO-LUMO GAP               3.547224291115 eV   |
           -------------------------------------------------
########################################################################
[WARNING] Runtime exception occurred
-2- restart_readRestart: Dimension missmatch in restart file.
-1- restart_readRestart: Number of electron missmatch in restart file.
########################################################################

------------------------------------------------------------------------
 * finished run on 2024/09/25 at 09:27:07.926     
------------------------------------------------------------------------
 total:
 * wall-time:     0 d,  0 h,  0 min,  1.273 sec
 *  cpu-time:     0 d,  0 h,  0 min, 37.780 sec
 * ratio c/w:    29.679 speedup
 SCF:
 * wall-time:     0 d,  0 h,  0 min,  0.690 sec
 *  cpu-time:     0 d,  0 h,  0 min, 13.397 sec
 * ratio c/w:    19.416 speedup
 ANC optimizer:
 * wall-time:     0 d,  0 h,  0 min,  0.445 sec
 *  cpu-time:     0 d,  0 h,  0 min, 21.316 sec
 * ratio c/w:    47.854 speedup

