20
 energy: -32.469090060500 gnorm: 0.000424945565 xtb: 6.7.0 (08769fc)
N           -3.07938269503565       -2.31461647917935       -1.17036776887715
C           -2.77037860721933       -1.61755807278298       -0.31936168476022
C           -2.37976462784572       -0.71122011382270        0.73705865211556
C           -3.36402647208112        0.47612041251313        0.83780667163627
C           -2.78416621824827        1.55749016509582       -0.08722815788963
C           -1.31851300307423        1.24183072564168       -0.12189361799272
C           -0.26758093106602        2.02835816593377       -0.55082566001307
C            1.02168310202897        1.51821359863975       -0.50234690123334
C            1.23572784468484        0.23335528505053       -0.03288884686771
Br           3.01499959889691       -0.44762576897471        0.03085615343351
C            0.19201262388853       -0.57471481565399        0.39676993038944
C           -1.08060040683938       -0.04672496492702        0.35001081306075
H           -2.30764804929863       -1.28004936052117        1.66891334395413
H           -4.37759186476194        0.18958256509681        0.56016658796223
H           -3.37632834946479        0.83589117522971        1.86776209397729
H           -3.19874192334240        1.46947196768732       -1.09544728539745
H           -2.98828231247804        2.56527666639014        0.27364212292534
H           -0.43909941870155        3.02875841193415       -0.91768883980212
H            1.85771005908791        2.11757023985378       -0.82779444593788
H            0.37815165086995       -1.57613980320467        0.75383683931674
