19
arbr32_wb97xd.log	Energy:     -54.5138885
O         -3.33190        1.92613       -0.20083
C         -2.87551        0.79878       -0.06956
O         -3.67347       -0.29914        0.01161
C         -3.11923       -1.54788        0.46067
C         -1.84772       -1.88445       -0.29680
C         -0.89221       -0.74123       -0.12912
C          0.49433       -0.94131       -0.12974
C          1.35231        0.15157        0.00342
Br         3.22268       -0.12373        0.01246
C          0.84421        1.44443        0.12508
C         -0.53720        1.64944        0.10980
C         -1.40692        0.55898       -0.01644
H         -3.87313       -2.32286        0.28911
H         -2.95130       -1.48194        1.54260
H         -1.42185       -2.81687        0.08847
H         -2.05692       -2.00713       -1.36577
H          0.90185       -1.94445       -0.23366
H          1.51116        2.29740        0.22338
H         -0.93312        2.66055        0.18966
