23
 energy: -39.823789709276 gnorm: 0.000181017279 xtb: 6.7.0 (08769fc)
Br           5.88606418478825       -0.30480517286543       -0.00001029138821
C            4.02111146055879        0.09350974310654        0.00000565924454
C            3.61828836664807        1.42065331517411       -0.00000471398741
C            2.26939973422533        1.73033686791711        0.00000000988086
C            1.34511566338540        0.69696247887765        0.00000825391595
C            1.77030825260680       -0.64201034635857        0.00001409698191
C            3.11223311409882       -0.95570746409331        0.00001110576214
C            0.58844094132022       -1.56598691786591        0.00002496335163
C           -0.56795135163584       -0.61005580544966        0.00001865584746
C           -1.91820607854539       -0.88745245898128        0.00001749513061
C           -2.80081093138804        0.18230679959746        0.00000447103951
I           -4.88314609699435       -0.20731939627212        0.00001444695015
C           -2.36107477788537        1.49641101446713        0.00000341722115
C           -1.00438224235487        1.77220453341058        0.00000509912586
C           -0.10656119144425        0.71628597407327        0.00001080713901
H            4.35943870509468        2.20494928156105       -0.00000591529498
H            1.95032939194351        2.76111405843547       -0.00000178025956
H            3.45366618198125       -1.97967102253789        0.00001213473744
H            0.57983929975234       -2.21280703942409        0.88055714104734
H            0.57983644036307       -2.21282869249051       -0.88049077703353
H           -2.27874807573503       -1.90489325915745        0.00002165775016
H           -3.07568847372904        2.30492798087316       -0.00000412702469
H           -0.65996251705437        2.79491552800269       -0.00000181013733
