17
 energy: -26.906191220599 gnorm: 0.000555879614 xtb: 6.7.0 (08769fc)
Br          -2.64821825233762       -0.20666336543913        0.00000103618591
C           -0.77531440088899        0.16473095026458       -0.00000622580890
C           -0.35488359174740        1.48639258482008        0.00000478133118
C            0.99833772085502        1.77915030231205        0.00001259527390
C            1.90759258756201        0.73246005865045        0.00001012769723
C            1.46155330545173       -0.60069586154981        0.00000315847028
C            0.11683265208026       -0.89876415252798       -0.00000335140138
C            2.65019862251596       -1.50913654716339        0.00000467093328
C            3.79319648621238       -0.54132225126331        0.00000862529190
C            3.35612725400163        0.72311841836788        0.00001008352561
H           -1.08638929916954        2.28008564514333        0.00000210023070
H            1.33234914363626        2.80573832082296        0.00001148100644
H           -0.24034410455084       -1.91758609048184       -0.00000251653825
H            2.66891013222143       -2.15784802117450       -0.87911030007025
H            2.66890534716543       -2.15785465325424        0.87911491845368
H            4.81770744172170       -0.86782005785327        0.00001246153247
H            3.95868895527058        1.61368472032615        0.00001635388619
