20
arbr41_wb97xd.log	Energy:      51.4792789
N         -3.22164       -2.41969       -1.15279
C         -2.83922       -1.67761       -0.34566
C         -2.37879       -0.74397        0.69392
C         -3.32019        0.47319        0.82166
C         -2.77954        1.55787       -0.12436
C         -1.31590        1.24494       -0.11676
C         -0.27215        2.05531       -0.53132
C          1.02725        1.54547       -0.47127
C          1.25625        0.23965       -0.01174
Br         3.02645       -0.42495        0.05426
C          0.20036       -0.57910        0.39347
C         -1.08562       -0.06112        0.33622
H         -2.29647       -1.25351        1.66024
H         -4.37221        0.24182        0.62148
H         -3.26663        0.85377        1.85208
H         -3.18537        1.44333       -1.13461
H         -2.99506        2.56050        0.25556
H         -0.45260        3.06160       -0.89723
H          1.85933        2.16874       -0.79017
H          0.37993       -1.59297        0.73800
