      -----------------------------------------------------------      
     |                   =====================                   |     
     |                           x T B                           |     
     |                   =====================                   |     
     |                         S. Grimme                         |     
     |          Mulliken Center for Theoretical Chemistry        |     
     |                    University of Bonn                     |     
      -----------------------------------------------------------      

   * xtb version 6.7.0 (08769fc) compiled by 'albert@albert-system' on 2024-03-04

   xtb is free software: you can redistribute it and/or modify it under
   the terms of the GNU Lesser General Public License as published by
   the Free Software Foundation, either version 3 of the License, or
   (at your option) any later version.
   
   xtb is distributed in the hope that it will be useful,
   but WITHOUT ANY WARRANTY; without even the implied warranty of
   MERCHANTABILITY or FITNESS FOR A PARTICULAR PURPOSE.  See the
   GNU Lesser General Public License for more details.
   
   Cite this work as:
   * C. Bannwarth, E. Caldeweyher, S. Ehlert, A. Hansen, P. Pracht,
     J. Seibert, S. Spicher, S. Grimme, WIREs Comput. Mol. Sci., 2020, 11,
     e01493. DOI: 10.1002/wcms.1493
   
   for GFN2-xTB:
   * C. Bannwarth, S. Ehlert and S. Grimme., J. Chem. Theory Comput., 2019,
     15, 1652-1671. DOI: 10.1021/acs.jctc.8b01176
   for GFN1-xTB:
   * S. Grimme, C. Bannwarth, P. Shushkov, J. Chem. Theory Comput., 2017,
     13, 1989-2009. DOI: 10.1021/acs.jctc.7b00118
   for GFN0-xTB:
   * P. Pracht, E. Caldeweyher, S. Ehlert, S. Grimme, ChemRxiv, 2019, preprint.
     DOI: 10.26434/chemrxiv.8326202.v1
   for GFN-FF:
   * S. Spicher and S. Grimme, Angew. Chem. Int. Ed., 2020, 59, 15665-15673.
     DOI: 10.1002/anie.202004239
   
   for ALPB and GBSA implicit solvation:
   * S. Ehlert, M. Stahn, S. Spicher, S. Grimme, J. Chem. Theory Comput.,
     2021, 17, 4250-4261. DOI: 10.1021/acs.jctc.1c00471
   
   for ddCOSMO and CPCM-X implicit solvation:
   * M. Stahn, S. Ehlert, S. Grimme, J. Phys. Chem. A,
     2023, XX, XXXX-XXXX. DOI: 10.1021/acs.jpca.3c04382
   
   for DFT-D4:
   * E. Caldeweyher, C. Bannwarth and S. Grimme, J. Chem. Phys., 2017,
     147, 034112. DOI: 10.1063/1.4993215
   * E. Caldeweyher, S. Ehlert, A. Hansen, H. Neugebauer, S. Spicher,
     C. Bannwarth and S. Grimme, J. Chem. Phys., 2019, 150, 154122.
     DOI: 10.1063/1.5090222
   * E. Caldeweyher, J.-M. Mewes, S. Ehlert and S. Grimme, Phys. Chem. Chem. Phys.
     2020, 22, 8499-8512. DOI: 10.1039/D0CP00502A
   
   for sTDA-xTB:
   * S. Grimme and C. Bannwarth, J. Chem. Phys., 2016, 145, 054103.
     DOI: 10.1063/1.4959605
   
   in the mass-spec context:
   * V. Asgeirsson, C. Bauer and S. Grimme, Chem. Sci., 2017, 8, 4879.
     DOI: 10.1039/c7sc00601b
   * J. Koopman and S. Grimme, ACS Omega 2019, 4, 12, 15120-15133.
     DOI: 10.1021/acsomega.9b02011
   
   for metadynamics refer to:
   * S. Grimme, J. Chem. Theory Comput., 2019, 155, 2847-2862
     DOI: 10.1021/acs.jctc.9b00143
   
   for SPH calculations refer to:
   * S. Spicher and S. Grimme, J. Chem. Theory Comput., 2021, 17, 1701-1714
     DOI: 10.1021/acs.jctc.0c01306
   
   for ONIOM refer to:
   * C. Plett, A. Katbashev, S. Ehlert, S. Grimme, M. Bursch,
     Phys. Chem. Chem. Phys., 2023, 25, 17860-17868. DOI: 10.1039/D3CP02178E
   
   for DIPRO refer to:
   * J. Kohn, N. Gildemeister, S. Grimme, D. Fazzi, A. Hansen,
     J. Chem. Phys., 2023, just accepted.
   
   for PTB refer to:
   * S. Grimme, M. Mueller, A. Hansen, J. Chem. Phys., 2023, 158, 124111.
     DOI: 10.1063/5.0137838
   
   with help from (in alphabetical order)
   P. Atkinson, C. Bannwarth, F. Bohle, G. Brandenburg, E. Caldeweyher
   M. Checinski, S. Dohm, S. Ehlert, S. Ehrlich, I. Gerasimov, C. Hölzer
   A. Katbashev, J. Kohn, J. Koopman, C. Lavigne, S. Lehtola, F. März, M. Müller,
   F. Musil, H. Neugebauer, J. Pisarek, C. Plett, P. Pracht, F. Pultar,
   J. Seibert, P. Shushkov, S. Spicher, M. Stahn, M. Steiner, T. Strunk,
   J. Stückrath, T. Rose, and J. Unsleber
   
 * started run on 2024/09/25 at 09:25:19.605     
   ID    Z sym.   atoms
    1   35 Br     1
    2    6 C      2-14
    3    1 H      15-23

           -------------------------------------------------
          |                Calculation Setup                |
           -------------------------------------------------

          program call               : xtb arbr34_xtb.xyz --opt
          hostname                   : dynamo.chem.colostate.edu
          coordinate file            : arbr34_xtb.xyz
          omp threads                :                    96


           -------------------------------------------------
          |                 G F N 2 - x T B                 |
           -------------------------------------------------

        Reference                      10.1021/acs.jctc.8b01176
      * Hamiltonian:
        H0-scaling (s, p, d)           1.850000    2.230000    2.230000
        zeta-weighting                 0.500000
      * Dispersion:
        s8                             2.700000
        a1                             0.520000
        a2                             5.000000
        s9                             5.000000
      * Repulsion:
        kExp                           1.500000    1.000000
        rExp                           1.000000
      * Coulomb:
        alpha                          2.000000
        third order                    shell-resolved
        anisotropic                    true
        a3                             3.000000
        a5                             4.000000
        cn-shift                       1.200000
        cn-exp                         4.000000
        max-rad                        5.000000


          ...................................................
          :                      SETUP                      :
          :.................................................:
          :  # basis functions                  71          :
          :  # atomic orbitals                  70          :
          :  # shells                           38          :
          :  # electrons                        68          :
          :  max. iterations                   250          :
          :  Hamiltonian                  GFN2-xTB          :
          :  restarted?                      false          :
          :  GBSA solvation                  false          :
          :  PC potential                    false          :
          :  electronic temp.          300.0000000     K    :
          :  accuracy                    1.0000000          :
          :  -> integral cutoff          0.2500000E+02      :
          :  -> integral neglect         0.1000000E-07      :
          :  -> SCF convergence          0.1000000E-05 Eh   :
          :  -> wf. convergence          0.1000000E-03 e    :
          :  Broyden damping             0.4000000          :
          :  net charge                          0          :
          :  unpaired electrons                  0          :
          ...................................................

 iter      E             dE          RMSdq      gap      omega  full diag
   1    -37.0830586 -0.370831E+02  0.518E+00    3.34       0.0  T
   2    -37.1043798 -0.213212E-01  0.327E+00    3.23       1.0  T
   3    -37.0711248  0.332550E-01  0.155E+00    3.20       1.0  T
   4    -37.1125198 -0.413951E-01  0.432E-01    3.22       1.0  T
   5    -37.1124148  0.105017E-03  0.282E-01    3.22       1.0  T
   6    -37.1128517 -0.436852E-03  0.157E-01    3.23       1.0  T
   7    -37.1130091 -0.157416E-03  0.118E-01    3.23       1.0  T
   8    -37.1130532 -0.440618E-04  0.559E-02    3.23       1.0  T
   9    -37.1130755 -0.223550E-04  0.173E-02    3.23       1.2  T
  10    -37.1130779 -0.235582E-05  0.852E-03    3.23       2.4  T
  11    -37.1130781 -0.257980E-06  0.295E-03    3.23       7.1  T
  12    -37.1130783 -0.139476E-06  0.985E-04    3.23      21.2  T
  13    -37.1130783 -0.122896E-08  0.397E-04    3.23      52.5  T

   *** convergence criteria satisfied after 13 iterations ***

         #    Occupation            Energy/Eh            Energy/eV
      -------------------------------------------------------------
         1        2.0000           -0.8341771             -22.6991
       ...           ...                  ...                  ...
        28        2.0000           -0.4328718             -11.7790
        29        2.0000           -0.4278450             -11.6423
        30        2.0000           -0.4181348             -11.3780
        31        2.0000           -0.4120403             -11.2122
        32        2.0000           -0.4074280             -11.0867
        33        2.0000           -0.4045926             -11.0095
        34        2.0000           -0.3844578             -10.4616 (HOMO)
        35                         -0.2656609              -7.2290 (LUMO)
        36                         -0.2422283              -6.5914
        37                         -0.2313540              -6.2955
        38                         -0.2067533              -5.6260
        39                         -0.1982498              -5.3947
       ...                                ...                  ...
        70                          0.7061913              19.2164
      -------------------------------------------------------------
                  HL-Gap            0.1187970 Eh            3.2326 eV
             Fermi-level           -0.3250593 Eh           -8.8453 eV

 SCC (total)                   0 d,  0 h,  0 min,  0.895 sec
 SCC setup                      ...        0 min,  0.001 sec (  0.073%)
 Dispersion                     ...        0 min,  0.001 sec (  0.154%)
 classical contributions        ...        0 min,  0.001 sec (  0.063%)
 integral evaluation            ...        0 min,  0.423 sec ( 47.262%)
 iterations                     ...        0 min,  0.447 sec ( 49.935%)
 molecular gradient             ...        0 min,  0.021 sec (  2.367%)
 printout                       ...        0 min,  0.001 sec (  0.096%)

         :::::::::::::::::::::::::::::::::::::::::::::::::::::
         ::                     SUMMARY                     ::
         :::::::::::::::::::::::::::::::::::::::::::::::::::::
         :: total energy             -36.513533688162 Eh    ::
         :: gradient norm              0.039977828115 Eh/a0 ::
         :: HOMO-LUMO gap              3.232630823140 eV    ::
         ::.................................................::
         :: SCC energy               -37.113122362688 Eh    ::
         :: -> isotropic ES            0.005890533945 Eh    ::
         :: -> anisotropic ES          0.002094256857 Eh    ::
         :: -> anisotropic XC          0.018489566870 Eh    ::
         :: -> dispersion             -0.025686045089 Eh    ::
         :: repulsion energy           0.599588674526 Eh    ::
         :: add. restraining           0.000000000000 Eh    ::
         :: total charge              -0.000000000000 e     ::
         :::::::::::::::::::::::::::::::::::::::::::::::::::::

      ----------------------------------------------------------- 
     |                   =====================                   |
     |                        A N C O P T                        |
     |                   =====================                   |
     |               Approximate Normal Coordinate               |
     |                Rational Function Optimizer                |
      ----------------------------------------------------------- 
      ----------------------------------------------------------- 
     |                   =====================                   |
     |                        A N C O P T                        |
     |                   =====================                   |
     |               Approximate Normal Coordinate               |
     |                Rational Function Optimizer                |
      ----------------------------------------------------------- 

          ...................................................
          :                      SETUP                      :
          :.................................................:
          :   optimization level            normal          :
          :   max. optcycles                   200          :
          :   ANC micro-cycles                  20          :
          :   degrees of freedom                63          :
          :.................................................:
          :   RF solver                   davidson          :
          :   write xtbopt.log                true          :
          :   linear?                        false          :
          :   energy convergence         0.5000000E-05 Eh   :
          :   grad. convergence          0.1000000E-02 Eh/α :
          :   maxmium RF displ.          1.0000000          :
          :   Hlow (freq-cutoff)         0.1000000E-01      :
          :   Hmax (freq-cutoff)         5.0000000          :
          :   S6 in model hess.         20.0000000          :
          ...................................................

generating ANC from model Hessian ...
Using Lindh-Hessian (1995)
 Shifting diagonal of input Hessian by   7.846269205704403E-003
 Lowest  eigenvalues of input Hessian
    0.000000    0.000000    0.000000    0.000000    0.000000    0.000000
    0.010000    0.010927    0.014794    0.016410    0.018512    0.020506
    0.024630    0.027498    0.031406    0.034812    0.045730    0.046698
 Highest eigenvalues
    1.831740    1.859110    1.889964    1.918244    1.988741    2.055778
 

........................................................................
.............................. CYCLE    1 ..............................
........................................................................

 iter      E             dE          RMSdq      gap      omega  full diag
   1    -37.1130783 -0.371131E+02  0.180E-04    3.23       0.0  T
   2    -37.1130783 -0.712319E-10  0.140E-04    3.23     148.5  T
   3    -37.1130783 -0.517772E-10  0.108E-04    3.23     193.5  T
     SCC iter.                  ...        0 min,  0.064 sec
     gradient                   ...        0 min,  0.034 sec
 * total energy  :   -36.5135337 Eh     change       -0.2065107E-08 Eh
   gradient norm :     0.0399790 Eh/α   predicted     0.0000000E+00 (-100.00%)
   displ. norm   :     0.1220125 α      lambda       -0.3523738E-02
   maximum displ.:     0.0707958 α      in ANC's #32, #34, #18, ...

........................................................................
.............................. CYCLE    2 ..............................
........................................................................

 iter      E             dE          RMSdq      gap      omega  full diag
   1    -37.1408600 -0.371409E+02  0.137E-01    3.29       0.0  T
   2    -37.1408717 -0.117241E-04  0.880E-02    3.28       1.0  T
   3    -37.1408492  0.224923E-04  0.351E-02    3.28       1.0  T
   4    -37.1408772 -0.279247E-04  0.773E-03    3.28       2.7  T
   5    -37.1408783 -0.111452E-05  0.355E-03    3.28       5.9  T
   6    -37.1408784 -0.891674E-07  0.167E-03    3.28      12.5  T
   7    -37.1408784 -0.743920E-08  0.637E-04    3.28      32.8  T
   8    -37.1408784 -0.115661E-08  0.461E-04    3.28      45.2  T
     SCC iter.                  ...        0 min,  0.149 sec
     gradient                   ...        0 min,  0.033 sec
 * total energy  :   -36.5157247 Eh     change       -0.2190979E-02 Eh
   gradient norm :     0.0126565 Eh/α   predicted    -0.1788101E-02 ( -18.39%)
   displ. norm   :     0.0436840 α      lambda       -0.3527805E-03
   maximum displ.:     0.0219528 α      in ANC's #18, #34, #32, ...

........................................................................
.............................. CYCLE    3 ..............................
........................................................................

 iter      E             dE          RMSdq      gap      omega  full diag
   1    -37.1476567 -0.371477E+02  0.530E-02    3.30       0.0  T
   2    -37.1476596 -0.294634E-05  0.323E-02    3.29       1.0  T
   3    -37.1476586  0.101244E-05  0.124E-02    3.29       1.7  T
   4    -37.1476602 -0.155340E-05  0.488E-03    3.29       4.3  T
   5    -37.1476604 -0.234332E-06  0.279E-03    3.29       7.5  T
   6    -37.1476604 -0.225835E-07  0.202E-03    3.29      10.3  T
   7    -37.1476604 -0.170750E-07  0.120E-03    3.29      17.3  T
   8    -37.1476604 -0.534455E-08  0.631E-04    3.29      33.0  T
   9    -37.1476604 -0.213615E-08  0.279E-04    3.29      74.7  T
     SCC iter.                  ...        0 min,  0.100 sec
     gradient                   ...        0 min,  0.033 sec
 * total energy  :   -36.5159179 Eh     change       -0.1932769E-03 Eh
   gradient norm :     0.0037571 Eh/α   predicted    -0.1768001E-03 (  -8.52%)
   displ. norm   :     0.0115954 α      lambda       -0.2192063E-04
   maximum displ.:     0.0042464 α      in ANC's #21, #5, #23, ...

........................................................................
.............................. CYCLE    4 ..............................
........................................................................

 iter      E             dE          RMSdq      gap      omega  full diag
   1    -37.1470674 -0.371471E+02  0.125E-02    3.29       0.0  T
   2    -37.1470677 -0.297817E-06  0.774E-03    3.29       2.7  T
   3    -37.1470676  0.721712E-07  0.416E-03    3.29       5.0  T
   4    -37.1470678 -0.143270E-06  0.231E-03    3.29       9.0  T
   5    -37.1470678 -0.268506E-07  0.133E-03    3.29      15.6  T
   6    -37.1470678 -0.310553E-08  0.992E-04    3.29      21.0  T
   7    -37.1470678 -0.518249E-08  0.477E-04    3.29      43.7  T
     SCC iter.                  ...        0 min,  0.082 sec
     gradient                   ...        0 min,  0.011 sec
 * total energy  :   -36.5159329 Eh     change       -0.1498579E-04 Eh
   gradient norm :     0.0013566 Eh/α   predicted    -0.1122860E-04 ( -25.07%)
   displ. norm   :     0.0131921 α      lambda       -0.5343844E-05
   maximum displ.:     0.0092917 α      in ANC's #5, #23, #21, ...

........................................................................
.............................. CYCLE    5 ..............................
........................................................................

 iter      E             dE          RMSdq      gap      omega  full diag
   1    -37.1460118 -0.371460E+02  0.102E-02    3.29       0.0  T
   2    -37.1460120 -0.184760E-06  0.625E-03    3.29       3.3  T
   3    -37.1460119  0.520706E-07  0.331E-03    3.29       6.3  T
   4    -37.1460120 -0.925805E-07  0.183E-03    3.29      11.4  T
   5    -37.1460120 -0.170033E-07  0.104E-03    3.29      20.1  T
   6    -37.1460120 -0.179150E-08  0.764E-04    3.29      27.3  T
   7    -37.1460120 -0.284556E-08  0.377E-04    3.29      55.3  T
     SCC iter.                  ...        0 min,  0.113 sec
     gradient                   ...        0 min,  0.016 sec
 * total energy  :   -36.5159355 Eh     change       -0.2548138E-05 Eh
   gradient norm :     0.0007812 Eh/α   predicted    -0.2673543E-05 (   4.92%)
   displ. norm   :     0.0028168 α      lambda       -0.5476182E-06
   maximum displ.:     0.0013507 α      in ANC's #5, #21, #25, ...

   *** GEOMETRY OPTIMIZATION CONVERGED AFTER 5 ITERATIONS ***

------------------------------------------------------------------------
 total energy gain   :        -0.0024018 Eh       -1.5071 kcal/mol
 total RMSD          :         0.0341827 a0        0.0181 Å
 total power (kW/mol):        -1.2611809 (step)   -8.4914 (real)
------------------------------------------------------------------------

 ANCopt (total)                0 d,  0 h,  0 min,  0.743 sec
 optimizer setup                ...        0 min,  0.000 sec (  0.046%)
 model hessian                  ...        0 min,  0.015 sec (  2.028%)
 ANC generation                 ...        0 min,  0.021 sec (  2.776%)
 coordinate transformation      ...        0 min,  0.000 sec (  0.053%)
 single point calculation       ...        0 min,  0.688 sec ( 92.682%)
 optimization log               ...        0 min,  0.004 sec (  0.526%)
 hessian update                 ...        0 min,  0.011 sec (  1.481%)
 rational function              ...        0 min,  0.001 sec (  0.188%)

================
 final structure:
================
23
 xtb: 6.7.0 (08769fc)
Br           3.81426558062950       -0.10734334544715        0.00001437783266
C            1.92224353761722        0.14785651796071        0.00000689993145
C            1.41993547858926        1.44007110865794        0.00000065267746
C            0.05063972193566        1.64485413202100       -0.00000576891349
C           -0.79269128650446        0.54461656674403        0.00000035641541
C           -0.26539680003627       -0.75758392787208        0.00000934049876
C            1.09673912397168       -0.96772547269191        0.00001206175946
C           -1.37290668537060       -1.76860036804842        0.00001803146855
C           -2.60086790674450       -0.90513621469036        0.00000736647829
C           -3.92844105576668       -1.27823112572438        0.00000508282178
C           -4.89984322113440       -0.28654268576026       -0.00000586353015
C           -4.54677362379308        1.05512380399516       -0.00001259053594
C           -3.21601069174668        1.43872192898273       -0.00000908896845
C           -2.24256908126252        0.45220396039860       -0.00000101160710
H            2.09901932947167        2.27896314151475       -0.00001464942063
H           -0.34595375897806        2.64858752971918       -0.00001865860363
H            1.51604955510224       -1.96257435336731        0.00002790618466
H           -1.33052832495928       -2.41483925100490       -0.88041567967733
H           -1.33053116467319       -2.41482464197763        0.88046276280861
H           -4.21017063476212       -2.32134075681856        0.00001403695632
H           -5.94383864419680       -0.56324256372230       -0.00000288025520
H           -5.32047151327002        1.80891975869952       -0.00001589401522
H           -2.94399793411857        2.48364625843163       -0.00001679030629
 
 Bond Distances (Angstroems)
 ---------------------------
Br1-C2=1.9092        C2-Br1=1.9092        C2-C3=1.3864         C2-C7=1.3878         C3-C2=1.3864         C3-C4=1.3845         
C3-H15=1.0793        C4-C3=1.3845         C4-C5=1.3863         C4-H16=1.0792        C5-C4=1.3863         C5-C6=1.4049         
C5-C14=1.4528        C6-C5=1.4049         C6-C7=1.3783         C6-C8=1.4996         C7-C2=1.3878         C7-C6=1.3783         
C7-H17=1.0796        C8-C6=1.4996         C8-C9=1.5012         C8-H18=1.0930        C8-H19=1.0930        C9-C8=1.5012         
C9-C10=1.3790        C9-C14=1.4038        C10-C9=1.3790        C10-C11=1.3882       C10-H20=1.0805       C11-C10=1.3882       
C11-C12=1.3873       C11-H21=1.0800       C12-C11=1.3873       C12-C13=1.3849       C12-H22=1.0802       C13-C12=1.3849       
C13-C14=1.3859       C13-H23=1.0797       C14-C5=1.4528        C14-C9=1.4038        C14-C13=1.3859       H15-C3=1.0793        
H16-C4=1.0792        H17-C7=1.0796        H18-C8=1.0930        H19-C8=1.0930        H20-C10=1.0805       H21-C11=1.0800       
H22-C12=1.0802       H23-C13=1.0797       
 C  H  Rav=1.0827 sigma=0.0055  Rmin=1.0792  Rmax=1.0930     9
 C  C  Rav=1.4074 sigma=0.0405  Rmin=1.3783  Rmax=1.5012    15
 Br C  Rav=1.9092 sigma=0.0000  Rmin=1.9092  Rmax=1.9092     1
 
 selected bond angles (degree)
 --------------------
C3-C2-Br1=118.92               C7-C2-Br1=118.82               C7-C2-C3=122.26                C4-C3-C2=119.75                
H15-C3-C2=119.77               H15-C3-C4=120.48               C5-C4-C3=118.96                H16-C4-C3=120.07               
H16-C4-C5=120.97               C6-C5-C4=120.49                C14-C5-C4=131.12               C14-C5-C6=108.40               
C7-C6-C5=120.81                C8-C6-C5=110.35                C8-C6-C7=128.84                C6-C7-C2=117.73                
H17-C7-C2=120.64               H17-C7-C6=121.62               C9-C8-C6=102.49                H18-C8-C6=111.72               
H18-C8-C9=111.83               H19-C8-C6=111.72               H19-C8-C9=111.83               H19-C8-H18=107.33              
C10-C9-C8=129.19               C14-C9-C8=110.33               C14-C9-C10=120.48              C11-C10-C9=118.71              
H20-C10-C9=120.81              H20-C10-C11=120.48             
 
 selected dihedral angles (degree)
 ---------------------------------
C4-C3-C2-Br1=180.00           C4-C3-C2-C7=  0.00            H15-C3-C2-Br1=  0.00          H15-C3-C2-C7=180.00           
C5-C4-C3-C2=  0.00            C5-C4-C3-H15=180.00           H16-C4-C3-C2=180.00           H16-C4-C3-H15=  0.00          
C6-C5-C4-C3=  0.00            C6-C5-C4-H16=180.00           C14-C5-C4-C3=180.00           C14-C5-C4-H16=  0.00          
C7-C6-C5-C4=  0.00            C7-C6-C5-C14=180.00           C8-C6-C5-C4=180.00            C8-C6-C5-C14=  0.00           
C6-C7-C2-Br1=180.00           C6-C7-C2-C3=  0.00            H17-C7-C2-Br1=  0.00          H17-C7-C2-C3=180.00           
C2-C7-C6-C5=  0.00            C2-C7-C6-C8=180.00            H17-C7-C6-C5=180.00           H17-C7-C6-C8=  0.00           
C9-C8-C6-C5=  0.00            C9-C8-C6-C7=180.00            H18-C8-C6-C5=119.88           H18-C8-C6-C7=299.88           
H19-C8-C6-C5=240.12           H19-C8-C6-C7= 60.12           C10-C9-C8-C6=180.00           C10-C9-C8-H18= 60.20          
C10-C9-C8-H19=299.80          C14-C9-C8-C6=  0.00           C14-C9-C8-H18=240.20          C14-C9-C8-H19=119.80          
C11-C10-C9-C8=180.00          C11-C10-C9-C14=  0.00         H20-C10-C9-C8=  0.00          H20-C10-C9-C14=180.00         
           -------------------------------------------------
          |                Final Singlepoint                |
           -------------------------------------------------

          ...................................................
          :                      SETUP                      :
          :.................................................:
          :  # basis functions                  71          :
          :  # atomic orbitals                  70          :
          :  # shells                           38          :
          :  # electrons                        68          :
          :  max. iterations                   250          :
          :  Hamiltonian                  GFN2-xTB          :
          :  restarted?                      false          :
          :  GBSA solvation                  false          :
          :  PC potential                    false          :
          :  electronic temp.          300.0000000     K    :
          :  accuracy                    1.0000000          :
          :  -> integral cutoff          0.2500000E+02      :
          :  -> integral neglect         0.1000000E-07      :
          :  -> SCF convergence          0.1000000E-05 Eh   :
          :  -> wf. convergence          0.1000000E-03 e    :
          :  Broyden damping             0.4000000          :
          :  net charge                          0          :
          :  unpaired electrons                  0          :
          ...................................................

 iter      E             dE          RMSdq      gap      omega  full diag
   1    -37.1460120 -0.371460E+02  0.118E-04    3.29       0.0  T
   2    -37.1460120 -0.515499E-10  0.831E-05    3.29     250.8  T
   3    -37.1460120 -0.321521E-10  0.635E-05    3.29     328.3  T

   *** convergence criteria satisfied after 3 iterations ***

         #    Occupation            Energy/Eh            Energy/eV
      -------------------------------------------------------------
         1        2.0000           -0.8330870             -22.6695
       ...           ...                  ...                  ...
        28        2.0000           -0.4327958             -11.7770
        29        2.0000           -0.4274634             -11.6319
        30        2.0000           -0.4202232             -11.4349
        31        2.0000           -0.4118906             -11.2081
        32        2.0000           -0.4066446             -11.0654
        33        2.0000           -0.4061675             -11.0524
        34        2.0000           -0.3856038             -10.4928 (HOMO)
        35                         -0.2646482              -7.2014 (LUMO)
        36                         -0.2401165              -6.5339
        37                         -0.2291316              -6.2350
        38                         -0.2046797              -5.5696
        39                         -0.2009945              -5.4693
       ...                                ...                  ...
        70                          0.7162543              19.4903
      -------------------------------------------------------------
                  HL-Gap            0.1209556 Eh            3.2914 eV
             Fermi-level           -0.3251260 Eh           -8.8471 eV

 SCC (total)                   0 d,  0 h,  0 min,  0.072 sec
 SCC setup                      ...        0 min,  0.000 sec (  0.475%)
 Dispersion                     ...        0 min,  0.011 sec ( 14.963%)
 classical contributions        ...        0 min,  0.001 sec (  0.910%)
 integral evaluation            ...        0 min,  0.011 sec ( 14.490%)
 iterations                     ...        0 min,  0.038 sec ( 52.268%)
 molecular gradient             ...        0 min,  0.011 sec ( 14.698%)
 printout                       ...        0 min,  0.001 sec (  1.494%)

         :::::::::::::::::::::::::::::::::::::::::::::::::::::
         ::                     SUMMARY                     ::
         :::::::::::::::::::::::::::::::::::::::::::::::::::::
         :: total energy             -36.515935481572 Eh    ::
         :: gradient norm              0.000782190493 Eh/a0 ::
         :: HOMO-LUMO gap              3.291368811292 eV    ::
         ::.................................................::
         :: SCC energy               -37.146057377760 Eh    ::
         :: -> isotropic ES            0.006243421814 Eh    ::
         :: -> anisotropic ES          0.001849751450 Eh    ::
         :: -> anisotropic XC          0.017727064951 Eh    ::
         :: -> dispersion             -0.025772876283 Eh    ::
         :: repulsion energy           0.630121896188 Eh    ::
         :: add. restraining           0.000000000000 Eh    ::
         :: total charge               0.000000000000 e     ::
         :::::::::::::::::::::::::::::::::::::::::::::::::::::

           -------------------------------------------------
          |                Property Printout                |
           -------------------------------------------------

    * Orbital Energies and Occupations

         #    Occupation            Energy/Eh            Energy/eV
      -------------------------------------------------------------
         1        2.0000           -0.8330870             -22.6695
       ...           ...                  ...                  ...
        22        2.0000           -0.4828711             -13.1396
        23        2.0000           -0.4800179             -13.0620
        24        2.0000           -0.4795666             -13.0497
        25        2.0000           -0.4498003             -12.2397
        26        2.0000           -0.4471244             -12.1669
        27        2.0000           -0.4431816             -12.0596
        28        2.0000           -0.4327958             -11.7770
        29        2.0000           -0.4274634             -11.6319
        30        2.0000           -0.4202232             -11.4349
        31        2.0000           -0.4118906             -11.2081
        32        2.0000           -0.4066446             -11.0654
        33        2.0000           -0.4061675             -11.0524
        34        2.0000           -0.3856038             -10.4928 (HOMO)
        35                         -0.2646482              -7.2014 (LUMO)
        36                         -0.2401165              -6.5339
        37                         -0.2291316              -6.2350
        38                         -0.2046797              -5.5696
        39                         -0.2009945              -5.4693
        40                         -0.1251226              -3.4048
        41                         -0.0730482              -1.9877
        42                          0.0401295               1.0920
        43                          0.0431866               1.1752
        44                          0.0456287               1.2416
        45                          0.0818329               2.2268
       ...                                ...                  ...
        70                          0.7162543              19.4903
      -------------------------------------------------------------
                  HL-Gap            0.1209556 Eh            3.2914 eV
             Fermi-level           -0.3251260 Eh           -8.8471 eV

     #   Z          covCN         q      C6AA      α(0)
     1  35 Br       1.068    -0.177   189.940    22.221
     2   6 C        2.920     0.079    26.229     8.399
     3   6 C        2.993    -0.039    28.962     8.828
     4   6 C        2.917    -0.033    28.823     8.804
     5   6 C        3.038     0.000    27.984     8.677
     6   6 C        3.055     0.008    27.784     8.644
     7   6 C        2.987    -0.044    29.093     8.848
     8   6 C        3.844    -0.067    21.742     6.633
     9   6 C        3.051     0.007    27.823     8.651
    10   6 C        2.914    -0.037    28.930     8.820
    11   6 C        2.922    -0.030    28.758     8.794
    12   6 C        2.921    -0.032    28.800     8.801
    13   6 C        2.914    -0.032    28.805     8.801
    14   6 C        3.040     0.000    27.982     8.676
    15   1 H        0.926     0.051     2.308     2.376
    16   1 H        0.926     0.042     2.420     2.433
    17   1 H        0.926     0.049     2.329     2.387
    18   1 H        0.924     0.062     2.176     2.307
    19   1 H        0.924     0.062     2.176     2.307
    20   1 H        0.926     0.031     2.570     2.507
    21   1 H        0.926     0.034     2.537     2.491
    22   1 H        0.926     0.033     2.545     2.495
    23   1 H        0.926     0.033     2.545     2.495

 Mol. C6AA /au·bohr⁶  :       9254.971366
 Mol. C8AA /au·bohr⁸  :     277043.900736
 Mol. α(0) /au        :        155.391466


Wiberg/Mayer (AO) data.
largest (>0.10) Wiberg bond orders for each atom

 ---------------------------------------------------------------------------
     #   Z sym  total        # sym  WBO       # sym  WBO       # sym  WBO
 ---------------------------------------------------------------------------
     1  35 Br   1.102 --     2 C    0.978
     2   6 C    3.915 --     3 C    1.407     7 C    1.396     1 Br   0.978
     3   6 C    3.989 --     4 C    1.443     2 C    1.407    15 H    0.968
     4   6 C    3.980 --     3 C    1.443     5 C    1.389    16 H    0.967
                             7 C    0.100
     5   6 C    3.989 --     4 C    1.389     6 C    1.322    14 C    1.088
     6   6 C    3.987 --     7 C    1.441     5 C    1.322     8 C    1.018
     7   6 C    3.989 --     6 C    1.441     2 C    1.396    17 H    0.967
                             4 C    0.100
     8   6 C    3.995 --     6 C    1.018     9 C    1.016    18 H    0.944
                            19 H    0.944
     9   6 C    3.985 --    10 C    1.441    14 C    1.327     8 C    1.016
                            12 C    0.102
    10   6 C    3.992 --     9 C    1.441    11 C    1.427    20 H    0.969
                            13 C    0.104
    11   6 C    3.970 --    12 C    1.435    10 C    1.427    21 H    0.971
    12   6 C    3.992 --    13 C    1.447    11 C    1.435    22 H    0.971
                             9 C    0.102
    13   6 C    3.980 --    12 C    1.447    14 C    1.391    23 H    0.969
                            10 C    0.104
    14   6 C    3.988 --    13 C    1.391     9 C    1.327     5 C    1.088
    15   1 H    0.997 --     3 C    0.968
    16   1 H    0.998 --     4 C    0.967
    17   1 H    0.997 --     7 C    0.967
    18   1 H    0.996 --     8 C    0.944
    19   1 H    0.996 --     8 C    0.944
    20   1 H    0.999 --    10 C    0.969
    21   1 H    0.999 --    11 C    0.971
    22   1 H    0.998 --    12 C    0.971
    23   1 H    0.999 --    13 C    0.969
 ---------------------------------------------------------------------------

Topologies differ in total number of bonds
Writing topology from bond orders to xtbtopo.mol

molecular dipole:
                 x           y           z       tot (Debye)
 q only:       -1.155      -0.139      -0.000
   full:       -1.582      -0.103      -0.000       4.029
molecular quadrupole (traceless):
                xx          xy          yy          xz          yz          zz
 q only:       -7.193       1.626       7.051      -0.000      -0.000       0.141
  q+dip:      -12.490       2.896      14.989      -0.000      -0.000      -2.499
   full:      -13.586       2.662      11.811      -0.000      -0.000       1.775

           -------------------------------------------------
          |                Geometry Summary                 |
           -------------------------------------------------

      molecular mass/u    :      245.1145612
   center of mass at/Å    :        0.2207217       0.0003519       0.0000060
  moments of inertia/u·Å² :        0.2337514E+03   0.2355315E+04   0.2585941E+04
rotational constants/cm⁻¹ :        0.7211778E-01   0.7157273E-02   0.6518955E-02

 * 22 selected distances

     #   Z          #   Z                                           value/Å
     1  35 Br       2   6 C                                       1.9091556 (max)
     2   6 C        3   6 C                                       1.3864099
     3   6 C        4   6 C                                       1.3845242
     4   6 C        5   6 C                                       1.3862649
     5   6 C        6   6 C                                       1.4049078
     2   6 C        7   6 C                                       1.3877972
     6   6 C        7   6 C                                       1.3782504
     9   6 C       10   6 C                                       1.3790035
    10   6 C       11   6 C                                       1.3881889
    11   6 C       12   6 C                                       1.3873455
    12   6 C       13   6 C                                       1.3849469
     9   6 C       14   6 C                                       1.4038343
    13   6 C       14   6 C                                       1.3859317
     3   6 C       15   1 H                                       1.0793030
     4   6 C       16   1 H                                       1.0792439 (min)
     7   6 C       17   1 H                                       1.0796044
     8   6 C       18   1 H                                       1.0929704
     8   6 C       19   1 H                                       1.0929706
    10   6 C       20   1 H                                       1.0804858
    11   6 C       21   1 H                                       1.0800414
    12   6 C       22   1 H                                       1.0801930
    13   6 C       23   1 H                                       1.0797490

 * 3 distinct bonds (by element types)

   Z      Z             #   av. dist./Å        max./Å        min./Å
   1 H    6 C           9     1.0827291     1.0929706     1.0792439
   6 C    6 C          12     1.3881171     1.4049078     1.3782504
   6 C   35 Br          1     1.9091556     1.9091556     1.9091556


optimized geometry written to: xtbopt.xyz


           -------------------------------------------------
          | TOTAL ENERGY              -36.515935481572 Eh   |
          | GRADIENT NORM               0.000782190493 Eh/α |
          | HOMO-LUMO GAP               3.291368811292 eV   |
           -------------------------------------------------
########################################################################
[WARNING] Runtime exception occurred
-2- restart_readRestart: Dimension missmatch in restart file.
-1- restart_readRestart: Number of electron missmatch in restart file.
########################################################################

------------------------------------------------------------------------
 * finished run on 2024/09/25 at 09:25:21.507     
------------------------------------------------------------------------
 total:
 * wall-time:     0 d,  0 h,  0 min,  1.901 sec
 *  cpu-time:     0 d,  0 h,  1 min, 17.267 sec
 * ratio c/w:    40.651 speedup
 SCF:
 * wall-time:     0 d,  0 h,  0 min,  0.896 sec
 *  cpu-time:     0 d,  0 h,  0 min, 31.756 sec
 * ratio c/w:    35.447 speedup
 ANC optimizer:
 * wall-time:     0 d,  0 h,  0 min,  0.819 sec
 *  cpu-time:     0 d,  0 h,  0 min, 39.522 sec
 * ratio c/w:    48.260 speedup

