17
arbr48_wb97xd.log	Energy:       7.3826810
Br         3.49375       -0.89450        0.00176
C          1.82123       -0.00254        0.00176
C          0.65803       -0.75324        0.00176
C         -0.58004       -0.11801       -0.00224
I         -2.34705       -1.21776       -0.00024
C         -0.60868        1.26491       -0.00624
C          0.56307        2.00879       -0.00424
C          1.79178        1.38709       -0.00024
C          0.19165        3.46609       -0.02623
C         -1.35019        3.40256        0.04174
O         -1.72629        2.01292       -0.01824
H          0.71143       -1.83269        0.00376
H          2.71083        1.95754       -0.00224
H          0.61299        4.01164        0.82029
H          0.54104        3.95167       -0.94071
H         -1.83353        3.91157       -0.79655
H         -1.74158        3.81162        0.97598
