      -----------------------------------------------------------      
     |                   =====================                   |     
     |                           x T B                           |     
     |                   =====================                   |     
     |                         S. Grimme                         |     
     |          Mulliken Center for Theoretical Chemistry        |     
     |                    University of Bonn                     |     
      -----------------------------------------------------------      

   * xtb version 6.7.0 (08769fc) compiled by 'albert@albert-system' on 2024-03-04

   xtb is free software: you can redistribute it and/or modify it under
   the terms of the GNU Lesser General Public License as published by
   the Free Software Foundation, either version 3 of the License, or
   (at your option) any later version.
   
   xtb is distributed in the hope that it will be useful,
   but WITHOUT ANY WARRANTY; without even the implied warranty of
   MERCHANTABILITY or FITNESS FOR A PARTICULAR PURPOSE.  See the
   GNU Lesser General Public License for more details.
   
   Cite this work as:
   * C. Bannwarth, E. Caldeweyher, S. Ehlert, A. Hansen, P. Pracht,
     J. Seibert, S. Spicher, S. Grimme, WIREs Comput. Mol. Sci., 2020, 11,
     e01493. DOI: 10.1002/wcms.1493
   
   for GFN2-xTB:
   * C. Bannwarth, S. Ehlert and S. Grimme., J. Chem. Theory Comput., 2019,
     15, 1652-1671. DOI: 10.1021/acs.jctc.8b01176
   for GFN1-xTB:
   * S. Grimme, C. Bannwarth, P. Shushkov, J. Chem. Theory Comput., 2017,
     13, 1989-2009. DOI: 10.1021/acs.jctc.7b00118
   for GFN0-xTB:
   * P. Pracht, E. Caldeweyher, S. Ehlert, S. Grimme, ChemRxiv, 2019, preprint.
     DOI: 10.26434/chemrxiv.8326202.v1
   for GFN-FF:
   * S. Spicher and S. Grimme, Angew. Chem. Int. Ed., 2020, 59, 15665-15673.
     DOI: 10.1002/anie.202004239
   
   for ALPB and GBSA implicit solvation:
   * S. Ehlert, M. Stahn, S. Spicher, S. Grimme, J. Chem. Theory Comput.,
     2021, 17, 4250-4261. DOI: 10.1021/acs.jctc.1c00471
   
   for ddCOSMO and CPCM-X implicit solvation:
   * M. Stahn, S. Ehlert, S. Grimme, J. Phys. Chem. A,
     2023, XX, XXXX-XXXX. DOI: 10.1021/acs.jpca.3c04382
   
   for DFT-D4:
   * E. Caldeweyher, C. Bannwarth and S. Grimme, J. Chem. Phys., 2017,
     147, 034112. DOI: 10.1063/1.4993215
   * E. Caldeweyher, S. Ehlert, A. Hansen, H. Neugebauer, S. Spicher,
     C. Bannwarth and S. Grimme, J. Chem. Phys., 2019, 150, 154122.
     DOI: 10.1063/1.5090222
   * E. Caldeweyher, J.-M. Mewes, S. Ehlert and S. Grimme, Phys. Chem. Chem. Phys.
     2020, 22, 8499-8512. DOI: 10.1039/D0CP00502A
   
   for sTDA-xTB:
   * S. Grimme and C. Bannwarth, J. Chem. Phys., 2016, 145, 054103.
     DOI: 10.1063/1.4959605
   
   in the mass-spec context:
   * V. Asgeirsson, C. Bauer and S. Grimme, Chem. Sci., 2017, 8, 4879.
     DOI: 10.1039/c7sc00601b
   * J. Koopman and S. Grimme, ACS Omega 2019, 4, 12, 15120-15133.
     DOI: 10.1021/acsomega.9b02011
   
   for metadynamics refer to:
   * S. Grimme, J. Chem. Theory Comput., 2019, 155, 2847-2862
     DOI: 10.1021/acs.jctc.9b00143
   
   for SPH calculations refer to:
   * S. Spicher and S. Grimme, J. Chem. Theory Comput., 2021, 17, 1701-1714
     DOI: 10.1021/acs.jctc.0c01306
   
   for ONIOM refer to:
   * C. Plett, A. Katbashev, S. Ehlert, S. Grimme, M. Bursch,
     Phys. Chem. Chem. Phys., 2023, 25, 17860-17868. DOI: 10.1039/D3CP02178E
   
   for DIPRO refer to:
   * J. Kohn, N. Gildemeister, S. Grimme, D. Fazzi, A. Hansen,
     J. Chem. Phys., 2023, just accepted.
   
   for PTB refer to:
   * S. Grimme, M. Mueller, A. Hansen, J. Chem. Phys., 2023, 158, 124111.
     DOI: 10.1063/5.0137838
   
   with help from (in alphabetical order)
   P. Atkinson, C. Bannwarth, F. Bohle, G. Brandenburg, E. Caldeweyher
   M. Checinski, S. Dohm, S. Ehlert, S. Ehrlich, I. Gerasimov, C. Hölzer
   A. Katbashev, J. Kohn, J. Koopman, C. Lavigne, S. Lehtola, F. März, M. Müller,
   F. Musil, H. Neugebauer, J. Pisarek, C. Plett, P. Pracht, F. Pultar,
   J. Seibert, P. Shushkov, S. Spicher, M. Stahn, M. Steiner, T. Strunk,
   J. Stückrath, T. Rose, and J. Unsleber
   
 * started run on 2024/09/25 at 09:26:06.357     
   ID    Z sym.   atoms
    1    7 N      1
    2    6 C      2-9, 11, 12
    3   35 Br     10
    4    1 H      13-20

           -------------------------------------------------
          |                Calculation Setup                |
           -------------------------------------------------

          program call               : xtb arbr41_xtb.xyz --opt
          hostname                   : dynamo.chem.colostate.edu
          coordinate file            : arbr41_xtb.xyz
          omp threads                :                    96


           -------------------------------------------------
          |                 G F N 2 - x T B                 |
           -------------------------------------------------

        Reference                      10.1021/acs.jctc.8b01176
      * Hamiltonian:
        H0-scaling (s, p, d)           1.850000    2.230000    2.230000
        zeta-weighting                 0.500000
      * Dispersion:
        s8                             2.700000
        a1                             0.520000
        a2                             5.000000
        s9                             5.000000
      * Repulsion:
        kExp                           1.500000    1.000000
        rExp                           1.000000
      * Coulomb:
        alpha                          2.000000
        third order                    shell-resolved
        anisotropic                    true
        a3                             3.000000
        a5                             4.000000
        cn-shift                       1.200000
        cn-exp                         4.000000
        max-rad                        5.000000


          ...................................................
          :                      SETUP                      :
          :.................................................:
          :  # basis functions                  62          :
          :  # atomic orbitals                  61          :
          :  # shells                           33          :
          :  # electrons                        60          :
          :  max. iterations                   250          :
          :  Hamiltonian                  GFN2-xTB          :
          :  restarted?                      false          :
          :  GBSA solvation                  false          :
          :  PC potential                    false          :
          :  electronic temp.          300.0000000     K    :
          :  accuracy                    1.0000000          :
          :  -> integral cutoff          0.2500000E+02      :
          :  -> integral neglect         0.1000000E-07      :
          :  -> SCF convergence          0.1000000E-05 Eh   :
          :  -> wf. convergence          0.1000000E-03 e    :
          :  Broyden damping             0.4000000          :
          :  net charge                          0          :
          :  unpaired electrons                  0          :
          ...................................................

 iter      E             dE          RMSdq      gap      omega  full diag
   1    -32.9291199 -0.329291E+02  0.504E+00    4.12       0.0  T
   2    -32.9454531 -0.163332E-01  0.327E+00    3.95       1.0  T
   3    -32.8984687  0.469844E-01  0.210E+00    3.78       1.0  T
   4    -32.9648442 -0.663755E-01  0.634E-01    3.86       1.0  T
   5    -32.9678606 -0.301635E-02  0.326E-01    3.86       1.0  T
   6    -32.9679546 -0.940195E-04  0.196E-01    3.87       1.0  T
   7    -32.9681349 -0.180239E-03  0.130E-01    3.88       1.0  T
   8    -32.9681695 -0.346967E-04  0.925E-02    3.88       1.0  T
   9    -32.9682144 -0.448662E-04  0.308E-02    3.88       1.0  T
  10    -32.9682176 -0.313471E-05  0.130E-02    3.88       1.7  T
  11    -32.9682187 -0.113535E-05  0.579E-03    3.88       3.9  T
  12    -32.9682190 -0.297028E-06  0.226E-03    3.88       9.9  T
  13    -32.9682190 -0.308874E-07  0.612E-04    3.88      36.6  T
  14    -32.9682190 -0.733465E-09  0.375E-04    3.88      59.6  T

   *** convergence criteria satisfied after 14 iterations ***

         #    Occupation            Energy/Eh            Energy/eV
      -------------------------------------------------------------
         1        2.0000           -0.8410304             -22.8856
       ...           ...                  ...                  ...
        24        2.0000           -0.4573106             -12.4441
        25        2.0000           -0.4532872             -12.3346
        26        2.0000           -0.4450640             -12.1108
        27        2.0000           -0.4382926             -11.9265
        28        2.0000           -0.4240018             -11.5377
        29        2.0000           -0.4149246             -11.2907
        30        2.0000           -0.4009642             -10.9108 (HOMO)
        31                         -0.2582141              -7.0264 (LUMO)
        32                         -0.2551372              -6.9426
        33                         -0.2258089              -6.1446
        34                         -0.2231743              -6.0729
        35                         -0.2055440              -5.5931
       ...                                ...                  ...
        61                          1.0249627              27.8907
      -------------------------------------------------------------
                  HL-Gap            0.1427501 Eh            3.8844 eV
             Fermi-level           -0.3295892 Eh           -8.9686 eV

 SCC (total)                   0 d,  0 h,  0 min,  0.611 sec
 SCC setup                      ...        0 min,  0.001 sec (  0.098%)
 Dispersion                     ...        0 min,  0.001 sec (  0.186%)
 classical contributions        ...        0 min,  0.001 sec (  0.119%)
 integral evaluation            ...        0 min,  0.528 sec ( 86.434%)
 iterations                     ...        0 min,  0.072 sec ( 11.759%)
 molecular gradient             ...        0 min,  0.008 sec (  1.319%)
 printout                       ...        0 min,  0.000 sec (  0.074%)

         :::::::::::::::::::::::::::::::::::::::::::::::::::::
         ::                     SUMMARY                     ::
         :::::::::::::::::::::::::::::::::::::::::::::::::::::
         :: total energy             -32.464971433190 Eh    ::
         :: gradient norm              0.063780256106 Eh/a0 ::
         :: HOMO-LUMO gap              3.884426887289 eV    ::
         ::.................................................::
         :: SCC energy               -32.968108265548 Eh    ::
         :: -> isotropic ES            0.013345209556 Eh    ::
         :: -> anisotropic ES          0.002440709535 Eh    ::
         :: -> anisotropic XC          0.028327596725 Eh    ::
         :: -> dispersion             -0.020511797783 Eh    ::
         :: repulsion energy           0.503136832358 Eh    ::
         :: add. restraining           0.000000000000 Eh    ::
         :: total charge              -0.000000000000 e     ::
         :::::::::::::::::::::::::::::::::::::::::::::::::::::

      ----------------------------------------------------------- 
     |                   =====================                   |
     |                        A N C O P T                        |
     |                   =====================                   |
     |               Approximate Normal Coordinate               |
     |                Rational Function Optimizer                |
      ----------------------------------------------------------- 
      ----------------------------------------------------------- 
     |                   =====================                   |
     |                        A N C O P T                        |
     |                   =====================                   |
     |               Approximate Normal Coordinate               |
     |                Rational Function Optimizer                |
      ----------------------------------------------------------- 

          ...................................................
          :                      SETUP                      :
          :.................................................:
          :   optimization level            normal          :
          :   max. optcycles                   200          :
          :   ANC micro-cycles                  20          :
          :   degrees of freedom                54          :
          :.................................................:
          :   RF solver                   davidson          :
          :   write xtbopt.log                true          :
          :   linear?                        false          :
          :   energy convergence         0.5000000E-05 Eh   :
          :   grad. convergence          0.1000000E-02 Eh/α :
          :   maxmium RF displ.          1.0000000          :
          :   Hlow (freq-cutoff)         0.1000000E-01      :
          :   Hmax (freq-cutoff)         5.0000000          :
          :   S6 in model hess.         20.0000000          :
          ...................................................

generating ANC from model Hessian ...
Using Lindh-Hessian (1995)
 Shifting diagonal of input Hessian by   8.004785680405685E-003
 Lowest  eigenvalues of input Hessian
    0.000000    0.000000    0.000000    0.000000    0.000000    0.000000
    0.010000    0.011727    0.012178    0.017613    0.019693    0.021559
    0.026819    0.031040    0.037909    0.041592    0.050148    0.053305
 Highest eigenvalues
    1.503590    1.538039    1.839455    1.909689    1.952866    2.444208
 

........................................................................
.............................. CYCLE    1 ..............................
........................................................................

 iter      E             dE          RMSdq      gap      omega  full diag
   1    -32.9682190 -0.329682E+02  0.253E-04    3.88       0.0  T
   2    -32.9682190 -0.139600E-09  0.196E-04    3.88     114.3  T
   3    -32.9682190 -0.960796E-10  0.158E-04    3.88     141.2  T
     SCC iter.                  ...        0 min,  0.023 sec
     gradient                   ...        0 min,  0.025 sec
 * total energy  :   -32.4649714 Eh     change       -0.5527809E-09 Eh
   gradient norm :     0.0637796 Eh/α   predicted     0.0000000E+00 (-100.00%)
   displ. norm   :     0.2118220 α      lambda       -0.6600721E-02
   maximum displ.:     0.0784246 α      in ANC's #9, #27, #30, ...

........................................................................
.............................. CYCLE    2 ..............................
........................................................................

 iter      E             dE          RMSdq      gap      omega  full diag
   1    -33.0025819 -0.330026E+02  0.256E-01    3.98       0.0  T
   2    -33.0025950 -0.130358E-04  0.161E-01    3.97       1.0  T
   3    -33.0024823  0.112639E-03  0.112E-01    3.97       1.0  T
   4    -33.0026560 -0.173634E-03  0.131E-02    3.97       1.7  T
   5    -33.0026581 -0.212087E-05  0.512E-03    3.97       4.4  T
   6    -33.0026581 -0.134571E-07  0.316E-03    3.97       7.1  T
   7    -33.0026582 -0.123813E-06  0.816E-04    3.97      27.4  T
   8    -33.0026582 -0.249837E-08  0.547E-04    3.97      40.9  T
     SCC iter.                  ...        0 min,  0.049 sec
     gradient                   ...        0 min,  0.006 sec
 * total energy  :   -32.4685187 Eh     change       -0.3547297E-02 Eh
   gradient norm :     0.0198287 Eh/α   predicted    -0.3450159E-02 (  -2.74%)
   displ. norm   :     0.1407724 α      lambda       -0.8170219E-03
   maximum displ.:     0.0742526 α      in ANC's #9, #3, #1, ...

........................................................................
.............................. CYCLE    3 ..............................
........................................................................

 iter      E             dE          RMSdq      gap      omega  full diag
   1    -33.0062855 -0.330063E+02  0.242E-01    3.99       0.0  T
   2    -33.0062997 -0.141517E-04  0.137E-01    3.98       1.0  T
   3    -33.0062373  0.623521E-04  0.616E-02    3.98       1.0  T
   4    -33.0063114 -0.740937E-04  0.781E-03    3.98       2.9  T
   5    -33.0063119 -0.470142E-06  0.372E-03    3.98       6.0  T
   6    -33.0063119 -0.572376E-08  0.225E-03    3.98      10.0  T
   7    -33.0063120 -0.474167E-07  0.129E-03    3.98      17.3  T
   8    -33.0063120 -0.282683E-08  0.939E-04    3.98      23.8  T
   9    -33.0063120 -0.361040E-08  0.391E-04    3.98      57.2  T
     SCC iter.                  ...        0 min,  0.058 sec
     gradient                   ...        0 min,  0.008 sec
 * total energy  :   -32.4688161 Eh     change       -0.2973309E-03 Eh
   gradient norm :     0.0072746 Eh/α   predicted    -0.4168693E-03 (  40.20%)
   displ. norm   :     0.1388312 α      lambda       -0.4887815E-03
   maximum displ.:     0.0769494 α      in ANC's #1, #2, #5, ...

........................................................................
.............................. CYCLE    4 ..............................
........................................................................

 iter      E             dE          RMSdq      gap      omega  full diag
   1    -33.0049465 -0.330049E+02  0.299E-01    3.99       0.0  T
   2    -33.0049642 -0.176848E-04  0.167E-01    3.98       1.0  T
   3    -33.0049632  0.106225E-05  0.194E-02    3.98       1.1  T
   4    -33.0049702 -0.703348E-05  0.791E-03    3.98       2.8  T
   5    -33.0049709 -0.663604E-06  0.379E-03    3.98       5.9  T
   6    -33.0049709 -0.331695E-07  0.234E-03    3.98       9.6  T
   7    -33.0049709 -0.354662E-07  0.142E-03    3.98      15.8  T
   8    -33.0049709 -0.445036E-08  0.990E-04    3.98      22.6  T
   9    -33.0049709 -0.440752E-08  0.359E-04    3.98      62.3  T
     SCC iter.                  ...        0 min,  0.062 sec
     gradient                   ...        0 min,  0.007 sec
 * total energy  :   -32.4689250 Eh     change       -0.1089393E-03 Eh
   gradient norm :     0.0126084 Eh/α   predicted    -0.2491014E-03 ( 128.66%)
   displ. norm   :     0.0479825 α      lambda       -0.1845250E-03
   maximum displ.:     0.0285225 α      in ANC's #1, #3, #2, ...

........................................................................
.............................. CYCLE    5 ..............................
........................................................................

 iter      E             dE          RMSdq      gap      omega  full diag
   1    -33.0051383 -0.330051E+02  0.960E-02    3.97       0.0  T
   2    -33.0051408 -0.257960E-05  0.537E-02    3.97       1.0  T
   3    -33.0051377  0.315924E-05  0.148E-02    3.97       1.5  T
   4    -33.0051418 -0.407129E-05  0.378E-03    3.97       5.9  T
   5    -33.0051419 -0.154706E-06  0.139E-03    3.97      16.1  T
   6    -33.0051419 -0.256564E-08  0.742E-04    3.97      30.1  T
   7    -33.0051419 -0.317819E-08  0.432E-04    3.97      51.7  T
     SCC iter.                  ...        0 min,  0.059 sec
     gradient                   ...        0 min,  0.009 sec
 * total energy  :   -32.4690227 Eh     change       -0.9765700E-04 Eh
   gradient norm :     0.0014220 Eh/α   predicted    -0.9248060E-04 (  -5.30%)
   displ. norm   :     0.0706759 α      lambda       -0.2782543E-04
   maximum displ.:     0.0590665 α      in ANC's #2, #3, #6, ...

........................................................................
.............................. CYCLE    6 ..............................
........................................................................

 iter      E             dE          RMSdq      gap      omega  full diag
   1    -33.0042226 -0.330042E+02  0.702E-02    3.97       0.0  T
   2    -33.0042235 -0.963343E-06  0.395E-02    3.97       1.0  T
   3    -33.0042233  0.199268E-06  0.590E-03    3.97       3.8  T
   4    -33.0042239 -0.579358E-06  0.225E-03    3.97      10.0  T
   5    -33.0042239 -0.145905E-07  0.112E-03    3.97      19.9  T
   6    -33.0042239 -0.853982E-08  0.651E-04    3.97      34.3  T
   7    -33.0042239 -0.317343E-08  0.425E-04    3.97      52.6  T
     SCC iter.                  ...        0 min,  0.038 sec
     gradient                   ...        0 min,  0.007 sec
 * total energy  :   -32.4690532 Eh     change       -0.3055056E-04 Eh
   gradient norm :     0.0015386 Eh/α   predicted    -0.1394652E-04 ( -54.35%)
   displ. norm   :     0.0992624 α      lambda       -0.2634399E-04
   maximum displ.:     0.0771259 α      in ANC's #2, #3, #4, ...

........................................................................
.............................. CYCLE    7 ..............................
........................................................................

 iter      E             dE          RMSdq      gap      omega  full diag
   1    -33.0046359 -0.330046E+02  0.101E-01    3.96       0.0  T
   2    -33.0046378 -0.191823E-05  0.567E-02    3.96       1.0  T
   3    -33.0046372  0.560783E-06  0.852E-03    3.96       2.6  T
   4    -33.0046386 -0.134019E-05  0.275E-03    3.96       8.1  T
   5    -33.0046386 -0.349656E-07  0.135E-03    3.96      16.5  T
   6    -33.0046386 -0.100823E-07  0.553E-04    3.96      40.4  T
   7    -33.0046386 -0.303197E-08  0.314E-04    3.96      71.3  T
     SCC iter.                  ...        0 min,  0.044 sec
     gradient                   ...        0 min,  0.006 sec
 * total energy  :   -32.4690797 Eh     change       -0.2645895E-04 Eh
   gradient norm :     0.0012337 Eh/α   predicted    -0.1323360E-04 ( -49.98%)
   displ. norm   :     0.0672057 α      lambda       -0.9597859E-05
   maximum displ.:     0.0471073 α      in ANC's #2, #3, #4, ...

........................................................................
.............................. CYCLE    8 ..............................
........................................................................

 iter      E             dE          RMSdq      gap      omega  full diag
   1    -33.0047591 -0.330048E+02  0.600E-02    3.96       0.0  T
   2    -33.0047598 -0.730670E-06  0.337E-02    3.96       1.0  T
   3    -33.0047599 -0.831229E-07  0.384E-03    3.96       5.8  T
   4    -33.0047601 -0.201487E-06  0.180E-03    3.96      12.4  T
   5    -33.0047601 -0.790821E-08  0.107E-03    3.96      21.0  T
   6    -33.0047601 -0.877214E-08  0.571E-04    3.96      39.2  T
   7    -33.0047601 -0.991001E-09  0.437E-04    3.96      51.1  T
     SCC iter.                  ...        0 min,  0.050 sec
     gradient                   ...        0 min,  0.007 sec
 * total energy  :   -32.4690883 Eh     change       -0.8593962E-05 Eh
   gradient norm :     0.0007252 Eh/α   predicted    -0.4814804E-05 ( -43.97%)
   displ. norm   :     0.0277781 α      lambda       -0.2254604E-05
   maximum displ.:     0.0166765 α      in ANC's #3, #2, #1, ...

........................................................................
.............................. CYCLE    9 ..............................
........................................................................

 iter      E             dE          RMSdq      gap      omega  full diag
   1    -33.0050300 -0.330050E+02  0.227E-02    3.96       0.0  T
   2    -33.0050301 -0.118888E-06  0.128E-02    3.96       1.8  T
   3    -33.0050301  0.173405E-07  0.207E-03    3.96      10.8  T
   4    -33.0050302 -0.663987E-07  0.814E-04    3.96      27.5  T
   5    -33.0050302 -0.129054E-08  0.509E-04    3.96      43.9  T
     SCC iter.                  ...        0 min,  0.027 sec
     gradient                   ...        0 min,  0.007 sec
 * total energy  :   -32.4690901 Eh     change       -0.1797248E-05 Eh
   gradient norm :     0.0004292 Eh/α   predicted    -0.1138302E-05 ( -36.66%)
   displ. norm   :     0.0126304 α      lambda       -0.7138070E-06
   maximum displ.:     0.0081388 α      in ANC's #1, #4, #3, ...

   *** GEOMETRY OPTIMIZATION CONVERGED AFTER 9 ITERATIONS ***

------------------------------------------------------------------------
 total energy gain   :        -0.0041186 Eh       -2.5845 kcal/mol
 total RMSD          :         0.1208160 a0        0.0639 Å
 total power (kW/mol):        -1.2014944 (step)  -17.5744 (real)
------------------------------------------------------------------------

 ANCopt (total)                0 d,  0 h,  0 min,  0.615 sec
 optimizer setup                ...        0 min,  0.000 sec (  0.023%)
 model hessian                  ...        0 min,  0.028 sec (  4.520%)
 ANC generation                 ...        0 min,  0.006 sec (  1.029%)
 coordinate transformation      ...        0 min,  0.000 sec (  0.022%)
 single point calculation       ...        0 min,  0.558 sec ( 90.714%)
 optimization log               ...        0 min,  0.007 sec (  1.194%)
 hessian update                 ...        0 min,  0.014 sec (  2.240%)
 rational function              ...        0 min,  0.001 sec (  0.145%)

================
 final structure:
================
20
 xtb: 6.7.0 (08769fc)
N           -3.07938269503565       -2.31461647917935       -1.17036776887715
C           -2.77037860721933       -1.61755807278298       -0.31936168476022
C           -2.37976462784572       -0.71122011382270        0.73705865211556
C           -3.36402647208112        0.47612041251313        0.83780667163627
C           -2.78416621824827        1.55749016509582       -0.08722815788963
C           -1.31851300307423        1.24183072564168       -0.12189361799272
C           -0.26758093106602        2.02835816593377       -0.55082566001307
C            1.02168310202897        1.51821359863975       -0.50234690123334
C            1.23572784468484        0.23335528505053       -0.03288884686771
Br           3.01499959889691       -0.44762576897471        0.03085615343351
C            0.19201262388853       -0.57471481565399        0.39676993038944
C           -1.08060040683938       -0.04672496492702        0.35001081306075
H           -2.30764804929863       -1.28004936052117        1.66891334395413
H           -4.37759186476194        0.18958256509681        0.56016658796223
H           -3.37632834946479        0.83589117522971        1.86776209397729
H           -3.19874192334240        1.46947196768732       -1.09544728539745
H           -2.98828231247804        2.56527666639014        0.27364212292534
H           -0.43909941870155        3.02875841193415       -0.91768883980212
H            1.85771005908791        2.11757023985378       -0.82779444593788
H            0.37815165086995       -1.57613980320467        0.75383683931674
 
 Bond Distances (Angstroems)
 ---------------------------
N1-C2=1.1426         C2-N1=1.1426         C2-C3=1.4457         C3-C2=1.4457         C3-C4=1.5455         C3-C12=1.5097        
C3-H13=1.0941        C4-C3=1.5455         C4-C5=1.5366         C4-H14=1.0893        C4-H15=1.0911        C5-C4=1.5366         
C5-C6=1.4997         C5-H16=1.0937        C5-H17=1.0897        C6-C5=1.4997         C6-C7=1.3810         C6-C12=1.3927        
C7-C6=1.3810         C7-C8=1.3874         C7-H18=1.0793        C8-C7=1.3874         C8-C9=1.3846         C8-H19=1.0789        
C9-C8=1.3846         C9-Br10=1.9062       C9-C11=1.3881        Br10-C9=1.9062       C11-C9=1.3881        C11-C12=1.3786       
C11-H20=1.0794       C12-C3=1.5097        C12-C6=1.3927        C12-C11=1.3786       H13-C3=1.0941        H14-C4=1.0893        
H15-C4=1.0911        H16-C5=1.0937        H17-C5=1.0897        H18-C7=1.0793        H19-C8=1.0789        H20-C11=1.0794       
 C  H  Rav=1.0869 sigma=0.0062  Rmin=1.0789  Rmax=1.0941     8
 C  C  Rav=1.4409 sigma=0.0653  Rmin=1.3786  Rmax=1.5455    11
 N  C  Rav=1.1426 sigma=0.0000  Rmin=1.1426  Rmax=1.1426     1
 Br C  Rav=1.9062 sigma=0.0000  Rmin=1.9062  Rmax=1.9062     1
 
 selected bond angles (degree)
 --------------------
C3-C2-N1=178.74                C4-C3-C2=110.93                C12-C3-C2=108.73               C12-C3-C4=103.10               
H13-C3-C2=108.31               H13-C3-C4=112.70               H13-C3-C12=112.98              C5-C4-C3=105.13                
H14-C4-C3=111.95               H14-C4-C5=112.51               H15-C4-C3=108.79               H15-C4-C5=109.91               
H15-C4-H14=108.47              C6-C5-C4=103.57                H16-C5-C4=110.81               H16-C5-C6=109.40               
H17-C5-C4=112.38               H17-C5-C6=112.67               H17-C5-H16=107.98              C7-C6-C5=129.13                
C12-C6-C5=110.72               C12-C6-C7=120.15               C8-C7-C6=119.14                H18-C7-C6=120.84               
H18-C7-C8=120.03               C9-C8-C7=119.78                H19-C8-C7=120.35               H19-C8-C9=119.87               
Br10-C9-C8=119.15              C11-C9-C8=121.93               C11-C9-Br10=118.91             
 
 selected dihedral angles (degree)
 ---------------------------------
C4-C3-C2-N1= 53.80            C12-C3-C2-N1=301.10           H13-C3-C2-N1=177.97           C5-C4-C3-C2=269.36            
C5-C4-C3-C12= 25.59           C5-C4-C3-H13=147.72           H14-C4-C3-C2= 31.82           H14-C4-C3-C12=148.04          
H14-C4-C3-H13=270.17          H15-C4-C3-C2=151.68           H15-C4-C3-C12=267.91          H15-C4-C3-H13= 30.04          
C6-C5-C4-C3=334.48            C6-C5-C4-H14=212.39           C6-C5-C4-H15= 91.40           H16-C5-C4-C3= 91.70           
H16-C5-C4-H14=329.60          H16-C5-C4-H15=208.62          H17-C5-C4-C3=212.61           H17-C5-C4-H14= 90.51          
H17-C5-C4-H15=329.53          C7-C6-C5-C4=195.43            C7-C6-C5-H16= 77.23           C7-C6-C5-H17=317.12           
C12-C6-C5-C4= 16.08           C12-C6-C5-H16=257.89          C12-C6-C5-H17=137.77          C8-C7-C6-C5=180.60            
C8-C7-C6-C12=359.89           H18-C7-C6-C5=  0.77           H18-C7-C6-C12=180.06          C9-C8-C7-C6=  0.27            
C9-C8-C7-H18=180.11           H19-C8-C7-C6=180.31           H19-C8-C7-H18=  0.15          Br10-C9-C8-C7=180.18          
Br10-C9-C8-H19=  0.14         C11-C9-C8-C7=  0.02           C11-C9-C8-H19=179.98          
           -------------------------------------------------
          |                Final Singlepoint                |
           -------------------------------------------------

          ...................................................
          :                      SETUP                      :
          :.................................................:
          :  # basis functions                  62          :
          :  # atomic orbitals                  61          :
          :  # shells                           33          :
          :  # electrons                        60          :
          :  max. iterations                   250          :
          :  Hamiltonian                  GFN2-xTB          :
          :  restarted?                      false          :
          :  GBSA solvation                  false          :
          :  PC potential                    false          :
          :  electronic temp.          300.0000000     K    :
          :  accuracy                    1.0000000          :
          :  -> integral cutoff          0.2500000E+02      :
          :  -> integral neglect         0.1000000E-07      :
          :  -> SCF convergence          0.1000000E-05 Eh   :
          :  -> wf. convergence          0.1000000E-03 e    :
          :  Broyden damping             0.4000000          :
          :  net charge                          0          :
          :  unpaired electrons                  0          :
          ...................................................

 iter      E             dE          RMSdq      gap      omega  full diag
   1    -33.0050302 -0.330050E+02  0.308E-04    3.96       0.0  T
   2    -33.0050302 -0.109068E-09  0.272E-04    3.96      82.1  T
   3    -33.0050302 -0.247432E-09  0.223E-04    3.96     100.3  T

   *** convergence criteria satisfied after 3 iterations ***

         #    Occupation            Energy/Eh            Energy/eV
      -------------------------------------------------------------
         1        2.0000           -0.8398631             -22.8538
       ...           ...                  ...                  ...
        24        2.0000           -0.4581396             -12.4666
        25        2.0000           -0.4518977             -12.2968
        26        2.0000           -0.4447610             -12.1026
        27        2.0000           -0.4384596             -11.9311
        28        2.0000           -0.4229463             -11.5090
        29        2.0000           -0.4139313             -11.2636
        30        2.0000           -0.4013155             -10.9204 (HOMO)
        31                         -0.2557460              -6.9592 (LUMO)
        32                         -0.2540331              -6.9126
        33                         -0.2160442              -5.8789
        34                         -0.2132172              -5.8019
        35                         -0.2054985              -5.5919
       ...                                ...                  ...
        61                          1.1353982              30.8958
      -------------------------------------------------------------
                  HL-Gap            0.1455695 Eh            3.9611 eV
             Fermi-level           -0.3285307 Eh           -8.9398 eV

 SCC (total)                   0 d,  0 h,  0 min,  0.040 sec
 SCC setup                      ...        0 min,  0.012 sec ( 30.778%)
 Dispersion                     ...        0 min,  0.001 sec (  2.200%)
 classical contributions        ...        0 min,  0.001 sec (  1.511%)
 integral evaluation            ...        0 min,  0.001 sec (  3.668%)
 iterations                     ...        0 min,  0.017 sec ( 42.340%)
 molecular gradient             ...        0 min,  0.007 sec ( 18.126%)
 printout                       ...        0 min,  0.000 sec (  1.180%)

         :::::::::::::::::::::::::::::::::::::::::::::::::::::
         ::                     SUMMARY                     ::
         :::::::::::::::::::::::::::::::::::::::::::::::::::::
         :: total energy             -32.469090060500 Eh    ::
         :: gradient norm              0.000424945565 Eh/a0 ::
         :: HOMO-LUMO gap              3.961147202913 eV    ::
         ::.................................................::
         :: SCC energy               -33.004917512913 Eh    ::
         :: -> isotropic ES            0.014053546669 Eh    ::
         :: -> anisotropic ES          0.002085292500 Eh    ::
         :: -> anisotropic XC          0.027373135988 Eh    ::
         :: -> dispersion             -0.020673525089 Eh    ::
         :: repulsion energy           0.535827452413 Eh    ::
         :: add. restraining           0.000000000000 Eh    ::
         :: total charge               0.000000000000 e     ::
         :::::::::::::::::::::::::::::::::::::::::::::::::::::

           -------------------------------------------------
          |                Property Printout                |
           -------------------------------------------------

    * Orbital Energies and Occupations

         #    Occupation            Energy/Eh            Energy/eV
      -------------------------------------------------------------
         1        2.0000           -0.8398631             -22.8538
       ...           ...                  ...                  ...
        18        2.0000           -0.5088761             -13.8472
        19        2.0000           -0.4971761             -13.5288
        20        2.0000           -0.4921927             -13.3932
        21        2.0000           -0.4751566             -12.9297
        22        2.0000           -0.4728842             -12.8678
        23        2.0000           -0.4674526             -12.7200
        24        2.0000           -0.4581396             -12.4666
        25        2.0000           -0.4518977             -12.2968
        26        2.0000           -0.4447610             -12.1026
        27        2.0000           -0.4384596             -11.9311
        28        2.0000           -0.4229463             -11.5090
        29        2.0000           -0.4139313             -11.2636
        30        2.0000           -0.4013155             -10.9204 (HOMO)
        31                         -0.2557460              -6.9592 (LUMO)
        32                         -0.2540331              -6.9126
        33                         -0.2160442              -5.8789
        34                         -0.2132172              -5.8019
        35                         -0.2054985              -5.5919
        36                         -0.1278976              -3.4803
        37                          0.0317531               0.8640
        38                          0.0340273               0.9259
        39                          0.0386102               1.0506
        40                          0.0480450               1.3074
        41                          0.0539602               1.4683
       ...                                ...                  ...
        61                          1.1353982              30.8958
      -------------------------------------------------------------
                  HL-Gap            0.1455695 Eh            3.9611 eV
             Fermi-level           -0.3285307 Eh           -8.9398 eV

     #   Z          covCN         q      C6AA      α(0)
     1   7 N        0.911    -0.232    26.081     7.386
     2   6 C        1.913     0.117    28.225     8.580
     3   6 C        3.883    -0.010    20.711     6.470
     4   6 C        3.841    -0.050    21.439     6.587
     5   6 C        3.830    -0.060    21.631     6.618
     6   6 C        3.011     0.009    27.809     8.650
     7   6 C        2.920    -0.036    28.900     8.816
     8   6 C        2.994    -0.037    28.904     8.819
     9   6 C        2.921     0.081    26.203     8.394
    10  35 Br       1.070    -0.165   189.616    22.202
    11   6 C        2.988    -0.041    29.011     8.835
    12   6 C        3.035     0.011    27.742     8.639
    13   1 H        0.924     0.065     2.143     2.289
    14   1 H        0.925     0.046     2.374     2.410
    15   1 H        0.924     0.044     2.401     2.423
    16   1 H        0.924     0.054     2.265     2.354
    17   1 H        0.925     0.048     2.342     2.393
    18   1 H        0.926     0.046     2.365     2.405
    19   1 H        0.926     0.057     2.230     2.335
    20   1 H        0.926     0.054     2.268     2.355

 Mol. C6AA /au·bohr⁶  :       6698.645707
 Mol. C8AA /au·bohr⁸  :     201662.348530
 Mol. α(0) /au        :        128.961891


Wiberg/Mayer (AO) data.
largest (>0.10) Wiberg bond orders for each atom

 ---------------------------------------------------------------------------
     #   Z sym  total        # sym  WBO       # sym  WBO       # sym  WBO
 ---------------------------------------------------------------------------
     1   7 N    3.011 --     2 C    2.851
     2   6 C    3.943 --     1 N    2.851     3 C    1.027
     3   6 C    3.992 --     2 C    1.027    12 C    0.967     4 C    0.963
                            13 H    0.936
     4   6 C    3.993 --     5 C    1.004    14 H    0.980    15 H    0.979
                             3 C    0.963
     5   6 C    3.996 --     6 C    1.014     4 C    1.004    17 H    0.970
                            16 H    0.959
     6   6 C    3.988 --     7 C    1.428    12 C    1.363     5 C    1.014
     7   6 C    3.991 --     6 C    1.428     8 C    1.427    18 H    0.967
                            11 C    0.104
     8   6 C    3.987 --     7 C    1.427     9 C    1.419    19 H    0.968
                            12 C    0.104
     9   6 C    3.938 --     8 C    1.419    11 C    1.395    10 Br   0.983
    10  35 Br   1.111 --     9 C    0.983
    11   6 C    3.990 --    12 C    1.436     9 C    1.395    20 H    0.967
                             7 C    0.104
    12   6 C    3.986 --    11 C    1.436     6 C    1.363     3 C    0.967
                             8 C    0.104
    13   1 H    0.996 --     3 C    0.936
    14   1 H    0.997 --     4 C    0.980
    15   1 H    0.998 --     4 C    0.979
    16   1 H    0.996 --     5 C    0.959
    17   1 H    0.997 --     5 C    0.970
    18   1 H    0.997 --     7 C    0.967
    19   1 H    0.996 --     8 C    0.968
    20   1 H    0.997 --    11 C    0.967
 ---------------------------------------------------------------------------

Topologies differ in total number of bonds
Writing topology from bond orders to xtbtopo.mol

molecular dipole:
                 x           y           z       tot (Debye)
 q only:       -0.784       1.092       0.617
   full:       -1.090       1.486       0.922       5.238
molecular quadrupole (traceless):
                xx          xy          yy          xz          yz          zz
 q only:       -3.415      -5.736       1.375      -6.100      -4.874       2.040
  q+dip:       -8.542      -6.111       4.023      -9.416      -8.163       4.520
   full:       -7.864      -7.013       2.807      -9.703      -8.161       5.058

           -------------------------------------------------
          |                Geometry Summary                 |
           -------------------------------------------------

      molecular mass/u    :      222.0811160
   center of mass at/Å    :        0.2021766      -0.0516587      -0.0141081
  moments of inertia/u·Å² :        0.3429852E+03   0.1421668E+04   0.1653373E+04
rotational constants/cm⁻¹ :        0.4914973E-01   0.1185764E-01   0.1019591E-01

 * 17 selected distances

     #   Z          #   Z                                           value/Å
     1   7 N        2   6 C                                       1.1426222
     4   6 C        5   6 C                                       1.5366484
     6   6 C        7   6 C                                       1.3809659
     7   6 C        8   6 C                                       1.3873715
     8   6 C        9   6 C                                       1.3845820
     9   6 C       10  35 Br                                      1.9062023 (max)
     9   6 C       11   6 C                                       1.3881375
     6   6 C       12   6 C                                       1.3927212
    11   6 C       12   6 C                                       1.3785877
     3   6 C       13   1 H                                       1.0941302
     4   6 C       14   1 H                                       1.0892672
     4   6 C       15   1 H                                       1.0910521
     5   6 C       16   1 H                                       1.0936756
     5   6 C       17   1 H                                       1.0897360
     7   6 C       18   1 H                                       1.0792627
     8   6 C       19   1 H                                       1.0789281 (min)
    11   6 C       20   1 H                                       1.0793501

 * 4 distinct bonds (by element types)

   Z      Z             #   av. dist./Å        max./Å        min./Å
   1 H    6 C           8     1.0869253     1.0941302     1.0789281
   6 C    6 C           7     1.4070020     1.5366484     1.3785877
   6 C    7 N           1     1.1426222     1.1426222     1.1426222
   6 C   35 Br          1     1.9062023     1.9062023     1.9062023


optimized geometry written to: xtbopt.xyz


           -------------------------------------------------
          | TOTAL ENERGY              -32.469090060500 Eh   |
          | GRADIENT NORM               0.000424945565 Eh/α |
          | HOMO-LUMO GAP               3.961147202913 eV   |
           -------------------------------------------------
########################################################################
[WARNING] Runtime exception occurred
-2- restart_readRestart: Dimension missmatch in restart file.
-1- restart_readRestart: Number of electron missmatch in restart file.
########################################################################

------------------------------------------------------------------------
 * finished run on 2024/09/25 at 09:26:07.748     
------------------------------------------------------------------------
 total:
 * wall-time:     0 d,  0 h,  0 min,  1.390 sec
 *  cpu-time:     0 d,  0 h,  0 min, 47.991 sec
 * ratio c/w:    34.525 speedup
 SCF:
 * wall-time:     0 d,  0 h,  0 min,  0.611 sec
 *  cpu-time:     0 d,  0 h,  0 min, 13.536 sec
 * ratio c/w:    22.163 speedup
 ANC optimizer:
 * wall-time:     0 d,  0 h,  0 min,  0.656 sec
 *  cpu-time:     0 d,  0 h,  0 min, 31.367 sec
 * ratio c/w:    47.779 speedup

