19
arbr47_wb97xd.log	Energy:     -45.4235450
O         -4.38655       -1.44208       -0.29337
C         -3.38604       -0.77965       -0.01647
C         -3.46957        0.65845        0.44546
O         -2.48366        1.51224       -0.11477
C         -1.21326        1.00845       -0.06940
C         -0.18251        1.94694       -0.14200
C          1.14912        1.53199       -0.11019
C          1.44288        0.17426       -0.01687
Br         3.24472       -0.39505        0.02609
C          0.41712       -0.77044        0.03669
C         -0.92483       -0.35863        0.00407
C         -2.01403       -1.39343        0.01505
H         -4.44770        1.05582        0.15499
H         -3.40597        0.68715        1.53956
H         -0.41783        3.00578       -0.21793
H          1.94328        2.27199       -0.16072
H          0.65876       -1.82994        0.09348
H         -1.93768       -1.99355        0.92814
H         -1.90982       -2.03918       -0.86363
