      -----------------------------------------------------------      
     |                   =====================                   |     
     |                           x T B                           |     
     |                   =====================                   |     
     |                         S. Grimme                         |     
     |          Mulliken Center for Theoretical Chemistry        |     
     |                    University of Bonn                     |     
      -----------------------------------------------------------      

   * xtb version 6.7.0 (08769fc) compiled by 'albert@albert-system' on 2024-03-04

   xtb is free software: you can redistribute it and/or modify it under
   the terms of the GNU Lesser General Public License as published by
   the Free Software Foundation, either version 3 of the License, or
   (at your option) any later version.
   
   xtb is distributed in the hope that it will be useful,
   but WITHOUT ANY WARRANTY; without even the implied warranty of
   MERCHANTABILITY or FITNESS FOR A PARTICULAR PURPOSE.  See the
   GNU Lesser General Public License for more details.
   
   Cite this work as:
   * C. Bannwarth, E. Caldeweyher, S. Ehlert, A. Hansen, P. Pracht,
     J. Seibert, S. Spicher, S. Grimme, WIREs Comput. Mol. Sci., 2020, 11,
     e01493. DOI: 10.1002/wcms.1493
   
   for GFN2-xTB:
   * C. Bannwarth, S. Ehlert and S. Grimme., J. Chem. Theory Comput., 2019,
     15, 1652-1671. DOI: 10.1021/acs.jctc.8b01176
   for GFN1-xTB:
   * S. Grimme, C. Bannwarth, P. Shushkov, J. Chem. Theory Comput., 2017,
     13, 1989-2009. DOI: 10.1021/acs.jctc.7b00118
   for GFN0-xTB:
   * P. Pracht, E. Caldeweyher, S. Ehlert, S. Grimme, ChemRxiv, 2019, preprint.
     DOI: 10.26434/chemrxiv.8326202.v1
   for GFN-FF:
   * S. Spicher and S. Grimme, Angew. Chem. Int. Ed., 2020, 59, 15665-15673.
     DOI: 10.1002/anie.202004239
   
   for ALPB and GBSA implicit solvation:
   * S. Ehlert, M. Stahn, S. Spicher, S. Grimme, J. Chem. Theory Comput.,
     2021, 17, 4250-4261. DOI: 10.1021/acs.jctc.1c00471
   
   for ddCOSMO and CPCM-X implicit solvation:
   * M. Stahn, S. Ehlert, S. Grimme, J. Phys. Chem. A,
     2023, XX, XXXX-XXXX. DOI: 10.1021/acs.jpca.3c04382
   
   for DFT-D4:
   * E. Caldeweyher, C. Bannwarth and S. Grimme, J. Chem. Phys., 2017,
     147, 034112. DOI: 10.1063/1.4993215
   * E. Caldeweyher, S. Ehlert, A. Hansen, H. Neugebauer, S. Spicher,
     C. Bannwarth and S. Grimme, J. Chem. Phys., 2019, 150, 154122.
     DOI: 10.1063/1.5090222
   * E. Caldeweyher, J.-M. Mewes, S. Ehlert and S. Grimme, Phys. Chem. Chem. Phys.
     2020, 22, 8499-8512. DOI: 10.1039/D0CP00502A
   
   for sTDA-xTB:
   * S. Grimme and C. Bannwarth, J. Chem. Phys., 2016, 145, 054103.
     DOI: 10.1063/1.4959605
   
   in the mass-spec context:
   * V. Asgeirsson, C. Bauer and S. Grimme, Chem. Sci., 2017, 8, 4879.
     DOI: 10.1039/c7sc00601b
   * J. Koopman and S. Grimme, ACS Omega 2019, 4, 12, 15120-15133.
     DOI: 10.1021/acsomega.9b02011
   
   for metadynamics refer to:
   * S. Grimme, J. Chem. Theory Comput., 2019, 155, 2847-2862
     DOI: 10.1021/acs.jctc.9b00143
   
   for SPH calculations refer to:
   * S. Spicher and S. Grimme, J. Chem. Theory Comput., 2021, 17, 1701-1714
     DOI: 10.1021/acs.jctc.0c01306
   
   for ONIOM refer to:
   * C. Plett, A. Katbashev, S. Ehlert, S. Grimme, M. Bursch,
     Phys. Chem. Chem. Phys., 2023, 25, 17860-17868. DOI: 10.1039/D3CP02178E
   
   for DIPRO refer to:
   * J. Kohn, N. Gildemeister, S. Grimme, D. Fazzi, A. Hansen,
     J. Chem. Phys., 2023, just accepted.
   
   for PTB refer to:
   * S. Grimme, M. Mueller, A. Hansen, J. Chem. Phys., 2023, 158, 124111.
     DOI: 10.1063/5.0137838
   
   with help from (in alphabetical order)
   P. Atkinson, C. Bannwarth, F. Bohle, G. Brandenburg, E. Caldeweyher
   M. Checinski, S. Dohm, S. Ehlert, S. Ehrlich, I. Gerasimov, C. Hölzer
   A. Katbashev, J. Kohn, J. Koopman, C. Lavigne, S. Lehtola, F. März, M. Müller,
   F. Musil, H. Neugebauer, J. Pisarek, C. Plett, P. Pracht, F. Pultar,
   J. Seibert, P. Shushkov, S. Spicher, M. Stahn, M. Steiner, T. Strunk,
   J. Stückrath, T. Rose, and J. Unsleber
   
 * started run on 2024/09/25 at 09:26:11.382     
   ID    Z sym.   atoms
    1   35 Br     1
    2    6 C      2-7, 9-11
    3    8 O      8
    4    1 H      12-20

           -------------------------------------------------
          |                Calculation Setup                |
           -------------------------------------------------

          program call               : xtb arbr43_xtb.xyz --opt
          hostname                   : dynamo.chem.colostate.edu
          coordinate file            : arbr43_xtb.xyz
          omp threads                :                    96


           -------------------------------------------------
          |                 G F N 2 - x T B                 |
           -------------------------------------------------

        Reference                      10.1021/acs.jctc.8b01176
      * Hamiltonian:
        H0-scaling (s, p, d)           1.850000    2.230000    2.230000
        zeta-weighting                 0.500000
      * Dispersion:
        s8                             2.700000
        a1                             0.520000
        a2                             5.000000
        s9                             5.000000
      * Repulsion:
        kExp                           1.500000    1.000000
        rExp                           1.000000
      * Coulomb:
        alpha                          2.000000
        third order                    shell-resolved
        anisotropic                    true
        a3                             3.000000
        a5                             4.000000
        cn-shift                       1.200000
        cn-exp                         4.000000
        max-rad                        5.000000


          ...................................................
          :                      SETUP                      :
          :.................................................:
          :  # basis functions                  59          :
          :  # atomic orbitals                  58          :
          :  # shells                           32          :
          :  # electrons                        58          :
          :  max. iterations                   250          :
          :  Hamiltonian                  GFN2-xTB          :
          :  restarted?                      false          :
          :  GBSA solvation                  false          :
          :  PC potential                    false          :
          :  electronic temp.          300.0000000     K    :
          :  accuracy                    1.0000000          :
          :  -> integral cutoff          0.2500000E+02      :
          :  -> integral neglect         0.1000000E-07      :
          :  -> SCF convergence          0.1000000E-05 Eh   :
          :  -> wf. convergence          0.1000000E-03 e    :
          :  Broyden damping             0.4000000          :
          :  net charge                          0          :
          :  unpaired electrons                  0          :
          ...................................................

 iter      E             dE          RMSdq      gap      omega  full diag
   1    -32.3857078 -0.323857E+02  0.491E+00    4.03       0.0  T
   2    -32.4241319 -0.384240E-01  0.305E+00    3.87       1.0  T
   3    -32.4151421  0.898981E-02  0.132E+00    3.86       1.0  T
   4    -32.4309296 -0.157875E-01  0.492E-01    3.86       1.0  T
   5    -32.4315800 -0.650478E-03  0.317E-01    3.88       1.0  T
   6    -32.4316834 -0.103306E-03  0.191E-01    3.86       1.0  T
   7    -32.4318953 -0.211960E-03  0.140E-01    3.88       1.0  T
   8    -32.4319461 -0.508063E-04  0.546E-02    3.88       1.0  T
   9    -32.4319741 -0.280056E-04  0.204E-02    3.88       1.1  T
  10    -32.4319754 -0.131861E-05  0.987E-03    3.88       2.3  T
  11    -32.4319757 -0.268353E-06  0.213E-03    3.88      10.5  T
  12    -32.4319757 -0.166936E-07  0.106E-03    3.88      21.1  T
  13    -32.4319757 -0.777253E-08  0.393E-04    3.88      56.8  T
  14    -32.4319757 -0.546471E-09  0.216E-04    3.88     103.3  T

   *** convergence criteria satisfied after 14 iterations ***

         #    Occupation            Energy/Eh            Energy/eV
      -------------------------------------------------------------
         1        2.0000           -0.8329442             -22.6656
       ...           ...                  ...                  ...
        23        2.0000           -0.4581570             -12.4671
        24        2.0000           -0.4441956             -12.0872
        25        2.0000           -0.4366489             -11.8818
        26        2.0000           -0.4291264             -11.6771
        27        2.0000           -0.4070852             -11.0774
        28        2.0000           -0.4003298             -10.8935
        29        2.0000           -0.3887066             -10.5772 (HOMO)
        30                         -0.2460672              -6.6958 (LUMO)
        31                         -0.2344560              -6.3799
        32                         -0.1983484              -5.3973
        33                         -0.1194874              -3.2514
        34                          0.0063705               0.1733
       ...                                ...                  ...
        58                          0.6142834              16.7155
      -------------------------------------------------------------
                  HL-Gap            0.1426394 Eh            3.8814 eV
             Fermi-level           -0.3173869 Eh           -8.6365 eV

 SCC (total)                   0 d,  0 h,  0 min,  0.749 sec
 SCC setup                      ...        0 min,  0.001 sec (  0.113%)
 Dispersion                     ...        0 min,  0.001 sec (  0.115%)
 classical contributions        ...        0 min,  0.001 sec (  0.084%)
 integral evaluation            ...        0 min,  0.606 sec ( 80.937%)
 iterations                     ...        0 min,  0.132 sec ( 17.620%)
 molecular gradient             ...        0 min,  0.008 sec (  1.061%)
 printout                       ...        0 min,  0.000 sec (  0.057%)

         :::::::::::::::::::::::::::::::::::::::::::::::::::::
         ::                     SUMMARY                     ::
         :::::::::::::::::::::::::::::::::::::::::::::::::::::
         :: total energy             -32.022620866768 Eh    ::
         :: gradient norm              0.033849724915 Eh/a0 ::
         :: HOMO-LUMO gap              3.881414789603 eV    ::
         ::.................................................::
         :: SCC energy               -32.431935554586 Eh    ::
         :: -> isotropic ES            0.020010051733 Eh    ::
         :: -> anisotropic ES          0.002544065290 Eh    ::
         :: -> anisotropic XC          0.008419672875 Eh    ::
         :: -> dispersion             -0.018978557406 Eh    ::
         :: repulsion energy           0.409314687818 Eh    ::
         :: add. restraining           0.000000000000 Eh    ::
         :: total charge               0.000000000000 e     ::
         :::::::::::::::::::::::::::::::::::::::::::::::::::::

      ----------------------------------------------------------- 
     |                   =====================                   |
     |                        A N C O P T                        |
     |                   =====================                   |
     |               Approximate Normal Coordinate               |
     |                Rational Function Optimizer                |
      ----------------------------------------------------------- 
      ----------------------------------------------------------- 
     |                   =====================                   |
     |                        A N C O P T                        |
     |                   =====================                   |
     |               Approximate Normal Coordinate               |
     |                Rational Function Optimizer                |
      ----------------------------------------------------------- 

          ...................................................
          :                      SETUP                      :
          :.................................................:
          :   optimization level            normal          :
          :   max. optcycles                   200          :
          :   ANC micro-cycles                  20          :
          :   degrees of freedom                54          :
          :.................................................:
          :   RF solver                   davidson          :
          :   write xtbopt.log                true          :
          :   linear?                        false          :
          :   energy convergence         0.5000000E-05 Eh   :
          :   grad. convergence          0.1000000E-02 Eh/α :
          :   maxmium RF displ.          1.0000000          :
          :   Hlow (freq-cutoff)         0.1000000E-01      :
          :   Hmax (freq-cutoff)         5.0000000          :
          :   S6 in model hess.         20.0000000          :
          ...................................................

generating ANC from model Hessian ...
Using Lindh-Hessian (1995)
 Shifting diagonal of input Hessian by   6.695204278782681E-003
 Lowest  eigenvalues of input Hessian
    0.000000    0.000000    0.000000    0.000000    0.000000    0.000000
    0.010000    0.011366    0.016320    0.020587    0.022787    0.026304
    0.032020    0.036298    0.040162    0.047133    0.055183    0.059171
 Highest eigenvalues
    1.408156    1.539563    1.674336    1.834155    1.943537    2.006258
 

........................................................................
.............................. CYCLE    1 ..............................
........................................................................

 iter      E             dE          RMSdq      gap      omega  full diag
   1    -32.4319757 -0.324320E+02  0.138E-04    3.88       0.0  T
   2    -32.4319757 -0.481819E-10  0.102E-04    3.88     219.2  T
   3    -32.4319757 -0.244711E-10  0.808E-05    3.88     276.6  T
     SCC iter.                  ...        0 min,  0.014 sec
     gradient                   ...        0 min,  0.010 sec
 * total energy  :   -32.0226209 Eh     change       -0.1678089E-09 Eh
   gradient norm :     0.0338494 Eh/α   predicted     0.0000000E+00 (-100.00%)
   displ. norm   :     0.1452981 α      lambda       -0.2710644E-02
   maximum displ.:     0.0818412 α      in ANC's #12, #31, #24, ...

........................................................................
.............................. CYCLE    2 ..............................
........................................................................

 iter      E             dE          RMSdq      gap      omega  full diag
   1    -32.4474762 -0.324475E+02  0.177E-01    3.95       0.0  T
   2    -32.4474888 -0.126760E-04  0.107E-01    3.95       1.0  T
   3    -32.4474744  0.144705E-04  0.408E-02    3.95       1.0  T
   4    -32.4474926 -0.182270E-04  0.647E-03    3.95       3.5  T
   5    -32.4474929 -0.346303E-06  0.339E-03    3.95       6.6  T
   6    -32.4474930 -0.389957E-07  0.209E-03    3.95      10.7  T
   7    -32.4474930 -0.148886E-07  0.128E-03    3.95      17.5  T
   8    -32.4474930 -0.391073E-08  0.954E-04    3.95      23.4  T
   9    -32.4474930 -0.325973E-08  0.484E-04    3.95      46.2  T
     SCC iter.                  ...        0 min,  0.092 sec
     gradient                   ...        0 min,  0.008 sec
 * total energy  :   -32.0243037 Eh     change       -0.1682786E-02 Eh
   gradient norm :     0.0131806 Eh/α   predicted    -0.1383950E-02 ( -17.76%)
   displ. norm   :     0.0894434 α      lambda       -0.3961690E-03
   maximum displ.:     0.0461661 α      in ANC's #1, #3, #2, ...

........................................................................
.............................. CYCLE    3 ..............................
........................................................................

 iter      E             dE          RMSdq      gap      omega  full diag
   1    -32.4521760 -0.324522E+02  0.770E-02    3.97       0.0  T
   2    -32.4521841 -0.807848E-05  0.472E-02    3.97       1.0  T
   3    -32.4521819  0.212738E-05  0.236E-02    3.97       1.0  T
   4    -32.4521860 -0.408677E-05  0.512E-03    3.97       4.4  T
   5    -32.4521862 -0.142553E-06  0.245E-03    3.97       9.1  T
   6    -32.4521862 -0.218187E-07  0.168E-03    3.97      13.3  T
   7    -32.4521862 -0.456452E-08  0.105E-03    3.97      21.4  T
   8    -32.4521862 -0.347011E-08  0.658E-04    3.97      34.0  T
   9    -32.4521862 -0.170411E-08  0.299E-04    3.97      74.7  T
     SCC iter.                  ...        0 min,  0.068 sec
     gradient                   ...        0 min,  0.008 sec
 * total energy  :   -32.0245387 Eh     change       -0.2350595E-03 Eh
   gradient norm :     0.0042812 Eh/α   predicted    -0.2009898E-03 ( -14.49%)
   displ. norm   :     0.0678281 α      lambda       -0.7285915E-04
   maximum displ.:     0.0466909 α      in ANC's #1, #3, #2, ...

........................................................................
.............................. CYCLE    4 ..............................
........................................................................

 iter      E             dE          RMSdq      gap      omega  full diag
   1    -32.4520493 -0.324520E+02  0.375E-02    3.97       0.0  T
   2    -32.4520509 -0.165149E-05  0.225E-02    3.97       1.0  T
   3    -32.4520503  0.688903E-06  0.109E-02    3.97       2.1  T
   4    -32.4520515 -0.119444E-05  0.336E-03    3.97       6.6  T
   5    -32.4520515 -0.278142E-07  0.194E-03    3.97      11.6  T
   6    -32.4520515 -0.722088E-08  0.147E-03    3.97      15.2  T
   7    -32.4520515 -0.721554E-08  0.758E-04    3.97      29.5  T
   8    -32.4520515 -0.153040E-08  0.422E-04    3.97      53.0  T
     SCC iter.                  ...        0 min,  0.040 sec
     gradient                   ...        0 min,  0.009 sec
 * total energy  :   -32.0245930 Eh     change       -0.5430719E-04 Eh
   gradient norm :     0.0015836 Eh/α   predicted    -0.3659790E-04 ( -32.61%)
   displ. norm   :     0.1505722 α      lambda       -0.6150558E-04
   maximum displ.:     0.0974607 α      in ANC's #1, #2, #3, ...

........................................................................
.............................. CYCLE    5 ..............................
........................................................................

 iter      E             dE          RMSdq      gap      omega  full diag
   1    -32.4507214 -0.324507E+02  0.685E-02    3.97       0.0  T
   2    -32.4507240 -0.259180E-05  0.403E-02    3.97       1.0  T
   3    -32.4507215  0.252832E-05  0.164E-02    3.97       1.4  T
   4    -32.4507250 -0.352708E-05  0.511E-03    3.97       4.4  T
   5    -32.4507251 -0.436137E-07  0.296E-03    3.97       7.6  T
   6    -32.4507251 -0.162037E-07  0.219E-03    3.97      10.2  T
   7    -32.4507251 -0.171639E-07  0.123E-03    3.97      18.1  T
   8    -32.4507251 -0.253802E-08  0.706E-04    3.97      31.7  T
   9    -32.4507251 -0.302268E-08  0.258E-04    3.97      86.5  T
     SCC iter.                  ...        0 min,  0.060 sec
     gradient                   ...        0 min,  0.009 sec
 * total energy  :   -32.0246459 Eh     change       -0.5288317E-04 Eh
   gradient norm :     0.0035732 Eh/α   predicted    -0.3110438E-04 ( -41.18%)
   displ. norm   :     0.0573363 α      lambda       -0.2592044E-04
   maximum displ.:     0.0377118 α      in ANC's #2, #1, #3, ...

........................................................................
.............................. CYCLE    6 ..............................
........................................................................

 iter      E             dE          RMSdq      gap      omega  full diag
   1    -32.4507918 -0.324508E+02  0.234E-02    3.97       0.0  T
   2    -32.4507919 -0.667418E-07  0.134E-02    3.97       1.7  T
   3    -32.4507919 -0.149948E-07  0.203E-03    3.97      11.0  T
   4    -32.4507919 -0.534571E-08  0.125E-03    3.97      17.9  T
   5    -32.4507919 -0.732540E-08  0.622E-04    3.97      35.9  T
   6    -32.4507919 -0.601311E-09  0.439E-04    3.97      50.9  T
     SCC iter.                  ...        0 min,  0.033 sec
     gradient                   ...        0 min,  0.007 sec
 * total energy  :   -32.0246685 Eh     change       -0.2254873E-04 Eh
   gradient norm :     0.0028391 Eh/α   predicted    -0.1300728E-04 ( -42.31%)
   displ. norm   :     0.1128473 α      lambda       -0.4423687E-04
   maximum displ.:     0.0764377 α      in ANC's #2, #1, #3, ...

........................................................................
.............................. CYCLE    7 ..............................
........................................................................

 iter      E             dE          RMSdq      gap      omega  full diag
   1    -32.4511378 -0.324511E+02  0.453E-02    3.97       0.0  T
   2    -32.4511382 -0.427353E-06  0.264E-02    3.97       1.0  T
   3    -32.4511382  0.177397E-07  0.486E-03    3.97       4.6  T
   4    -32.4511383 -0.108364E-06  0.295E-03    3.97       7.6  T
   5    -32.4511384 -0.428418E-07  0.168E-03    3.97      13.3  T
   6    -32.4511384 -0.333318E-08  0.118E-03    3.97      18.9  T
   7    -32.4511384 -0.408173E-08  0.741E-04    3.97      30.2  T
   8    -32.4511384 -0.194523E-08  0.320E-04    3.97      69.8  T
     SCC iter.                  ...        0 min,  0.055 sec
     gradient                   ...        0 min,  0.008 sec
 * total energy  :   -32.0246977 Eh     change       -0.2925622E-04 Eh
   gradient norm :     0.0010100 Eh/α   predicted    -0.2240993E-04 ( -23.40%)
   displ. norm   :     0.0816877 α      lambda       -0.8855628E-05
   maximum displ.:     0.0640355 α      in ANC's #2, #1, #3, ...

........................................................................
.............................. CYCLE    8 ..............................
........................................................................

 iter      E             dE          RMSdq      gap      omega  full diag
   1    -32.4514940 -0.324515E+02  0.335E-02    3.97       0.0  T
   2    -32.4514942 -0.174611E-06  0.195E-02    3.97       1.1  T
   3    -32.4514942  0.214872E-07  0.348E-03    3.97       6.4  T
   4    -32.4514943 -0.683177E-07  0.204E-03    3.97      11.0  T
   5    -32.4514943 -0.158151E-07  0.117E-03    3.97      19.1  T
   6    -32.4514943 -0.193170E-08  0.806E-04    3.97      27.7  T
   7    -32.4514943 -0.151184E-08  0.514E-04    3.97      43.5  T
     SCC iter.                  ...        0 min,  0.047 sec
     gradient                   ...        0 min,  0.010 sec
 * total energy  :   -32.0247049 Eh     change       -0.7213075E-05 Eh
   gradient norm :     0.0009093 Eh/α   predicted    -0.4485798E-05 ( -37.81%)
   displ. norm   :     0.0149824 α      lambda       -0.2005741E-05
   maximum displ.:     0.0131203 α      in ANC's #2, #1, #10, ...

........................................................................
.............................. CYCLE    9 ..............................
........................................................................

 iter      E             dE          RMSdq      gap      omega  full diag
   1    -32.4516342 -0.324516E+02  0.786E-03    3.97       0.0  T
   2    -32.4516343 -0.206114E-07  0.447E-03    3.97       5.0  T
   3    -32.4516342  0.176213E-07  0.136E-03    3.97      16.5  T
   4    -32.4516343 -0.234812E-07  0.425E-04    3.97      52.7  T
   5    -32.4516343 -0.493870E-09  0.222E-04    3.97     100.5  T
     SCC iter.                  ...        0 min,  0.029 sec
     gradient                   ...        0 min,  0.008 sec
 * total energy  :   -32.0247073 Eh     change       -0.2358077E-05 Eh
   gradient norm :     0.0003970 Eh/α   predicted    -0.1052486E-05 ( -55.37%)
   displ. norm   :     0.0181335 α      lambda       -0.1506188E-05
   maximum displ.:     0.0140819 α      in ANC's #2, #1, #3, ...

   *** GEOMETRY OPTIMIZATION CONVERGED AFTER 9 ITERATIONS ***

------------------------------------------------------------------------
 total energy gain   :        -0.0020864 Eh       -1.3092 kcal/mol
 total RMSD          :         0.1336301 a0        0.0707 Å
 total power (kW/mol):        -0.6086526 (step)   -9.1130 (real)
------------------------------------------------------------------------

 ANCopt (total)                0 d,  0 h,  0 min,  0.601 sec
 optimizer setup                ...        0 min,  0.000 sec (  0.025%)
 model hessian                  ...        0 min,  0.030 sec (  4.987%)
 ANC generation                 ...        0 min,  0.006 sec (  0.928%)
 coordinate transformation      ...        0 min,  0.000 sec (  0.022%)
 single point calculation       ...        0 min,  0.550 sec ( 91.504%)
 optimization log               ...        0 min,  0.007 sec (  1.233%)
 hessian update                 ...        0 min,  0.006 sec (  1.056%)
 rational function              ...        0 min,  0.001 sec (  0.121%)

================
 final structure:
================
20
 xtb: 6.7.0 (08769fc)
Br           2.99341768871278       -0.25958187443240       -0.10009243856396
C            1.14492999706531        0.19043477900933       -0.01904239670912
C            0.77156534903831        1.52267408326777        0.02996170102847
C           -0.57581537943853        1.82671293198237        0.07294144247726
C           -1.54811094922696        0.83662878338420        0.08075099434078
C           -1.14665362142340       -0.50201141925489        0.05256324377708
C            0.20890948050678       -0.82187395488616       -0.00776488704189
O           -2.00854023069670       -1.55071414545794        0.06264449378592
C           -3.36940488125492       -1.25155963087048        0.31038892354081
C           -3.82062701440274        0.00148205506909       -0.42880893215019
C           -3.01189079974462        1.18433004263435        0.09477822313329
H            1.51618057407731        2.30251976184066        0.02671866361231
H           -0.88513469734053        2.86130517038514        0.09736645089205
H            0.49777639560090       -1.85993468481900       -0.04321631981941
H           -3.92135827788144       -2.13547285482431       -0.01776661712127
H           -3.51964268603718       -1.12208541465214        1.39139337420164
H           -3.63556807315368       -0.13033882372283       -1.49682492280835
H           -4.88826106248333        0.15648300967233       -0.27645037192138
H           -3.32258678910774        1.42203092819331        1.11737668390790
H           -3.18659502280961        2.07262125748160       -0.51534730856193
 
 Bond Distances (Angstroems)
 ---------------------------
Br1-C2=1.9042        C2-Br1=1.9042        C2-C3=1.3844         C2-C7=1.3788         C3-C2=1.3844         C3-C4=1.3819         
C3-H12=1.0782        C4-C3=1.3819         C4-C5=1.3877         C4-H13=1.0801        C5-C4=1.3877         C5-C6=1.3978         
C5-C11=1.5046        C6-C5=1.3978         C6-C7=1.3941         C6-O8=1.3575         C7-C2=1.3788         C7-C6=1.3941         
C7-H14=1.0781        O8-C6=1.3575         O8-C9=1.4152         C9-O8=1.4152         C9-C10=1.5232        C9-H15=1.0925        
C9-H16=1.0990        C10-C9=1.5232        C10-C11=1.5256       C10-H17=1.0919       C10-H18=1.0895       C11-C5=1.5046        
C11-C10=1.5256       C11-H19=1.0949       C11-H20=1.0917       H12-C3=1.0782        H13-C4=1.0801        H14-C7=1.0781        
H15-C9=1.0925        H16-C9=1.0990        H17-C10=1.0919       H18-C10=1.0895       H19-C11=1.0949       H20-C11=1.0917       
 C  H  Rav=1.0885 sigma=0.0073  Rmin=1.0781  Rmax=1.0990     9
 C  C  Rav=1.4309 sigma=0.0619  Rmin=1.3788  Rmax=1.5256     9
 O  C  Rav=1.3863 sigma=0.0289  Rmin=1.3575  Rmax=1.4152     2
 Br C  Rav=1.9042 sigma=0.0000  Rmin=1.9042  Rmax=1.9042     1
 
 selected bond angles (degree)
 --------------------
C3-C2-Br1=119.39               C7-C2-Br1=119.07               C7-C2-C3=121.54                C4-C3-C2=118.41                
H12-C3-C2=120.64               H12-C3-C4=120.95               C5-C4-C3=121.76                H13-C4-C3=119.38               
H13-C4-C5=118.86               C6-C5-C4=118.81                C11-C5-C4=121.12               C11-C5-C6=120.06               
C7-C6-C5=119.99                O8-C6-C5=123.87                O8-C6-C7=116.13                C6-C7-C2=119.47                
H14-C7-C2=121.65               H14-C7-C6=118.87               C9-O8-C6=116.65                C10-C9-O8=111.95               
H15-C9-O8=105.20               H15-C9-C10=111.72              H16-C9-O8=109.18               H16-C9-C10=109.87              
H16-C9-H15=108.76              C11-C10-C9=108.31              H17-C10-C9=108.97              H17-C10-C11=109.84             
H18-C10-C9=109.84              H18-C10-C11=111.17             H18-C10-H17=108.66             
 
 selected dihedral angles (degree)
 ---------------------------------
C4-C3-C2-Br1=179.27           C4-C3-C2-C7=359.13            H12-C3-C2-Br1=359.74          H12-C3-C2-C7=179.61           
C5-C4-C3-C2=  0.62            C5-C4-C3-H12=180.14           H13-C4-C3-C2=180.86           H13-C4-C3-H12=  0.38          
C6-C5-C4-C3=  0.40            C6-C5-C4-H13=180.16           C11-C5-C4-C3=181.47           C11-C5-C4-H13=  1.23          
C7-C6-C5-C4=358.81            C7-C6-C5-C11=177.75           O8-C6-C5-C4=179.72            O8-C6-C5-C11=358.66           
C6-C7-C2-Br1=179.95           C6-C7-C2-C3=  0.08            H14-C7-C2-Br1=  0.03          H14-C7-C2-C3=180.17           
C2-C7-C6-C5=  0.96            C2-C7-C6-O8=180.12            H14-C7-C6-C5=180.88           H14-C7-C6-O8=  0.04           
C9-O8-C6-C5=350.60            C9-O8-C6-C7=171.48            C10-C9-O8-C6= 41.73           H15-C9-O8-C6=163.26           
H16-C9-O8-C6=279.84           C11-C10-C9-O8=297.26          C11-C10-C9-H15=179.55         C11-C10-C9-H16= 58.74         
H17-C10-C9-O8= 56.72          H17-C10-C9-H15=299.02         H17-C10-C9-H16=178.21         H18-C10-C9-O8=175.66          
H18-C10-C9-H15= 57.96         H18-C10-C9-H16=297.15         
           -------------------------------------------------
          |                Final Singlepoint                |
           -------------------------------------------------

          ...................................................
          :                      SETUP                      :
          :.................................................:
          :  # basis functions                  59          :
          :  # atomic orbitals                  58          :
          :  # shells                           32          :
          :  # electrons                        58          :
          :  max. iterations                   250          :
          :  Hamiltonian                  GFN2-xTB          :
          :  restarted?                      false          :
          :  GBSA solvation                  false          :
          :  PC potential                    false          :
          :  electronic temp.          300.0000000     K    :
          :  accuracy                    1.0000000          :
          :  -> integral cutoff          0.2500000E+02      :
          :  -> integral neglect         0.1000000E-07      :
          :  -> SCF convergence          0.1000000E-05 Eh   :
          :  -> wf. convergence          0.1000000E-03 e    :
          :  Broyden damping             0.4000000          :
          :  net charge                          0          :
          :  unpaired electrons                  0          :
          ...................................................

 iter      E             dE          RMSdq      gap      omega  full diag
   1    -32.4516343 -0.324516E+02  0.146E-04    3.97       0.0  T
   2    -32.4516343 -0.352784E-10  0.119E-04    3.97     188.6  T
   3    -32.4516343 -0.136282E-10  0.943E-05    3.97     237.0  T

   *** convergence criteria satisfied after 3 iterations ***

         #    Occupation            Energy/Eh            Energy/eV
      -------------------------------------------------------------
         1        2.0000           -0.8315142             -22.6267
       ...           ...                  ...                  ...
        23        2.0000           -0.4591893             -12.4952
        24        2.0000           -0.4453692             -12.1191
        25        2.0000           -0.4354966             -11.8505
        26        2.0000           -0.4300696             -11.7028
        27        2.0000           -0.4057582             -11.0412
        28        2.0000           -0.3999056             -10.8820
        29        2.0000           -0.3884355             -10.5699 (HOMO)
        30                         -0.2426239              -6.6021 (LUMO)
        31                         -0.2323005              -6.3212
        32                         -0.1996796              -5.4336
        33                         -0.1138229              -3.0973
        34                          0.0183714               0.4999
       ...                                ...                  ...
        58                          0.6402032              17.4208
      -------------------------------------------------------------
                  HL-Gap            0.1458116 Eh            3.9677 eV
             Fermi-level           -0.3155297 Eh           -8.5860 eV

 SCC (total)                   0 d,  0 h,  0 min,  0.039 sec
 SCC setup                      ...        0 min,  0.001 sec (  3.092%)
 Dispersion                     ...        0 min,  0.001 sec (  2.200%)
 classical contributions        ...        0 min,  0.001 sec (  1.461%)
 integral evaluation            ...        0 min,  0.002 sec (  4.288%)
 iterations                     ...        0 min,  0.027 sec ( 68.463%)
 molecular gradient             ...        0 min,  0.007 sec ( 18.904%)
 printout                       ...        0 min,  0.001 sec (  1.381%)

         :::::::::::::::::::::::::::::::::::::::::::::::::::::
         ::                     SUMMARY                     ::
         :::::::::::::::::::::::::::::::::::::::::::::::::::::
         :: total energy             -32.024707278763 Eh    ::
         :: gradient norm              0.000396726366 Eh/a0 ::
         :: HOMO-LUMO gap              3.967736186408 eV    ::
         ::.................................................::
         :: SCC energy               -32.451593378742 Eh    ::
         :: -> isotropic ES            0.019807764904 Eh    ::
         :: -> anisotropic ES          0.002094929235 Eh    ::
         :: -> anisotropic XC          0.007983733131 Eh    ::
         :: -> dispersion             -0.019049671609 Eh    ::
         :: repulsion energy           0.426886099980 Eh    ::
         :: add. restraining           0.000000000000 Eh    ::
         :: total charge               0.000000000000 e     ::
         :::::::::::::::::::::::::::::::::::::::::::::::::::::

           -------------------------------------------------
          |                Property Printout                |
           -------------------------------------------------

    * Orbital Energies and Occupations

         #    Occupation            Energy/Eh            Energy/eV
      -------------------------------------------------------------
         1        2.0000           -0.8315142             -22.6267
       ...           ...                  ...                  ...
        17        2.0000           -0.5109829             -13.9046
        18        2.0000           -0.5022512             -13.6670
        19        2.0000           -0.4969655             -13.5231
        20        2.0000           -0.4847827             -13.1916
        21        2.0000           -0.4761691             -12.9572
        22        2.0000           -0.4651157             -12.6564
        23        2.0000           -0.4591893             -12.4952
        24        2.0000           -0.4453692             -12.1191
        25        2.0000           -0.4354966             -11.8505
        26        2.0000           -0.4300696             -11.7028
        27        2.0000           -0.4057582             -11.0412
        28        2.0000           -0.3999056             -10.8820
        29        2.0000           -0.3884355             -10.5699 (HOMO)
        30                         -0.2426239              -6.6021 (LUMO)
        31                         -0.2323005              -6.3212
        32                         -0.1996796              -5.4336
        33                         -0.1138229              -3.0973
        34                          0.0183714               0.4999
        35                          0.0440657               1.1991
        36                          0.0471545               1.2831
        37                          0.0473991               1.2898
        38                          0.0716296               1.9491
        39                          0.0836077               2.2751
        40                          0.0856713               2.3312
       ...                                ...                  ...
        58                          0.6402032              17.4208
      -------------------------------------------------------------
                  HL-Gap            0.1458116 Eh            3.9677 eV
             Fermi-level           -0.3155297 Eh           -8.5860 eV

     #   Z          covCN         q      C6AA      α(0)
     1  35 Br       1.073    -0.168   189.708    22.208
     2   6 C        2.918     0.080    26.213     8.396
     3   6 C        2.989    -0.049    29.219     8.867
     4   6 C        2.929    -0.041    29.017     8.834
     5   6 C        2.969    -0.021    28.524     8.760
     6   6 C        2.879     0.143    24.890     8.179
     7   6 C        2.996    -0.064    29.576     8.921
     8   8 O        1.705    -0.268    18.438     5.797
     9   6 C        3.706     0.078    19.411     6.298
    10   6 C        3.805    -0.064    21.726     6.636
    11   6 C        3.812    -0.056    21.572     6.611
    12   1 H        0.926     0.053     2.277     2.360
    13   1 H        0.926     0.043     2.407     2.426
    14   1 H        0.926     0.066     2.133     2.284
    15   1 H        0.924     0.052     2.290     2.367
    16   1 H        0.923     0.035     2.515     2.480
    17   1 H        0.924     0.048     2.348     2.396
    18   1 H        0.925     0.040     2.444     2.445
    19   1 H        0.924     0.046     2.375     2.410
    20   1 H        0.924     0.046     2.368     2.406

 Mol. C6AA /au·bohr⁶  :       5947.957950
 Mol. C8AA /au·bohr⁸  :     176581.670168
 Mol. α(0) /au        :        121.080545


Wiberg/Mayer (AO) data.
largest (>0.10) Wiberg bond orders for each atom

 ---------------------------------------------------------------------------
     #   Z sym  total        # sym  WBO       # sym  WBO       # sym  WBO
 ---------------------------------------------------------------------------
     1  35 Br   1.105 --     2 C    0.978
     2   6 C    3.938 --     7 C    1.433     3 C    1.395     1 Br   0.978
     3   6 C    3.988 --     4 C    1.440     2 C    1.395    12 H    0.968
     4   6 C    3.991 --     3 C    1.440     5 C    1.418    13 H    0.967
                             7 C    0.102
     5   6 C    3.987 --     4 C    1.418     6 C    1.340    11 C    1.010
     6   6 C    3.939 --     7 C    1.353     5 C    1.340     8 O    1.073
     7   6 C    3.985 --     2 C    1.433     6 C    1.353    14 H    0.965
                             4 C    0.102
     8   8 O    2.241 --     6 C    1.073     9 C    0.966
     9   6 C    3.945 --    10 C    1.002    15 H    0.971    16 H    0.968
                             8 O    0.966
    10   6 C    3.996 --    11 C    1.007     9 C    1.002    17 H    0.977
                            18 H    0.976
    11   6 C    3.997 --     5 C    1.010    10 C    1.007    20 H    0.969
                            19 H    0.961
    12   1 H    0.997 --     3 C    0.968
    13   1 H    0.998 --     4 C    0.967
    14   1 H    0.995 --     7 C    0.965
    15   1 H    0.997 --     9 C    0.971
    16   1 H    0.999 --     9 C    0.968
    17   1 H    0.998 --    10 C    0.977
    18   1 H    0.998 --    10 C    0.976
    19   1 H    0.997 --    11 C    0.961
    20   1 H    0.997 --    11 C    0.969
 ---------------------------------------------------------------------------

Topologies differ in total number of bonds
Writing topology from bond orders to xtbtopo.mol

molecular dipole:
                 x           y           z       tot (Debye)
 q only:       -1.527       0.485       0.080
   full:       -2.175       0.649       0.140       5.779
molecular quadrupole (traceless):
                xx          xy          yy          xz          yz          zz
 q only:        2.279       0.082      -0.287      -0.237      -0.161      -1.993
  q+dip:       -3.887       1.165       3.864      -0.428      -0.052       0.023
   full:       -3.211       0.938       2.092      -0.356      -0.165       1.119

           -------------------------------------------------
          |                Geometry Summary                 |
           -------------------------------------------------

      molecular mass/u    :      213.0710225
   center of mass at/Å    :        0.2311319      -0.0285477      -0.0210200
  moments of inertia/u·Å² :        0.2063665E+03   0.1362192E+04   0.1548916E+04
rotational constants/cm⁻¹ :        0.8168783E-01   0.1237537E-01   0.1088350E-01

 * 20 selected distances

     #   Z          #   Z                                           value/Å
     1  35 Br       2   6 C                                       1.9042036 (max)
     2   6 C        3   6 C                                       1.3844365
     3   6 C        4   6 C                                       1.3819269
     4   6 C        5   6 C                                       1.3876911
     5   6 C        6   6 C                                       1.3978271
     2   6 C        7   6 C                                       1.3787788
     6   6 C        7   6 C                                       1.3940958
     6   6 C        8   8 O                                       1.3574711
     8   8 O        9   6 C                                       1.4152115
     9   6 C       10   6 C                                       1.5231969
    10   6 C       11   6 C                                       1.5255581
     3   6 C       12   1 H                                       1.0782494
     4   6 C       13   1 H                                       1.0801187
     7   6 C       14   1 H                                       1.0780868 (min)
     9   6 C       15   1 H                                       1.0925390
     9   6 C       16   1 H                                       1.0990477
    10   6 C       17   1 H                                       1.0919166
    10   6 C       18   1 H                                       1.0895325
    11   6 C       19   1 H                                       1.0948706
    11   6 C       20   1 H                                       1.0917125

 * 4 distinct bonds (by element types)

   Z      Z             #   av. dist./Å        max./Å        min./Å
   1 H    6 C           9     1.0884526     1.0990477     1.0780868
   6 C    6 C           8     1.4216889     1.5255581     1.3787788
   6 C    8 O           2     1.3863413     1.4152115     1.3574711
   6 C   35 Br          1     1.9042036     1.9042036     1.9042036


optimized geometry written to: xtbopt.xyz


           -------------------------------------------------
          | TOTAL ENERGY              -32.024707278763 Eh   |
          | GRADIENT NORM               0.000396726366 Eh/α |
          | HOMO-LUMO GAP               3.967736186408 eV   |
           -------------------------------------------------
########################################################################
[WARNING] Runtime exception occurred
-2- restart_readRestart: Dimension missmatch in restart file.
-1- restart_readRestart: Number of electron missmatch in restart file.
########################################################################

------------------------------------------------------------------------
 * finished run on 2024/09/25 at 09:26:12.928     
------------------------------------------------------------------------
 total:
 * wall-time:     0 d,  0 h,  0 min,  1.546 sec
 *  cpu-time:     0 d,  0 h,  0 min, 51.409 sec
 * ratio c/w:    33.262 speedup
 SCF:
 * wall-time:     0 d,  0 h,  0 min,  0.749 sec
 *  cpu-time:     0 d,  0 h,  0 min, 16.383 sec
 * ratio c/w:    21.864 speedup
 ANC optimizer:
 * wall-time:     0 d,  0 h,  0 min,  0.641 sec
 *  cpu-time:     0 d,  0 h,  0 min, 30.647 sec
 * ratio c/w:    47.792 speedup

