25
arbr39_wb97xd.log	Energy:       1.5423161
O          1.55987       -2.27371        0.00001
C          1.57557       -1.05283       -0.00004
C          0.34585       -0.26341       -0.00006
C         -0.95801       -0.72644        0.00000
C         -1.96995        0.22956        0.00004
Br        -3.77782       -0.32611        0.00001
C         -1.67018        1.60233       -0.00003
C         -0.34049        2.04151        0.00001
C          0.67351        1.09446       -0.00004
C          2.15173        1.37536        0.00002
C          2.78399       -0.03798       -0.00002
C          3.89787       -0.26964        1.06699
C          4.92927        0.13969        0.00003
C          3.89787       -0.26968       -1.06695
H         -1.16714       -1.79113       -0.00002
H         -2.47260        2.33726        0.00004
H         -0.11576        3.10462       -0.00003
H          2.42415        1.94307        0.89551
H          2.42418        1.94304       -0.89553
H          3.86656        0.36601        1.95613
H          3.99511       -1.31315        1.39048
H          5.86367       -0.42714       -0.00000
H          5.16267        1.21050       -0.00005
H          3.86653        0.36598       -1.95609
H          3.99511       -1.31310       -1.39047
