19
 energy: -35.070055548508 gnorm: 0.000457512137 xtb: 6.7.0 (08769fc)
O           -3.33889075265603        1.85454647767760       -0.33795700115562
C           -2.85947340315915        0.77816432928525       -0.09682923352487
O           -3.66348187791992       -0.28241636944463        0.09138345690391
C           -3.10017913058976       -1.52289105143757        0.48769703182631
C           -1.85315701299318       -1.87059441188840       -0.31732636017188
C           -0.87545902736864       -0.74557407073794       -0.15665739089299
C            0.49605799997050       -0.93657076956219       -0.14090779525091
C            1.33237186733283        0.15730819515083        0.01154759416357
Br           3.21400270063485       -0.11756414973196        0.03937762390750
C            0.83095275212091        1.44322261056321        0.14733292951476
C           -0.53656292879820        1.63231621912144        0.12370876188801
C           -1.39205071480803        0.54474733981106       -0.02317409656282
H           -3.89463448323173       -2.25731768903497        0.33917683317172
H           -2.85292110449525       -1.47690705357892        1.55711904372331
H           -1.43314315061470       -2.81418452363282        0.03055047591557
H           -2.11604928734683       -1.97997523517120       -1.37408708858133
H            0.90922299266969       -1.92830249385320       -0.24618259779440
H            1.50260761676721        2.27914484290820        0.26412254913361
H           -0.96315305551455        2.61913780355618        0.21544526378653
