18
arbr31_wb97xd.log	Energy:     -11.3719026
O          3.80644        1.39171        0.00001
C          3.06898        0.42242        0.00002
C          3.49232       -1.02545       -0.00003
C          2.18111       -1.82987        0.00003
C          1.10525       -0.79121       -0.00003
C         -0.26714       -0.99085       -0.00002
C         -1.10013        0.13406       -0.00001
Br        -2.97753       -0.10215        0.00001
C         -0.56982        1.43562       -0.00002
C          0.81279        1.62899        0.00004
C          1.61525        0.50196       -0.00004
H          4.08341       -1.23924       -0.89542
H          4.08341       -1.23918        0.89549
H          2.11429       -2.46167        0.89172
H          2.11432       -2.46169       -0.89168
H         -0.68215       -1.99436        0.00003
H         -1.23017        2.29978       -0.00004
H          1.24724        2.62377       -0.00000
