      -----------------------------------------------------------      
     |                   =====================                   |     
     |                           x T B                           |     
     |                   =====================                   |     
     |                         S. Grimme                         |     
     |          Mulliken Center for Theoretical Chemistry        |     
     |                    University of Bonn                     |     
      -----------------------------------------------------------      

   * xtb version 6.7.0 (08769fc) compiled by 'albert@albert-system' on 2024-03-04

   xtb is free software: you can redistribute it and/or modify it under
   the terms of the GNU Lesser General Public License as published by
   the Free Software Foundation, either version 3 of the License, or
   (at your option) any later version.
   
   xtb is distributed in the hope that it will be useful,
   but WITHOUT ANY WARRANTY; without even the implied warranty of
   MERCHANTABILITY or FITNESS FOR A PARTICULAR PURPOSE.  See the
   GNU Lesser General Public License for more details.
   
   Cite this work as:
   * C. Bannwarth, E. Caldeweyher, S. Ehlert, A. Hansen, P. Pracht,
     J. Seibert, S. Spicher, S. Grimme, WIREs Comput. Mol. Sci., 2020, 11,
     e01493. DOI: 10.1002/wcms.1493
   
   for GFN2-xTB:
   * C. Bannwarth, S. Ehlert and S. Grimme., J. Chem. Theory Comput., 2019,
     15, 1652-1671. DOI: 10.1021/acs.jctc.8b01176
   for GFN1-xTB:
   * S. Grimme, C. Bannwarth, P. Shushkov, J. Chem. Theory Comput., 2017,
     13, 1989-2009. DOI: 10.1021/acs.jctc.7b00118
   for GFN0-xTB:
   * P. Pracht, E. Caldeweyher, S. Ehlert, S. Grimme, ChemRxiv, 2019, preprint.
     DOI: 10.26434/chemrxiv.8326202.v1
   for GFN-FF:
   * S. Spicher and S. Grimme, Angew. Chem. Int. Ed., 2020, 59, 15665-15673.
     DOI: 10.1002/anie.202004239
   
   for ALPB and GBSA implicit solvation:
   * S. Ehlert, M. Stahn, S. Spicher, S. Grimme, J. Chem. Theory Comput.,
     2021, 17, 4250-4261. DOI: 10.1021/acs.jctc.1c00471
   
   for ddCOSMO and CPCM-X implicit solvation:
   * M. Stahn, S. Ehlert, S. Grimme, J. Phys. Chem. A,
     2023, XX, XXXX-XXXX. DOI: 10.1021/acs.jpca.3c04382
   
   for DFT-D4:
   * E. Caldeweyher, C. Bannwarth and S. Grimme, J. Chem. Phys., 2017,
     147, 034112. DOI: 10.1063/1.4993215
   * E. Caldeweyher, S. Ehlert, A. Hansen, H. Neugebauer, S. Spicher,
     C. Bannwarth and S. Grimme, J. Chem. Phys., 2019, 150, 154122.
     DOI: 10.1063/1.5090222
   * E. Caldeweyher, J.-M. Mewes, S. Ehlert and S. Grimme, Phys. Chem. Chem. Phys.
     2020, 22, 8499-8512. DOI: 10.1039/D0CP00502A
   
   for sTDA-xTB:
   * S. Grimme and C. Bannwarth, J. Chem. Phys., 2016, 145, 054103.
     DOI: 10.1063/1.4959605
   
   in the mass-spec context:
   * V. Asgeirsson, C. Bauer and S. Grimme, Chem. Sci., 2017, 8, 4879.
     DOI: 10.1039/c7sc00601b
   * J. Koopman and S. Grimme, ACS Omega 2019, 4, 12, 15120-15133.
     DOI: 10.1021/acsomega.9b02011
   
   for metadynamics refer to:
   * S. Grimme, J. Chem. Theory Comput., 2019, 155, 2847-2862
     DOI: 10.1021/acs.jctc.9b00143
   
   for SPH calculations refer to:
   * S. Spicher and S. Grimme, J. Chem. Theory Comput., 2021, 17, 1701-1714
     DOI: 10.1021/acs.jctc.0c01306
   
   for ONIOM refer to:
   * C. Plett, A. Katbashev, S. Ehlert, S. Grimme, M. Bursch,
     Phys. Chem. Chem. Phys., 2023, 25, 17860-17868. DOI: 10.1039/D3CP02178E
   
   for DIPRO refer to:
   * J. Kohn, N. Gildemeister, S. Grimme, D. Fazzi, A. Hansen,
     J. Chem. Phys., 2023, just accepted.
   
   for PTB refer to:
   * S. Grimme, M. Mueller, A. Hansen, J. Chem. Phys., 2023, 158, 124111.
     DOI: 10.1063/5.0137838
   
   with help from (in alphabetical order)
   P. Atkinson, C. Bannwarth, F. Bohle, G. Brandenburg, E. Caldeweyher
   M. Checinski, S. Dohm, S. Ehlert, S. Ehrlich, I. Gerasimov, C. Hölzer
   A. Katbashev, J. Kohn, J. Koopman, C. Lavigne, S. Lehtola, F. März, M. Müller,
   F. Musil, H. Neugebauer, J. Pisarek, C. Plett, P. Pracht, F. Pultar,
   J. Seibert, P. Shushkov, S. Spicher, M. Stahn, M. Steiner, T. Strunk,
   J. Stückrath, T. Rose, and J. Unsleber
   
 * started run on 2024/09/25 at 09:25:30.289     
   ID    Z sym.   atoms
    1   35 Br     1
    2    6 C      2-11, 13-15
    3   53 I      12
    4    1 H      16-23

           -------------------------------------------------
          |                Calculation Setup                |
           -------------------------------------------------

          program call               : xtb arbr35_xtb.xyz --opt
          hostname                   : dynamo.chem.colostate.edu
          coordinate file            : arbr35_xtb.xyz
          omp threads                :                    96


           -------------------------------------------------
          |                 G F N 2 - x T B                 |
           -------------------------------------------------

        Reference                      10.1021/acs.jctc.8b01176
      * Hamiltonian:
        H0-scaling (s, p, d)           1.850000    2.230000    2.230000
        zeta-weighting                 0.500000
      * Dispersion:
        s8                             2.700000
        a1                             0.520000
        a2                             5.000000
        s9                             5.000000
      * Repulsion:
        kExp                           1.500000    1.000000
        rExp                           1.000000
      * Coulomb:
        alpha                          2.000000
        third order                    shell-resolved
        anisotropic                    true
        a3                             3.000000
        a5                             4.000000
        cn-shift                       1.200000
        cn-exp                         4.000000
        max-rad                        5.000000


          ...................................................
          :                      SETUP                      :
          :.................................................:
          :  # basis functions                  80          :
          :  # atomic orbitals                  78          :
          :  # shells                           40          :
          :  # electrons                        74          :
          :  max. iterations                   250          :
          :  Hamiltonian                  GFN2-xTB          :
          :  restarted?                      false          :
          :  GBSA solvation                  false          :
          :  PC potential                    false          :
          :  electronic temp.          300.0000000     K    :
          :  accuracy                    1.0000000          :
          :  -> integral cutoff          0.2500000E+02      :
          :  -> integral neglect         0.1000000E-07      :
          :  -> SCF convergence          0.1000000E-05 Eh   :
          :  -> wf. convergence          0.1000000E-03 e    :
          :  Broyden damping             0.4000000          :
          :  net charge                          0          :
          :  unpaired electrons                  0          :
          ...................................................

 iter      E             dE          RMSdq      gap      omega  full diag
   1    -40.3737021 -0.403737E+02  0.641E+00    3.27       0.0  T
   2    -40.3945011 -0.207990E-01  0.420E+00    3.06       1.0  T
   3    -40.3343972  0.601039E-01  0.223E+00    3.12       1.0  T
   4    -40.4054892 -0.710920E-01  0.579E-01    3.08       1.0  T
   5    -40.4046872  0.801955E-03  0.405E-01    3.07       1.0  T
   6    -40.4056065 -0.919340E-03  0.233E-01    3.08       1.0  T
   7    -40.4059682 -0.361693E-03  0.146E-01    3.08       1.0  T
   8    -40.4060266 -0.583330E-04  0.421E-02    3.08       1.0  T
   9    -40.4060380 -0.114462E-04  0.245E-02    3.08       1.0  T
  10    -40.4060411 -0.309062E-05  0.151E-02    3.08       1.4  T
  11    -40.4060416 -0.472477E-06  0.102E-02    3.08       2.0  T
  12    -40.4060421 -0.521653E-06  0.608E-03    3.08       3.4  T
  13    -40.4060421 -0.379513E-07  0.309E-03    3.08       6.8  T
  14    -40.4060422 -0.453917E-07  0.111E-03    3.08      18.7  T
  15    -40.4060422 -0.315848E-08  0.398E-04    3.08      52.3  T
  16    -40.4060422 -0.900492E-09  0.225E-04    3.08      92.5  T

   *** convergence criteria satisfied after 16 iterations ***

         #    Occupation            Energy/Eh            Energy/eV
      -------------------------------------------------------------
         1        2.0000           -0.8399921             -22.8573
       ...           ...                  ...                  ...
        31        2.0000           -0.4339354             -11.8080
        32        2.0000           -0.4291412             -11.6775
        33        2.0000           -0.4206525             -11.4465
        34        2.0000           -0.4143186             -11.2742
        35        2.0000           -0.4125759             -11.2268
        36        2.0000           -0.4095705             -11.1450
        37        2.0000           -0.3929404             -10.6925 (HOMO)
        38                         -0.2796178              -7.6088 (LUMO)
        39                         -0.2541845              -6.9167
        40                         -0.2517698              -6.8510
        41                         -0.2277410              -6.1971
        42                         -0.2255893              -6.1386
       ...                                ...                  ...
        78                          0.6907083              18.7951
      -------------------------------------------------------------
                  HL-Gap            0.1133226 Eh            3.0837 eV
             Fermi-level           -0.3362791 Eh           -9.1506 eV

 SCC (total)                   0 d,  0 h,  0 min,  0.705 sec
 SCC setup                      ...        0 min,  0.000 sec (  0.049%)
 Dispersion                     ...        0 min,  0.001 sec (  0.154%)
 classical contributions        ...        0 min,  0.001 sec (  0.081%)
 integral evaluation            ...        0 min,  0.494 sec ( 70.134%)
 iterations                     ...        0 min,  0.198 sec ( 28.107%)
 molecular gradient             ...        0 min,  0.010 sec (  1.396%)
 printout                       ...        0 min,  0.000 sec (  0.066%)

         :::::::::::::::::::::::::::::::::::::::::::::::::::::
         ::                     SUMMARY                     ::
         :::::::::::::::::::::::::::::::::::::::::::::::::::::
         :: total energy             -39.818479849922 Eh    ::
         :: gradient norm              0.074559538527 Eh/a0 ::
         :: HOMO-LUMO gap              3.083664072416 eV    ::
         ::.................................................::
         :: SCC energy               -40.406176559758 Eh    ::
         :: -> isotropic ES            0.008141277493 Eh    ::
         :: -> anisotropic ES          0.000498815645 Eh    ::
         :: -> anisotropic XC          0.017831006413 Eh    ::
         :: -> dispersion             -0.028654494001 Eh    ::
         :: repulsion energy           0.587696709836 Eh    ::
         :: add. restraining           0.000000000000 Eh    ::
         :: total charge              -0.000000000000 e     ::
         :::::::::::::::::::::::::::::::::::::::::::::::::::::

      ----------------------------------------------------------- 
     |                   =====================                   |
     |                        A N C O P T                        |
     |                   =====================                   |
     |               Approximate Normal Coordinate               |
     |                Rational Function Optimizer                |
      ----------------------------------------------------------- 
      ----------------------------------------------------------- 
     |                   =====================                   |
     |                        A N C O P T                        |
     |                   =====================                   |
     |               Approximate Normal Coordinate               |
     |                Rational Function Optimizer                |
      ----------------------------------------------------------- 

          ...................................................
          :                      SETUP                      :
          :.................................................:
          :   optimization level            normal          :
          :   max. optcycles                   200          :
          :   ANC micro-cycles                  20          :
          :   degrees of freedom                63          :
          :.................................................:
          :   RF solver                   davidson          :
          :   write xtbopt.log                true          :
          :   linear?                        false          :
          :   energy convergence         0.5000000E-05 Eh   :
          :   grad. convergence          0.1000000E-02 Eh/α :
          :   maxmium RF displ.          1.0000000          :
          :   Hlow (freq-cutoff)         0.1000000E-01      :
          :   Hmax (freq-cutoff)         5.0000000          :
          :   S6 in model hess.         20.0000000          :
          ...................................................

generating ANC from model Hessian ...
Using Lindh-Hessian (1995)
 Shifting diagonal of input Hessian by   8.807945342064581E-003
 Lowest  eigenvalues of input Hessian
    0.000000    0.000000    0.000000    0.000000    0.000000    0.000000
    0.010000    0.011381    0.012696    0.015120    0.016550    0.017447
    0.021732    0.021842    0.025565    0.031402    0.033686    0.041995
 Highest eigenvalues
    1.789377    1.809720    1.885237    1.897385    2.024218    2.042198
 

........................................................................
.............................. CYCLE    1 ..............................
........................................................................

 iter      E             dE          RMSdq      gap      omega  full diag
   1    -40.4060422 -0.404060E+02  0.328E-05    3.08       0.0  T
   2    -40.4060422 -0.568434E-11  0.178E-05    3.08    1168.9  T
   3    -40.4060422 -0.431299E-11  0.108E-05    3.08    1929.1  T
     SCC iter.                  ...        0 min,  0.019 sec
     gradient                   ...        0 min,  0.009 sec
 * total energy  :   -39.8184799 Eh     change       -0.3580709E-09 Eh
   gradient norm :     0.0745591 Eh/α   predicted     0.0000000E+00 (-100.00%)
   displ. norm   :     0.1674278 α      lambda       -0.7961195E-02
   maximum displ.:     0.0990548 α      in ANC's #34, #19, #25, ...

........................................................................
.............................. CYCLE    2 ..............................
........................................................................

 iter      E             dE          RMSdq      gap      omega  full diag
   1    -40.4389018 -0.404389E+02  0.236E-01    3.12       0.0  T
   2    -40.4389474 -0.455971E-04  0.195E-01    3.11       1.0  T
   3    -40.4389511 -0.370832E-05  0.804E-02    3.11       1.0  T
   4    -40.4390237 -0.726693E-04  0.286E-02    3.11       1.0  T
   5    -40.4390271 -0.332353E-05  0.222E-02    3.11       1.0  T
   6    -40.4390276 -0.535879E-06  0.139E-02    3.11       1.5  T
   7    -40.4390288 -0.122905E-05  0.810E-03    3.11       2.6  T
   8    -40.4390289 -0.117168E-06  0.438E-03    3.11       4.8  T
   9    -40.4390291 -0.135442E-06  0.180E-03    3.11      11.6  T
  10    -40.4390291 -0.119124E-07  0.117E-03    3.11      17.9  T
  11    -40.4390291 -0.264569E-08  0.798E-04    3.11      26.1  T
  12    -40.4390291 -0.132435E-08  0.407E-04    3.11      51.3  T
     SCC iter.                  ...        0 min,  0.098 sec
     gradient                   ...        0 min,  0.007 sec
 * total energy  :   -39.8234023 Eh     change       -0.4922411E-02 Eh
   gradient norm :     0.0219129 Eh/α   predicted    -0.4092237E-02 ( -16.87%)
   displ. norm   :     0.0550706 α      lambda       -0.6953304E-03
   maximum displ.:     0.0223578 α      in ANC's #34, #19, #25, ...

........................................................................
.............................. CYCLE    3 ..............................
........................................................................

 iter      E             dE          RMSdq      gap      omega  full diag
   1    -40.4465989 -0.404466E+02  0.717E-02    3.11       0.0  T
   2    -40.4466066 -0.761650E-05  0.530E-02    3.10       1.0  T
   3    -40.4466087 -0.215798E-05  0.267E-02    3.10       1.0  T
   4    -40.4466074  0.134171E-05  0.147E-02    3.10       1.4  T
   5    -40.4466106 -0.324535E-05  0.522E-03    3.10       4.0  T
   6    -40.4466106 -0.203364E-07  0.347E-03    3.10       6.0  T
   7    -40.4466107 -0.532207E-07  0.224E-03    3.10       9.3  T
   8    -40.4466107 -0.177370E-07  0.115E-03    3.10      18.2  T
   9    -40.4466107 -0.475858E-08  0.670E-04    3.10      31.1  T
  10    -40.4466107 -0.817643E-09  0.300E-04    3.10      69.4  T
     SCC iter.                  ...        0 min,  0.099 sec
     gradient                   ...        0 min,  0.012 sec
 * total energy  :   -39.8237600 Eh     change       -0.3577607E-03 Eh
   gradient norm :     0.0057578 Eh/α   predicted    -0.3487766E-03 (  -2.51%)
   displ. norm   :     0.0171044 α      lambda       -0.3758692E-04
   maximum displ.:     0.0123792 α      in ANC's #4, #21, #19, ...

........................................................................
.............................. CYCLE    4 ..............................
........................................................................

 iter      E             dE          RMSdq      gap      omega  full diag
   1    -40.4461329 -0.404461E+02  0.247E-02    3.10       0.0  T
   2    -40.4461332 -0.332441E-06  0.153E-02    3.10       1.4  T
   3    -40.4461327  0.556896E-06  0.893E-03    3.10       2.3  T
   4    -40.4461335 -0.787599E-06  0.483E-03    3.10       4.3  T
   5    -40.4461335 -0.308045E-07  0.273E-03    3.10       7.6  T
   6    -40.4461335 -0.514231E-08  0.152E-03    3.10      13.7  T
   7    -40.4461335 -0.629174E-08  0.744E-04    3.10      28.0  T
   8    -40.4461335 -0.691602E-08  0.317E-04    3.10      65.8  T
     SCC iter.                  ...        0 min,  0.081 sec
     gradient                   ...        0 min,  0.011 sec
 * total energy  :   -39.8237832 Eh     change       -0.2319176E-04 Eh
   gradient norm :     0.0026181 Eh/α   predicted    -0.1880278E-04 ( -18.92%)
   displ. norm   :     0.0105853 α      lambda       -0.1174433E-04
   maximum displ.:     0.0073004 α      in ANC's #8, #4, #15, ...

........................................................................
.............................. CYCLE    5 ..............................
........................................................................

 iter      E             dE          RMSdq      gap      omega  full diag
   1    -40.4452879 -0.404453E+02  0.126E-02    3.09       0.0  T
   2    -40.4452880 -0.107872E-06  0.804E-03    3.09       2.6  T
   3    -40.4452876  0.357247E-06  0.496E-03    3.09       4.2  T
   4    -40.4452881 -0.488399E-06  0.217E-03    3.09       9.6  T
   5    -40.4452881 -0.614091E-08  0.136E-03    3.09      15.4  T
   6    -40.4452881 -0.162744E-08  0.888E-04    3.09      23.5  T
   7    -40.4452881 -0.458747E-08  0.402E-04    3.09      51.9  T
     SCC iter.                  ...        0 min,  0.044 sec
     gradient                   ...        0 min,  0.020 sec
 * total energy  :   -39.8237894 Eh     change       -0.6137863E-05 Eh
   gradient norm :     0.0005525 Eh/α   predicted    -0.5985222E-05 (  -2.49%)
   displ. norm   :     0.0050508 α      lambda       -0.3638328E-06
   maximum displ.:     0.0047082 α      in ANC's #4, #24, #21, ...

........................................................................
.............................. CYCLE    6 ..............................
........................................................................

 iter      E             dE          RMSdq      gap      omega  full diag
   1    -40.4453573 -0.404454E+02  0.552E-03    3.09       0.0  T
   2    -40.4453573 -0.663864E-08  0.317E-03    3.09       6.6  T
   3    -40.4453573  0.210427E-07  0.116E-03    3.09      17.9  T
   4    -40.4453573 -0.256947E-07  0.407E-04    3.09      51.3  T
   5    -40.4453573 -0.155654E-08  0.171E-04    3.09     121.7  T
     SCC iter.                  ...        0 min,  0.037 sec
     gradient                   ...        0 min,  0.025 sec
 * total energy  :   -39.8237897 Eh     change       -0.3577018E-06 Eh
   gradient norm :     0.0001810 Eh/α   predicted    -0.2575736E-06 ( -27.99%)
   displ. norm   :     0.0029098 α      lambda       -0.1408171E-06
   maximum displ.:     0.0025020 α      in ANC's #8, #4, #24, ...

   *** GEOMETRY OPTIMIZATION CONVERGED AFTER 6 ITERATIONS ***

------------------------------------------------------------------------
 total energy gain   :        -0.0053099 Eh       -3.3320 kcal/mol
 total RMSD          :         0.0460094 a0        0.0243 Å
 total power (kW/mol):        -2.3235056 (step)  -26.0002 (real)
------------------------------------------------------------------------

 ANCopt (total)                0 d,  0 h,  0 min,  0.536 sec
 optimizer setup                ...        0 min,  0.000 sec (  0.027%)
 model hessian                  ...        0 min,  0.014 sec (  2.520%)
 ANC generation                 ...        0 min,  0.017 sec (  3.193%)
 coordinate transformation      ...        0 min,  0.000 sec (  0.018%)
 single point calculation       ...        0 min,  0.493 sec ( 91.969%)
 optimization log               ...        0 min,  0.007 sec (  1.385%)
 hessian update                 ...        0 min,  0.003 sec (  0.639%)
 rational function              ...        0 min,  0.001 sec (  0.145%)

================
 final structure:
================
23
 xtb: 6.7.0 (08769fc)
Br           5.88606418478825       -0.30480517286543       -0.00001029138821
C            4.02111146055879        0.09350974310654        0.00000565924454
C            3.61828836664807        1.42065331517411       -0.00000471398741
C            2.26939973422533        1.73033686791711        0.00000000988086
C            1.34511566338540        0.69696247887765        0.00000825391595
C            1.77030825260680       -0.64201034635857        0.00001409698191
C            3.11223311409882       -0.95570746409331        0.00001110576214
C            0.58844094132022       -1.56598691786591        0.00002496335163
C           -0.56795135163584       -0.61005580544966        0.00001865584746
C           -1.91820607854539       -0.88745245898128        0.00001749513061
C           -2.80081093138804        0.18230679959746        0.00000447103951
I           -4.88314609699435       -0.20731939627212        0.00001444695015
C           -2.36107477788537        1.49641101446713        0.00000341722115
C           -1.00438224235487        1.77220453341058        0.00000509912586
C           -0.10656119144425        0.71628597407327        0.00001080713901
H            4.35943870509468        2.20494928156105       -0.00000591529498
H            1.95032939194351        2.76111405843547       -0.00000178025956
H            3.45366618198125       -1.97967102253789        0.00001213473744
H            0.57983929975234       -2.21280703942409        0.88055714104734
H            0.57983644036307       -2.21282869249051       -0.88049077703353
H           -2.27874807573503       -1.90489325915745        0.00002165775016
H           -3.07568847372904        2.30492798087316       -0.00000412702469
H           -0.65996251705437        2.79491552800269       -0.00000181013733
 
 Bond Distances (Angstroems)
 ---------------------------
Br1-C2=1.9070        C2-Br1=1.9070        C2-C3=1.3869         C2-C7=1.3881         C3-C2=1.3869         C3-C4=1.3840         
C3-H16=1.0791        C4-C3=1.3840         C4-C5=1.3864         C4-H17=1.0790        C5-C4=1.3864         C5-C6=1.4049         
C5-C15=1.4518        C6-C5=1.4049         C6-C7=1.3781         C6-C8=1.5002         C7-C2=1.3881         C7-C6=1.3781         
C7-H18=1.0794        C8-C6=1.5002         C8-C9=1.5003         C8-H19=1.0926        C8-H20=1.0926        C9-C8=1.5003         
C9-C10=1.3785        C9-C15=1.4043        C10-C9=1.3785        C10-C11=1.3869       C10-H21=1.0794       C11-C10=1.3869       
C11-I12=2.1185       C11-C13=1.3857       I12-C11=2.1185       C13-C11=1.3857       C13-C14=1.3844       C13-H22=1.0791       
C14-C13=1.3844       C14-C15=1.3860       C14-H23=1.0791       C15-C5=1.4518        C15-C9=1.4043        C15-C14=1.3860       
H16-C3=1.0791        H17-C4=1.0790        H18-C7=1.0794        H19-C8=1.0926        H20-C8=1.0926        H21-C10=1.0794       
H22-C13=1.0791       H23-C14=1.0791       
 C  H  Rav=1.0825 sigma=0.0058  Rmin=1.0790  Rmax=1.0926     8
 C  C  Rav=1.4071 sigma=0.0405  Rmin=1.3781  Rmax=1.5003    15
 Br C  Rav=1.9070 sigma=0.0000  Rmin=1.9070  Rmax=1.9070     1
 I  C  Rav=2.1185 sigma=0.0000  Rmin=2.1185  Rmax=2.1185     1
 
 selected bond angles (degree)
 --------------------
C3-C2-Br1=118.94               C7-C2-Br1=118.84               C7-C2-C3=122.22                C4-C3-C2=119.81                
H16-C3-C2=119.74               H16-C3-C4=120.45               C5-C4-C3=118.88                H17-C4-C3=120.13               
H17-C4-C5=120.99               C6-C5-C4=120.57                C15-C5-C4=131.05               C15-C5-C6=108.38               
C7-C6-C5=120.77                C8-C6-C5=110.40                C8-C6-C7=128.82                C6-C7-C2=117.74                
H18-C7-C2=120.66               H18-C7-C6=121.60               C9-C8-C6=102.40                H19-C8-C6=111.77               
H19-C8-C9=111.78               H20-C8-C6=111.77               H20-C8-C9=111.78               H20-C8-H19=107.39              
C10-C9-C8=128.81               C15-C9-C8=110.40               C15-C9-C10=120.79              C11-C10-C9=117.92              
H21-C10-C9=121.12              H21-C10-C11=120.96             
 
 selected dihedral angles (degree)
 ---------------------------------
C4-C3-C2-Br1=180.00           C4-C3-C2-C7=  0.00            H16-C3-C2-Br1=  0.00          H16-C3-C2-C7=180.00           
C5-C4-C3-C2=  0.00            C5-C4-C3-H16=180.00           H17-C4-C3-C2=180.00           H17-C4-C3-H16=  0.00          
C6-C5-C4-C3=  0.00            C6-C5-C4-H17=180.00           C15-C5-C4-C3=180.00           C15-C5-C4-H17=  0.00          
C7-C6-C5-C4=  0.00            C7-C6-C5-C15=180.00           C8-C6-C5-C4=180.00            C8-C6-C5-C15=  0.00           
C6-C7-C2-Br1=180.00           C6-C7-C2-C3=  0.00            H18-C7-C2-Br1=  0.00          H18-C7-C2-C3=180.00           
C2-C7-C6-C5=  0.00            C2-C7-C6-C8=180.00            H18-C7-C6-C5=180.00           H18-C7-C6-C8=  0.00           
C9-C8-C6-C5=  0.00            C9-C8-C6-C7=180.00            H19-C8-C6-C5=240.20           H19-C8-C6-C7= 60.20           
H20-C8-C6-C5=119.80           H20-C8-C6-C7=299.80           C10-C9-C8-C6=180.00           C10-C9-C8-H19=299.79          
C10-C9-C8-H20= 60.21          C15-C9-C8-C6=  0.00           C15-C9-C8-H19=119.79          C15-C9-C8-H20=240.21          
C11-C10-C9-C8=180.00          C11-C10-C9-C15=  0.00         H21-C10-C9-C8=  0.00          H21-C10-C9-C15=180.00         
           -------------------------------------------------
          |                Final Singlepoint                |
           -------------------------------------------------

          ...................................................
          :                      SETUP                      :
          :.................................................:
          :  # basis functions                  80          :
          :  # atomic orbitals                  78          :
          :  # shells                           40          :
          :  # electrons                        74          :
          :  max. iterations                   250          :
          :  Hamiltonian                  GFN2-xTB          :
          :  restarted?                      false          :
          :  GBSA solvation                  false          :
          :  PC potential                    false          :
          :  electronic temp.          300.0000000     K    :
          :  accuracy                    1.0000000          :
          :  -> integral cutoff          0.2500000E+02      :
          :  -> integral neglect         0.1000000E-07      :
          :  -> SCF convergence          0.1000000E-05 Eh   :
          :  -> wf. convergence          0.1000000E-03 e    :
          :  Broyden damping             0.4000000          :
          :  net charge                          0          :
          :  unpaired electrons                  0          :
          ...................................................

 iter      E             dE          RMSdq      gap      omega  full diag
   1    -40.4453573 -0.404454E+02  0.111E-04    3.09       0.0  T
   2    -40.4453573 -0.351434E-10  0.862E-05    3.09     242.0  T
   3    -40.4453573 -0.253451E-10  0.672E-05    3.09     310.3  T

   *** convergence criteria satisfied after 3 iterations ***

         #    Occupation            Energy/Eh            Energy/eV
      -------------------------------------------------------------
         1        2.0000           -0.8404858             -22.8708
       ...           ...                  ...                  ...
        31        2.0000           -0.4347600             -11.8304
        32        2.0000           -0.4324450             -11.7674
        33        2.0000           -0.4233332             -11.5195
        34        2.0000           -0.4144821             -11.2786
        35        2.0000           -0.4123102             -11.2195
        36        2.0000           -0.4100364             -11.1577
        37        2.0000           -0.3935405             -10.7088 (HOMO)
        38                         -0.2799026              -7.6165 (LUMO)
        39                         -0.2509377              -6.8284
        40                         -0.2488947              -6.7728
        41                         -0.2288886              -6.2284
        42                         -0.2222512              -6.0478
       ...                                ...                  ...
        78                          0.7005810              19.0638
      -------------------------------------------------------------
                  HL-Gap            0.1136379 Eh            3.0922 eV
             Fermi-level           -0.3367216 Eh           -9.1627 eV

 SCC (total)                   0 d,  0 h,  0 min,  0.033 sec
 SCC setup                      ...        0 min,  0.001 sec (  4.067%)
 Dispersion                     ...        0 min,  0.001 sec (  2.630%)
 classical contributions        ...        0 min,  0.000 sec (  1.421%)
 integral evaluation            ...        0 min,  0.002 sec (  7.117%)
 iterations                     ...        0 min,  0.020 sec ( 61.039%)
 molecular gradient             ...        0 min,  0.007 sec ( 21.754%)
 printout                       ...        0 min,  0.001 sec (  1.684%)

         :::::::::::::::::::::::::::::::::::::::::::::::::::::
         ::                     SUMMARY                     ::
         :::::::::::::::::::::::::::::::::::::::::::::::::::::
         :: total energy             -39.823789709276 Eh    ::
         :: gradient norm              0.000181017279 Eh/a0 ::
         :: HOMO-LUMO gap              3.092244977635 eV    ::
         ::.................................................::
         :: SCC energy               -40.445494015466 Eh    ::
         :: -> isotropic ES            0.008470877866 Eh    ::
         :: -> anisotropic ES          0.000282586612 Eh    ::
         :: -> anisotropic XC          0.016371533279 Eh    ::
         :: -> dispersion             -0.028770011316 Eh    ::
         :: repulsion energy           0.621704306190 Eh    ::
         :: add. restraining           0.000000000000 Eh    ::
         :: total charge               0.000000000000 e     ::
         :::::::::::::::::::::::::::::::::::::::::::::::::::::

           -------------------------------------------------
          |                Property Printout                |
           -------------------------------------------------

    * Orbital Energies and Occupations

         #    Occupation            Energy/Eh            Energy/eV
      -------------------------------------------------------------
         1        2.0000           -0.8404858             -22.8708
       ...           ...                  ...                  ...
        25        2.0000           -0.4939408             -13.4408
        26        2.0000           -0.4652095             -12.6590
        27        2.0000           -0.4617423             -12.5646
        28        2.0000           -0.4579052             -12.4602
        29        2.0000           -0.4472604             -12.1706
        30        2.0000           -0.4458044             -12.1310
        31        2.0000           -0.4347600             -11.8304
        32        2.0000           -0.4324450             -11.7674
        33        2.0000           -0.4233332             -11.5195
        34        2.0000           -0.4144821             -11.2786
        35        2.0000           -0.4123102             -11.2195
        36        2.0000           -0.4100364             -11.1577
        37        2.0000           -0.3935405             -10.7088 (HOMO)
        38                         -0.2799026              -7.6165 (LUMO)
        39                         -0.2509377              -6.8284
        40                         -0.2488947              -6.7728
        41                         -0.2288886              -6.2284
        42                         -0.2222512              -6.0478
        43                         -0.2086031              -5.6764
        44                         -0.1421720              -3.8687
        45                         -0.0898198              -2.4441
        46                          0.0165565               0.4505
        47                          0.0208630               0.5677
        48                          0.0295050               0.8029
       ...                                ...                  ...
        78                          0.7005810              19.0638
      -------------------------------------------------------------
                  HL-Gap            0.1136379 Eh            3.0922 eV
             Fermi-level           -0.3367216 Eh           -9.1627 eV

     #   Z          covCN         q      C6AA      α(0)
     1  35 Br       1.070    -0.168   189.696    22.207
     2   6 C        2.920     0.081    26.184     8.391
     3   6 C        2.994    -0.038    28.931     8.823
     4   6 C        2.917    -0.032    28.786     8.798
     5   6 C        3.039     0.000    27.982     8.676
     6   6 C        3.056     0.009    27.760     8.641
     7   6 C        2.988    -0.043    29.068     8.844
     8   6 C        3.844    -0.066    21.730     6.631
     9   6 C        3.056     0.009    27.767     8.642
    10   6 C        3.046    -0.042    28.986     8.830
    11   6 C        2.960     0.056    26.735     8.481
    12  53 I        1.226    -0.134   381.864    33.733
    13   6 C        3.051    -0.036    28.847     8.809
    14   6 C        2.917    -0.031    28.786     8.798
    15   6 C        3.039     0.001    27.968     8.674
    16   1 H        0.926     0.055     2.262     2.352
    17   1 H        0.926     0.045     2.384     2.414
    18   1 H        0.926     0.053     2.284     2.363
    19   1 H        0.924     0.068     2.112     2.273
    20   1 H        0.924     0.068     2.112     2.273
    21   1 H        0.926     0.050     2.326     2.385
    22   1 H        0.926     0.051     2.303     2.373
    23   1 H        0.926     0.043     2.403     2.424

 Mol. C6AA /au·bohr⁶  :      12905.818631
 Mol. C8AA /au·bohr⁸  :     497780.266938
 Mol. α(0) /au        :        185.835548


Wiberg/Mayer (AO) data.
largest (>0.10) Wiberg bond orders for each atom

 ---------------------------------------------------------------------------
     #   Z sym  total        # sym  WBO       # sym  WBO       # sym  WBO
 ---------------------------------------------------------------------------
     1  35 Br   1.110 --     2 C    0.984
     2   6 C    3.917 --     3 C    1.405     7 C    1.396     1 Br   0.984
     3   6 C    3.989 --     4 C    1.446     2 C    1.405    16 H    0.968
     4   6 C    3.979 --     3 C    1.446     5 C    1.387    17 H    0.967
                             7 C    0.100
     5   6 C    3.988 --     4 C    1.387     6 C    1.322    15 C    1.090
     6   6 C    3.985 --     7 C    1.441     5 C    1.322     8 C    1.017
     7   6 C    3.989 --     6 C    1.441     2 C    1.396    18 H    0.966
                             4 C    0.100
     8   6 C    3.991 --     6 C    1.017     9 C    1.017    20 H    0.942
                            19 H    0.942
     9   6 C    3.985 --    10 C    1.438    15 C    1.323     8 C    1.017
    10   6 C    3.989 --     9 C    1.438    11 C    1.409    21 H    0.967
                            14 C    0.101
    11   6 C    3.930 --    13 C    1.418    10 C    1.409    12 I    0.971
    12  53 I    1.079 --    11 C    0.971
    13   6 C    3.989 --    14 C    1.443    11 C    1.418    22 H    0.969
    14   6 C    3.979 --    13 C    1.443    15 C    1.388    23 H    0.966
                            10 C    0.101
    15   6 C    3.988 --    14 C    1.388     9 C    1.323     5 C    1.090
    16   1 H    0.996 --     3 C    0.968
    17   1 H    0.998 --     4 C    0.967
    18   1 H    0.997 --     7 C    0.966
    19   1 H    0.995 --     8 C    0.942
    20   1 H    0.995 --     8 C    0.942
    21   1 H    0.997 --    10 C    0.967
    22   1 H    0.997 --    13 C    0.969
    23   1 H    0.998 --    14 C    0.966
 ---------------------------------------------------------------------------

Topologies differ in total number of bonds
Writing topology from bond orders to xtbtopo.mol

molecular dipole:
                 x           y           z       tot (Debye)
 q only:       -0.100       0.068       0.000
   full:        0.033       0.254       0.000       0.652
molecular quadrupole (traceless):
                xx          xy          yy          xz          yz          zz
 q only:      -24.781       0.795      16.595       0.000      -0.000       8.186
  q+dip:      -44.076       1.056      31.197       0.000      -0.000      12.878
   full:      -43.514       1.162      27.208       0.000      -0.000      16.306

           -------------------------------------------------
          |                Geometry Summary                 |
           -------------------------------------------------

      molecular mass/u    :      371.0110924
   center of mass at/Å    :       -0.1314021      -0.0201843       0.0000068
  moments of inertia/u·Å² :        0.2542041E+03   0.6655098E+04   0.6906176E+04
rotational constants/cm⁻¹ :        0.6631535E-01   0.2533040E-02   0.2440950E-02

 * 21 selected distances

     #   Z          #   Z                                           value/Å
     1  35 Br       2   6 C                                       1.9070144 (max)
     2   6 C        3   6 C                                       1.3869307
     3   6 C        4   6 C                                       1.3839815
     4   6 C        5   6 C                                       1.3864213
     5   6 C        6   6 C                                       1.4048620
     2   6 C        7   6 C                                       1.3881343
     6   6 C        7   6 C                                       1.3781033
     9   6 C       10   6 C                                       1.3784546
    10   6 C       11   6 C                                       1.3868585
    11   6 C       13   6 C                                       1.3857266
    13   6 C       14   6 C                                       1.3844411
     9   6 C       15   6 C                                       1.4043019
    14   6 C       15   6 C                                       1.3860184
     3   6 C       16   1 H                                       1.0790849
     4   6 C       17   1 H                                       1.0790309 (min)
     7   6 C       18   1 H                                       1.0793878
     8   6 C       19   1 H                                       1.0926058
     8   6 C       20   1 H                                       1.0926054
    10   6 C       21   1 H                                       1.0794334
    13   6 C       22   1 H                                       1.0790610
    14   6 C       23   1 H                                       1.0791492

 * 3 distinct bonds (by element types)

   Z      Z             #   av. dist./Å        max./Å        min./Å
   1 H    6 C           8     1.0825448     1.0926058     1.0790309
   6 C    6 C          12     1.3878528     1.4048620     1.3781033
   6 C   35 Br          1     1.9070144     1.9070144     1.9070144


optimized geometry written to: xtbopt.xyz


           -------------------------------------------------
          | TOTAL ENERGY              -39.823789709276 Eh   |
          | GRADIENT NORM               0.000181017279 Eh/α |
          | HOMO-LUMO GAP               3.092244977635 eV   |
           -------------------------------------------------
########################################################################
[WARNING] Runtime exception occurred
-2- restart_readRestart: Dimension missmatch in restart file.
-1- restart_readRestart: Number of electron missmatch in restart file.
########################################################################

------------------------------------------------------------------------
 * finished run on 2024/09/25 at 09:25:31.676     
------------------------------------------------------------------------
 total:
 * wall-time:     0 d,  0 h,  0 min,  1.386 sec
 *  cpu-time:     0 d,  0 h,  0 min, 49.592 sec
 * ratio c/w:    35.783 speedup
 SCF:
 * wall-time:     0 d,  0 h,  0 min,  0.705 sec
 *  cpu-time:     0 d,  0 h,  0 min, 19.687 sec
 * ratio c/w:    27.916 speedup
 ANC optimizer:
 * wall-time:     0 d,  0 h,  0 min,  0.571 sec
 *  cpu-time:     0 d,  0 h,  0 min, 27.325 sec
 * ratio c/w:    47.892 speedup

