20
arbr79_wb97xd.log	Energy:      33.7973057
C         -3.96575        1.37264       -0.09461
C         -3.08671        0.37032        0.01548
C         -3.43468       -1.09418        0.13578
C         -2.12509       -1.86872       -0.07947
C         -1.07716       -0.80127       -0.01675
C          0.29900       -0.98995       -0.02459
C          1.11958        0.13803        0.00407
Br         2.99907       -0.07606       -0.00216
C          0.57237        1.42777        0.03414
C         -0.81515        1.60379        0.03593
C         -1.63127        0.48144        0.00878
H         -3.65521        2.40699       -0.19406
H         -5.03362        1.17750       -0.08998
H         -3.82486       -1.29860        1.14055
H         -4.19302       -1.40156       -0.59232
H         -2.11491       -2.35058       -1.06317
H         -1.98125       -2.62523        0.69820
H          0.71937       -1.98996       -0.05556
H          1.22005        2.30042        0.05639
H         -1.23495        2.60380        0.06281
