28
arbr42_wb97xd.log	Energy:     -64.0138155
Br        -3.45383       -0.56312       -0.01969
C         -1.81731        0.38368       -0.00628
C         -1.82267        1.76947        0.10222
C         -0.61335        2.46340        0.11095
C          0.60973        1.77711        0.02065
C          0.61666        0.37012       -0.09929
C         -0.61443       -0.31326       -0.10606
C          1.92247       -0.40679       -0.17395
C          3.10386        0.47833       -0.59630
C          3.14375        1.75767        0.23015
C          1.88553        2.58525       -0.01276
O          1.81387       -1.48819       -1.11820
C          2.39074       -2.60975       -0.45285
C          2.08121       -2.35751        0.99634
O          2.21076       -0.94425        1.13286
H         -2.75742        2.31795        0.17661
H         -0.62689        3.54892        0.18702
H         -0.62722       -1.39666       -0.19504
H          4.04720       -0.06535       -0.46224
H          3.03502        0.72315       -1.66436
H          4.02833        2.34912       -0.03185
H          3.23005        1.51265        1.29600
H          1.83998        3.38392        0.73729
H          1.95478        3.06227       -0.99871
H          1.96699       -3.54389       -0.82987
H          3.46964       -2.60243       -0.64155
H          2.75936       -2.87532        1.67926
H          1.05008       -2.63185        1.24226
