23
arbr35_wb97xd.log	Energy:      70.2206773
Br         5.92024       -0.31468       -0.00001
C          4.05336        0.08637        0.00004
C          3.62351        1.42963       -0.00003
C          2.25336        1.73695        0.00002
C          1.34153        0.68131        0.00000
C          1.75545       -0.63790       -0.00002
C          3.11347       -0.95956       -0.00000
C          0.58853       -1.58285        0.00002
C         -0.55342       -0.60770        0.00004
C         -1.91927       -0.89383       -0.00000
C         -2.83131        0.17628        0.00004
I         -4.90361       -0.21291       -0.00001
C         -2.36673        1.50776        0.00004
C         -0.98903        1.77927       -0.00000
C         -0.10506        0.70017       -0.00001
H          4.35075        2.23113       -0.00001
H          1.91808        2.76576        0.00000
H          3.43356       -1.99348        0.00001
H          0.58043       -2.20428        0.92034
H          0.58041       -2.20431       -0.92025
H         -2.26656       -1.91880        0.00002
H         -3.07304        2.32766       -0.00003
H         -0.62711        2.79905        0.00001
