20
arbr43_wb97xd.log	Energy:     -21.5506079
Br         3.01008       -0.25046       -0.02167
C          1.17012        0.18360        0.00629
C          0.77673        1.51918        0.06427
C         -0.58185        1.84046        0.07896
C         -1.54949        0.82725        0.03279
C         -1.13747       -0.51096       -0.00053
C          0.21920       -0.83335       -0.02875
O         -2.00615       -1.56957       -0.04286
C         -3.35433       -1.25210        0.31495
C         -3.85240       -0.00440       -0.39421
C         -3.00898        1.18211        0.04731
H          1.51676        2.31453        0.09498
H         -0.88211        2.88518        0.12004
H          0.52083       -1.87585       -0.07223
H         -3.97380       -2.10839        0.02821
H         -3.42220       -1.15267        1.40553
H         -3.75300       -0.13797       -1.47900
H         -4.90918        0.17702       -0.17322
H         -3.28629        1.47736        1.06664
H         -3.20388        2.03268       -0.61593
