23
arbr34_wb97xd.log	Energy:      51.1690265
Br         3.82529       -0.11277       -0.00002
C          1.94899        0.13551        0.00001
C          1.42757        1.44029        0.00006
C          0.04436        1.65371        0.00000
C         -0.79277        0.55017        0.00004
C         -0.25649       -0.75699        0.00002
C          1.11087       -0.98042        0.00001
C         -1.37183       -1.78293        0.00001
C         -2.60607       -0.90437       -0.00003
C         -3.93447       -1.29602       -0.00002
C         -4.91108       -0.29815       -0.00000
C         -4.55152        1.06049       -0.00005
C         -3.20731        1.44753        0.00002
C         -2.23776        0.45893        0.00002
H          2.09669        2.29735       -0.00003
H         -0.35355        2.66292       -0.00005
H          1.51052       -1.98872        0.00002
H         -1.33317       -2.39602       -0.90501
H         -1.33320       -2.39607        0.90509
H         -4.21288       -2.34448        0.00001
H         -5.96331       -0.57364        0.00002
H         -5.32970        1.82035        0.00000
H         -2.94128        2.49891       -0.00006
