      -----------------------------------------------------------      
     |                   =====================                   |     
     |                           x T B                           |     
     |                   =====================                   |     
     |                         S. Grimme                         |     
     |          Mulliken Center for Theoretical Chemistry        |     
     |                    University of Bonn                     |     
      -----------------------------------------------------------      

   * xtb version 6.7.0 (08769fc) compiled by 'albert@albert-system' on 2024-03-04

   xtb is free software: you can redistribute it and/or modify it under
   the terms of the GNU Lesser General Public License as published by
   the Free Software Foundation, either version 3 of the License, or
   (at your option) any later version.
   
   xtb is distributed in the hope that it will be useful,
   but WITHOUT ANY WARRANTY; without even the implied warranty of
   MERCHANTABILITY or FITNESS FOR A PARTICULAR PURPOSE.  See the
   GNU Lesser General Public License for more details.
   
   Cite this work as:
   * C. Bannwarth, E. Caldeweyher, S. Ehlert, A. Hansen, P. Pracht,
     J. Seibert, S. Spicher, S. Grimme, WIREs Comput. Mol. Sci., 2020, 11,
     e01493. DOI: 10.1002/wcms.1493
   
   for GFN2-xTB:
   * C. Bannwarth, S. Ehlert and S. Grimme., J. Chem. Theory Comput., 2019,
     15, 1652-1671. DOI: 10.1021/acs.jctc.8b01176
   for GFN1-xTB:
   * S. Grimme, C. Bannwarth, P. Shushkov, J. Chem. Theory Comput., 2017,
     13, 1989-2009. DOI: 10.1021/acs.jctc.7b00118
   for GFN0-xTB:
   * P. Pracht, E. Caldeweyher, S. Ehlert, S. Grimme, ChemRxiv, 2019, preprint.
     DOI: 10.26434/chemrxiv.8326202.v1
   for GFN-FF:
   * S. Spicher and S. Grimme, Angew. Chem. Int. Ed., 2020, 59, 15665-15673.
     DOI: 10.1002/anie.202004239
   
   for ALPB and GBSA implicit solvation:
   * S. Ehlert, M. Stahn, S. Spicher, S. Grimme, J. Chem. Theory Comput.,
     2021, 17, 4250-4261. DOI: 10.1021/acs.jctc.1c00471
   
   for ddCOSMO and CPCM-X implicit solvation:
   * M. Stahn, S. Ehlert, S. Grimme, J. Phys. Chem. A,
     2023, XX, XXXX-XXXX. DOI: 10.1021/acs.jpca.3c04382
   
   for DFT-D4:
   * E. Caldeweyher, C. Bannwarth and S. Grimme, J. Chem. Phys., 2017,
     147, 034112. DOI: 10.1063/1.4993215
   * E. Caldeweyher, S. Ehlert, A. Hansen, H. Neugebauer, S. Spicher,
     C. Bannwarth and S. Grimme, J. Chem. Phys., 2019, 150, 154122.
     DOI: 10.1063/1.5090222
   * E. Caldeweyher, J.-M. Mewes, S. Ehlert and S. Grimme, Phys. Chem. Chem. Phys.
     2020, 22, 8499-8512. DOI: 10.1039/D0CP00502A
   
   for sTDA-xTB:
   * S. Grimme and C. Bannwarth, J. Chem. Phys., 2016, 145, 054103.
     DOI: 10.1063/1.4959605
   
   in the mass-spec context:
   * V. Asgeirsson, C. Bauer and S. Grimme, Chem. Sci., 2017, 8, 4879.
     DOI: 10.1039/c7sc00601b
   * J. Koopman and S. Grimme, ACS Omega 2019, 4, 12, 15120-15133.
     DOI: 10.1021/acsomega.9b02011
   
   for metadynamics refer to:
   * S. Grimme, J. Chem. Theory Comput., 2019, 155, 2847-2862
     DOI: 10.1021/acs.jctc.9b00143
   
   for SPH calculations refer to:
   * S. Spicher and S. Grimme, J. Chem. Theory Comput., 2021, 17, 1701-1714
     DOI: 10.1021/acs.jctc.0c01306
   
   for ONIOM refer to:
   * C. Plett, A. Katbashev, S. Ehlert, S. Grimme, M. Bursch,
     Phys. Chem. Chem. Phys., 2023, 25, 17860-17868. DOI: 10.1039/D3CP02178E
   
   for DIPRO refer to:
   * J. Kohn, N. Gildemeister, S. Grimme, D. Fazzi, A. Hansen,
     J. Chem. Phys., 2023, just accepted.
   
   for PTB refer to:
   * S. Grimme, M. Mueller, A. Hansen, J. Chem. Phys., 2023, 158, 124111.
     DOI: 10.1063/5.0137838
   
   with help from (in alphabetical order)
   P. Atkinson, C. Bannwarth, F. Bohle, G. Brandenburg, E. Caldeweyher
   M. Checinski, S. Dohm, S. Ehlert, S. Ehrlich, I. Gerasimov, C. Hölzer
   A. Katbashev, J. Kohn, J. Koopman, C. Lavigne, S. Lehtola, F. März, M. Müller,
   F. Musil, H. Neugebauer, J. Pisarek, C. Plett, P. Pracht, F. Pultar,
   J. Seibert, P. Shushkov, S. Spicher, M. Stahn, M. Steiner, T. Strunk,
   J. Stückrath, T. Rose, and J. Unsleber
   
 * started run on 2024/09/25 at 09:25:03.911     
   ID    Z sym.   atoms
    1    8 O      1, 3
    2    6 C      2, 4-8, 10-12
    3   35 Br     9
    4    1 H      13-19

           -------------------------------------------------
          |                Calculation Setup                |
           -------------------------------------------------

          program call               : xtb arbr32_xtb.xyz --opt
          hostname                   : dynamo.chem.colostate.edu
          coordinate file            : arbr32_xtb.xyz
          omp threads                :                    96


           -------------------------------------------------
          |                 G F N 2 - x T B                 |
           -------------------------------------------------

        Reference                      10.1021/acs.jctc.8b01176
      * Hamiltonian:
        H0-scaling (s, p, d)           1.850000    2.230000    2.230000
        zeta-weighting                 0.500000
      * Dispersion:
        s8                             2.700000
        a1                             0.520000
        a2                             5.000000
        s9                             5.000000
      * Repulsion:
        kExp                           1.500000    1.000000
        rExp                           1.000000
      * Coulomb:
        alpha                          2.000000
        third order                    shell-resolved
        anisotropic                    true
        a3                             3.000000
        a5                             4.000000
        cn-shift                       1.200000
        cn-exp                         4.000000
        max-rad                        5.000000


          ...................................................
          :                      SETUP                      :
          :.................................................:
          :  # basis functions                  61          :
          :  # atomic orbitals                  60          :
          :  # shells                           32          :
          :  # electrons                        62          :
          :  max. iterations                   250          :
          :  Hamiltonian                  GFN2-xTB          :
          :  restarted?                      false          :
          :  GBSA solvation                  false          :
          :  PC potential                    false          :
          :  electronic temp.          300.0000000     K    :
          :  accuracy                    1.0000000          :
          :  -> integral cutoff          0.2500000E+02      :
          :  -> integral neglect         0.1000000E-07      :
          :  -> SCF convergence          0.1000000E-05 Eh   :
          :  -> wf. convergence          0.1000000E-03 e    :
          :  Broyden damping             0.4000000          :
          :  net charge                          0          :
          :  unpaired electrons                  0          :
          ...................................................

 iter      E             dE          RMSdq      gap      omega  full diag
   1    -35.4106104 -0.354106E+02  0.567E+00    3.69       0.0  T
   2    -35.4651424 -0.545320E-01  0.341E+00    3.06       1.0  T
   3    -35.4585554  0.658700E-02  0.162E+00    3.33       1.0  T
   4    -35.4769850 -0.184296E-01  0.506E-01    3.24       1.0  T
   5    -35.4779062 -0.921267E-03  0.336E-01    3.22       1.0  T
   6    -35.4781958 -0.289510E-03  0.171E-01    3.23       1.0  T
   7    -35.4783218 -0.126018E-03  0.124E-01    3.22       1.0  T
   8    -35.4783205  0.132066E-05  0.842E-02    3.23       1.0  T
   9    -35.4783811 -0.606346E-04  0.224E-02    3.23       1.0  T
  10    -35.4783826 -0.153324E-05  0.138E-02    3.23       1.7  T
  11    -35.4783831 -0.515614E-06  0.501E-03    3.23       4.6  T
  12    -35.4783833 -0.138481E-06  0.157E-03    3.23      14.6  T
  13    -35.4783833 -0.876037E-08  0.687E-04    3.23      33.4  T
  14    -35.4783833 -0.754049E-09  0.342E-04    3.23      67.1  T

   *** convergence criteria satisfied after 14 iterations ***

         #    Occupation            Energy/Eh            Energy/eV
      -------------------------------------------------------------
         1        2.0000           -0.8507950             -23.1513
       ...           ...                  ...                  ...
        25        2.0000           -0.4638199             -12.6212
        26        2.0000           -0.4586672             -12.4810
        27        2.0000           -0.4554051             -12.3922
        28        2.0000           -0.4369121             -11.8890
        29        2.0000           -0.4255770             -11.5805
        30        2.0000           -0.4191335             -11.4052
        31        2.0000           -0.4160775             -11.3220 (HOMO)
        32                         -0.2972703              -8.0891 (LUMO)
        33                         -0.2662577              -7.2452
        34                         -0.2194624              -5.9719
        35                         -0.2171517              -5.9090
        36                         -0.1301623              -3.5419
       ...                                ...                  ...
        60                          0.6254711              17.0199
      -------------------------------------------------------------
                  HL-Gap            0.1188071 Eh            3.2329 eV
             Fermi-level           -0.3566739 Eh           -9.7056 eV

 SCC (total)                   0 d,  0 h,  0 min,  0.444 sec
 SCC setup                      ...        0 min,  0.001 sec (  0.124%)
 Dispersion                     ...        0 min,  0.002 sec (  0.339%)
 classical contributions        ...        0 min,  0.001 sec (  0.205%)
 integral evaluation            ...        0 min,  0.306 sec ( 68.901%)
 iterations                     ...        0 min,  0.118 sec ( 26.470%)
 molecular gradient             ...        0 min,  0.016 sec (  3.696%)
 printout                       ...        0 min,  0.001 sec (  0.248%)

         :::::::::::::::::::::::::::::::::::::::::::::::::::::
         ::                     SUMMARY                     ::
         :::::::::::::::::::::::::::::::::::::::::::::::::::::
         :: total energy             -35.066527166338 Eh    ::
         :: gradient norm              0.049939354968 Eh/a0 ::
         :: HOMO-LUMO gap              3.232906855284 eV    ::
         ::.................................................::
         :: SCC energy               -35.478316750025 Eh    ::
         :: -> isotropic ES            0.048483357178 Eh    ::
         :: -> anisotropic ES          0.001320695932 Eh    ::
         :: -> anisotropic XC          0.007688199537 Eh    ::
         :: -> dispersion             -0.019214636485 Eh    ::
         :: repulsion energy           0.411789583687 Eh    ::
         :: add. restraining           0.000000000000 Eh    ::
         :: total charge              -0.000000000000 e     ::
         :::::::::::::::::::::::::::::::::::::::::::::::::::::

      ----------------------------------------------------------- 
     |                   =====================                   |
     |                        A N C O P T                        |
     |                   =====================                   |
     |               Approximate Normal Coordinate               |
     |                Rational Function Optimizer                |
      ----------------------------------------------------------- 
      ----------------------------------------------------------- 
     |                   =====================                   |
     |                        A N C O P T                        |
     |                   =====================                   |
     |               Approximate Normal Coordinate               |
     |                Rational Function Optimizer                |
      ----------------------------------------------------------- 

          ...................................................
          :                      SETUP                      :
          :.................................................:
          :   optimization level            normal          :
          :   max. optcycles                   200          :
          :   ANC micro-cycles                  20          :
          :   degrees of freedom                51          :
          :.................................................:
          :   RF solver                   davidson          :
          :   write xtbopt.log                true          :
          :   linear?                        false          :
          :   energy convergence         0.5000000E-05 Eh   :
          :   grad. convergence          0.1000000E-02 Eh/α :
          :   maxmium RF displ.          1.0000000          :
          :   Hlow (freq-cutoff)         0.1000000E-01      :
          :   Hmax (freq-cutoff)         5.0000000          :
          :   S6 in model hess.         20.0000000          :
          ...................................................

generating ANC from model Hessian ...
Using Lindh-Hessian (1995)
 Shifting diagonal of input Hessian by   6.445933744309134E-003
 Lowest  eigenvalues of input Hessian
    0.000000    0.000000    0.000000    0.000000    0.000000    0.000000
    0.010000    0.011026    0.015906    0.019816    0.023589    0.025358
    0.031926    0.041483    0.045212    0.049111    0.058937    0.060855
 Highest eigenvalues
    1.512901    1.695894    1.815531    1.876291    1.945602    2.263239
 

........................................................................
.............................. CYCLE    1 ..............................
........................................................................

 iter      E             dE          RMSdq      gap      omega  full diag
   1    -35.4783833 -0.354784E+02  0.152E-04    3.23       0.0  T
   2    -35.4783833 -0.489138E-10  0.117E-04    3.23     195.7  T
   3    -35.4783833 -0.205347E-10  0.924E-05    3.23     248.4  T
     SCC iter.                  ...        0 min,  0.049 sec
     gradient                   ...        0 min,  0.039 sec
 * total energy  :   -35.0665272 Eh     change       -0.2347420E-09 Eh
   gradient norm :     0.0499349 Eh/α   predicted     0.0000000E+00 (-100.00%)
   displ. norm   :     0.1678669 α      lambda       -0.4865517E-02
   maximum displ.:     0.0544799 α      in ANC's #29, #19, #15, ...

........................................................................
.............................. CYCLE    2 ..............................
........................................................................

 iter      E             dE          RMSdq      gap      omega  full diag
   1    -35.5023858 -0.355024E+02  0.220E-01    3.33       0.0  T
   2    -35.5024267 -0.408973E-04  0.135E-01    3.30       1.0  T
   3    -35.5024146  0.120978E-04  0.428E-02    3.30       1.0  T
   4    -35.5024328 -0.181161E-04  0.945E-03    3.30       2.4  T
   5    -35.5024333 -0.502450E-06  0.609E-03    3.30       3.8  T
   6    -35.5024337 -0.420669E-06  0.238E-03    3.30       9.7  T
   7    -35.5024337 -0.523551E-08  0.109E-03    3.30      21.0  T
   8    -35.5024337 -0.363304E-08  0.624E-04    3.30      36.8  T
   9    -35.5024337 -0.185541E-08  0.368E-04    3.30      62.3  T
     SCC iter.                  ...        0 min,  0.113 sec
     gradient                   ...        0 min,  0.007 sec
 * total energy  :   -35.0695261 Eh     change       -0.2998958E-02 Eh
   gradient norm :     0.0117459 Eh/α   predicted    -0.2501439E-02 ( -16.59%)
   displ. norm   :     0.0978320 α      lambda       -0.5630922E-03
   maximum displ.:     0.0397533 α      in ANC's #2, #4, #9, ...

........................................................................
.............................. CYCLE    3 ..............................
........................................................................

 iter      E             dE          RMSdq      gap      omega  full diag
   1    -35.5083953 -0.355084E+02  0.866E-02    3.33       0.0  T
   2    -35.5084030 -0.770686E-05  0.526E-02    3.32       1.0  T
   3    -35.5084016  0.140712E-05  0.194E-02    3.32       1.2  T
   4    -35.5084042 -0.254128E-05  0.510E-03    3.32       4.5  T
   5    -35.5084043 -0.186849E-06  0.313E-03    3.32       7.3  T
   6    -35.5084044 -0.462118E-07  0.215E-03    3.32      10.7  T
   7    -35.5084044 -0.100178E-07  0.130E-03    3.32      17.7  T
   8    -35.5084044 -0.509545E-08  0.778E-04    3.32      29.5  T
   9    -35.5084044 -0.206415E-08  0.456E-04    3.32      50.3  T
     SCC iter.                  ...        0 min,  0.049 sec
     gradient                   ...        0 min,  0.006 sec
 * total energy  :   -35.0698614 Eh     change       -0.3352519E-03 Eh
   gradient norm :     0.0045418 Eh/α   predicted    -0.2884292E-03 ( -13.97%)
   displ. norm   :     0.0757362 α      lambda       -0.1426043E-03
   maximum displ.:     0.0363526 α      in ANC's #2, #5, #3, ...

........................................................................
.............................. CYCLE    4 ..............................
........................................................................

 iter      E             dE          RMSdq      gap      omega  full diag
   1    -35.5084614 -0.355085E+02  0.582E-02    3.32       0.0  T
   2    -35.5084638 -0.246868E-05  0.344E-02    3.32       1.0  T
   3    -35.5084631  0.703030E-06  0.108E-02    3.32       2.1  T
   4    -35.5084640 -0.912687E-06  0.383E-03    3.32       6.0  T
   5    -35.5084642 -0.152760E-06  0.194E-03    3.32      11.8  T
   6    -35.5084642 -0.438687E-08  0.140E-03    3.32      16.3  T
   7    -35.5084642 -0.637522E-08  0.783E-04    3.32      29.3  T
   8    -35.5084642 -0.203856E-08  0.496E-04    3.32      46.2  T
     SCC iter.                  ...        0 min,  0.049 sec
     gradient                   ...        0 min,  0.011 sec
 * total energy  :   -35.0699489 Eh     change       -0.8749355E-04 Eh
   gradient norm :     0.0028419 Eh/α   predicted    -0.7171388E-04 ( -18.04%)
   displ. norm   :     0.0961356 α      lambda       -0.9394811E-04
   maximum displ.:     0.0567787 α      in ANC's #2, #3, #5, ...

........................................................................
.............................. CYCLE    5 ..............................
........................................................................

 iter      E             dE          RMSdq      gap      omega  full diag
   1    -35.5074404 -0.355074E+02  0.546E-02    3.32       0.0  T
   2    -35.5074410 -0.585796E-06  0.320E-02    3.32       1.0  T
   3    -35.5074405  0.431437E-06  0.777E-03    3.32       3.0  T
   4    -35.5074412 -0.667923E-06  0.250E-03    3.32       9.2  T
   5    -35.5074412 -0.229139E-07  0.161E-03    3.32      14.2  T
   6    -35.5074412 -0.123170E-08  0.974E-04    3.32      23.6  T
   7    -35.5074412 -0.537182E-08  0.586E-04    3.32      39.2  T
     SCC iter.                  ...        0 min,  0.070 sec
     gradient                   ...        0 min,  0.015 sec
 * total energy  :   -35.0700049 Eh     change       -0.5602251E-04 Eh
   gradient norm :     0.0027903 Eh/α   predicted    -0.4741317E-04 ( -15.37%)
   displ. norm   :     0.0596569 α      lambda       -0.3311620E-04
   maximum displ.:     0.0322542 α      in ANC's #2, #3, #1, ...

........................................................................
.............................. CYCLE    6 ..............................
........................................................................

 iter      E             dE          RMSdq      gap      omega  full diag
   1    -35.5070038 -0.355070E+02  0.325E-02    3.32       0.0  T
   2    -35.5070039 -0.140621E-06  0.192E-02    3.32       1.2  T
   3    -35.5070037  0.163272E-06  0.392E-03    3.32       5.9  T
   4    -35.5070040 -0.233966E-06  0.104E-03    3.32      22.1  T
   5    -35.5070040 -0.376649E-08  0.638E-04    3.32      35.9  T
   6    -35.5070040 -0.715538E-09  0.299E-04    3.32      76.7  T
     SCC iter.                  ...        0 min,  0.034 sec
     gradient                   ...        0 min,  0.019 sec
 * total energy  :   -35.0700289 Eh     change       -0.2404191E-04 Eh
   gradient norm :     0.0024539 Eh/α   predicted    -0.1661731E-04 ( -30.88%)
   displ. norm   :     0.0641580 α      lambda       -0.2543688E-04
   maximum displ.:     0.0334363 α      in ANC's #1, #3, #2, ...

........................................................................
.............................. CYCLE    7 ..............................
........................................................................

 iter      E             dE          RMSdq      gap      omega  full diag
   1    -35.5071454 -0.355071E+02  0.323E-02    3.32       0.0  T
   2    -35.5071457 -0.237990E-06  0.189E-02    3.32       1.2  T
   3    -35.5071456  0.123997E-06  0.391E-03    3.32       5.9  T
   4    -35.5071457 -0.191538E-06  0.159E-03    3.32      14.5  T
   5    -35.5071458 -0.131182E-07  0.104E-03    3.32      22.0  T
   6    -35.5071458 -0.273980E-08  0.644E-04    3.32      35.6  T
   7    -35.5071458 -0.130373E-08  0.431E-04    3.32      53.2  T
     SCC iter.                  ...        0 min,  0.062 sec
     gradient                   ...        0 min,  0.010 sec
 * total energy  :   -35.0700456 Eh     change       -0.1668528E-04 Eh
   gradient norm :     0.0015162 Eh/α   predicted    -0.1277501E-04 ( -23.44%)
   displ. norm   :     0.0582883 α      lambda       -0.9090387E-05
   maximum displ.:     0.0345101 α      in ANC's #1, #3, #2, ...

........................................................................
.............................. CYCLE    8 ..............................
........................................................................

 iter      E             dE          RMSdq      gap      omega  full diag
   1    -35.5076032 -0.355076E+02  0.265E-02    3.33       0.0  T
   2    -35.5076034 -0.159267E-06  0.153E-02    3.33       1.5  T
   3    -35.5076033  0.888608E-07  0.338E-03    3.33       6.8  T
   4    -35.5076034 -0.140173E-06  0.132E-03    3.33      17.4  T
   5    -35.5076034 -0.484217E-08  0.905E-04    3.33      25.3  T
   6    -35.5076034 -0.327002E-08  0.570E-04    3.33      40.3  T
     SCC iter.                  ...        0 min,  0.050 sec
     gradient                   ...        0 min,  0.035 sec
 * total energy  :   -35.0700531 Eh     change       -0.7501844E-05 Eh
   gradient norm :     0.0007957 Eh/α   predicted    -0.4554045E-05 ( -39.29%)
   displ. norm   :     0.0168961 α      lambda       -0.2526439E-05
   maximum displ.:     0.0119879 α      in ANC's #1, #3, #4, ...

........................................................................
.............................. CYCLE    9 ..............................
........................................................................

 iter      E             dE          RMSdq      gap      omega  full diag
   1    -35.5077468 -0.355077E+02  0.921E-03    3.33       0.0  T
   2    -35.5077469 -0.515349E-07  0.503E-03    3.33       4.6  T
   3    -35.5077469  0.456601E-08  0.133E-03    3.33      17.2  T
   4    -35.5077469 -0.113635E-07  0.597E-04    3.33      38.4  T
   5    -35.5077469 -0.985523E-09  0.349E-04    3.33      65.7  T
     SCC iter.                  ...        0 min,  0.105 sec
     gradient                   ...        0 min,  0.022 sec
 * total energy  :   -35.0700555 Eh     change       -0.2426154E-05 Eh
   gradient norm :     0.0004576 Eh/α   predicted    -0.1264333E-05 ( -47.89%)
   displ. norm   :     0.0155052 α      lambda        0.5137191E-06
   maximum displ.:     0.0109995 α      in ANC's #1, #3, #4, ...

   *** GEOMETRY OPTIMIZATION CONVERGED AFTER 9 ITERATIONS ***

------------------------------------------------------------------------
 total energy gain   :        -0.0035284 Eh       -2.2141 kcal/mol
 total RMSD          :         0.1142664 a0        0.0605 Å
 total power (kW/mol):        -1.0293072 (step)   -9.5697 (real)
------------------------------------------------------------------------

 ANCopt (total)                0 d,  0 h,  0 min,  0.968 sec
 optimizer setup                ...        0 min,  0.000 sec (  0.011%)
 model hessian                  ...        0 min,  0.030 sec (  3.077%)
 ANC generation                 ...        0 min,  0.005 sec (  0.568%)
 coordinate transformation      ...        0 min,  0.000 sec (  0.024%)
 single point calculation       ...        0 min,  0.891 sec ( 91.989%)
 optimization log               ...        0 min,  0.008 sec (  0.796%)
 hessian update                 ...        0 min,  0.032 sec (  3.307%)
 rational function              ...        0 min,  0.001 sec (  0.108%)

================
 final structure:
================
19
 xtb: 6.7.0 (08769fc)
O           -3.33889075265603        1.85454647767760       -0.33795700115562
C           -2.85947340315915        0.77816432928525       -0.09682923352487
O           -3.66348187791992       -0.28241636944463        0.09138345690391
C           -3.10017913058976       -1.52289105143757        0.48769703182631
C           -1.85315701299318       -1.87059441188840       -0.31732636017188
C           -0.87545902736864       -0.74557407073794       -0.15665739089299
C            0.49605799997050       -0.93657076956219       -0.14090779525091
C            1.33237186733283        0.15730819515083        0.01154759416357
Br           3.21400270063485       -0.11756414973196        0.03937762390750
C            0.83095275212091        1.44322261056321        0.14733292951476
C           -0.53656292879820        1.63231621912144        0.12370876188801
C           -1.39205071480803        0.54474733981106       -0.02317409656282
H           -3.89463448323173       -2.25731768903497        0.33917683317172
H           -2.85292110449525       -1.47690705357892        1.55711904372331
H           -1.43314315061470       -2.81418452363282        0.03055047591557
H           -2.11604928734683       -1.97997523517120       -1.37408708858133
H            0.90922299266969       -1.92830249385320       -0.24618259779440
H            1.50260761676721        2.27914484290820        0.26412254913361
H           -0.96315305551455        2.61913780355618        0.21544526378653
 
 Bond Distances (Angstroems)
 ---------------------------
O1-C2=1.2027         C2-O1=1.2027         C2-O3=1.3441         C2-C12=1.4877        O3-C2=1.3441         O3-C4=1.4189         
C4-O3=1.4189         C4-C5=1.5245         C4-H13=1.0921        C4-H14=1.0986        C5-C4=1.5245         C5-C6=1.4991         
C5-H15=1.0899        C5-H16=1.0944        C6-C5=1.4991         C6-C7=1.3848         C6-C12=1.3963        C7-C6=1.3848         
C7-C8=1.3854         C7-H17=1.0795        C8-C7=1.3854         C8-Br9=1.9018        C8-C10=1.3869        Br9-C8=1.9018        
C10-C8=1.3869        C10-C11=1.3807       C10-H18=1.0787       C11-C10=1.3807       C11-C12=1.3915       C11-H19=1.0790       
C12-C2=1.4877        C12-C6=1.3963        C12-C11=1.3915       H13-C4=1.0921        H14-C4=1.0986        H15-C5=1.0899        
H16-C5=1.0944        H17-C7=1.0795        H18-C10=1.0787       H19-C11=1.0790       
 C  H  Rav=1.0874 sigma=0.0077  Rmin=1.0787  Rmax=1.0986     7
 C  C  Rav=1.4263 sigma=0.0556  Rmin=1.3807  Rmax=1.5245     9
 O  C  Rav=1.3219 sigma=0.0896  Rmin=1.2027  Rmax=1.4189     3
 Br C  Rav=1.9018 sigma=0.0000  Rmin=1.9018  Rmax=1.9018     1
 
 selected bond angles (degree)
 --------------------
O3-C2-O1=119.72                C12-C2-O1=122.92               C12-C2-O3=117.34               C4-O3-C2=119.44                
C5-C4-O3=112.13                H13-C4-O3=105.14               H13-C4-C5=111.71               H14-C4-O3=108.95               
H14-C4-C5=109.85               H14-C4-H13=108.92              C6-C5-C4=107.80                H15-C5-C4=110.13               
H15-C5-C6=111.36               H16-C5-C4=109.64               H16-C5-C6=109.58               H16-C5-H15=108.32              
C7-C6-C5=122.93                C12-C6-C5=117.55               C12-C6-C7=119.52               C8-C7-C6=119.36                
H17-C7-C6=120.31               H17-C7-C8=120.34               Br9-C8-C7=119.00               C10-C8-C7=121.64               
C10-C8-Br9=119.36              C11-C10-C8=118.91              H18-C10-C8=120.27              H18-C10-C11=120.83             
 
 selected dihedral angles (degree)
 ---------------------------------
C4-O3-C2-O1=185.36            C4-O3-C2-C12=  6.69           C5-C4-O3-C2=314.79            H13-C4-O3-C2=193.22           
H14-C4-O3-C2= 76.60           C6-C5-C4-O3= 56.84            C6-C5-C4-H13=174.57           C6-C5-C4-H14=295.55           
H15-C5-C4-O3=178.52           H15-C5-C4-H13=296.25          H15-C5-C4-H14= 57.23          H16-C5-C4-O3=297.61           
H16-C5-C4-H13= 55.34          H16-C5-C4-H14=176.32          C7-C6-C5-C4=146.89            C7-C6-C5-H15= 25.98           
C7-C6-C5-H16=266.16           C12-C6-C5-C4=326.66           C12-C6-C5-H15=205.75          C12-C6-C5-H16= 85.94          
C8-C7-C6-C5=179.97            C8-C7-C6-C12=  0.21           H17-C7-C6-C5=359.96           H17-C7-C6-C12=180.19          
Br9-C8-C7-C6=179.74           Br9-C8-C7-H17=359.75          C10-C8-C7-C6=359.90           C10-C8-C7-H17=179.92          
C11-C10-C8-C7=359.73          C11-C10-C8-Br9=179.90         H18-C10-C8-C7=180.04          H18-C10-C8-Br9=  0.21         
           -------------------------------------------------
          |                Final Singlepoint                |
           -------------------------------------------------

          ...................................................
          :                      SETUP                      :
          :.................................................:
          :  # basis functions                  61          :
          :  # atomic orbitals                  60          :
          :  # shells                           32          :
          :  # electrons                        62          :
          :  max. iterations                   250          :
          :  Hamiltonian                  GFN2-xTB          :
          :  restarted?                      false          :
          :  GBSA solvation                  false          :
          :  PC potential                    false          :
          :  electronic temp.          300.0000000     K    :
          :  accuracy                    1.0000000          :
          :  -> integral cutoff          0.2500000E+02      :
          :  -> integral neglect         0.1000000E-07      :
          :  -> SCF convergence          0.1000000E-05 Eh   :
          :  -> wf. convergence          0.1000000E-03 e    :
          :  Broyden damping             0.4000000          :
          :  net charge                          0          :
          :  unpaired electrons                  0          :
          ...................................................

 iter      E             dE          RMSdq      gap      omega  full diag
   1    -35.5077469 -0.355077E+02  0.209E-04    3.33       0.0  T
   2    -35.5077469 -0.760565E-10  0.165E-04    3.33     139.1  T
   3    -35.5077469 -0.230500E-10  0.130E-04    3.33     177.1  T

   *** convergence criteria satisfied after 3 iterations ***

         #    Occupation            Energy/Eh            Energy/eV
      -------------------------------------------------------------
         1        2.0000           -0.8499064             -23.1271
       ...           ...                  ...                  ...
        25        2.0000           -0.4639900             -12.6258
        26        2.0000           -0.4590635             -12.4918
        27        2.0000           -0.4557714             -12.4022
        28        2.0000           -0.4397055             -11.9650
        29        2.0000           -0.4248361             -11.5604
        30        2.0000           -0.4197439             -11.4218
        31        2.0000           -0.4158887             -11.3169 (HOMO)
        32                         -0.2935619              -7.9882 (LUMO)
        33                         -0.2633629              -7.1665
        34                         -0.2187888              -5.9535
        35                         -0.2143653              -5.8332
        36                         -0.1250471              -3.4027
       ...                                ...                  ...
        60                          0.6717805              18.2801
      -------------------------------------------------------------
                  HL-Gap            0.1223269 Eh            3.3287 eV
             Fermi-level           -0.3547253 Eh           -9.6526 eV

 SCC (total)                   0 d,  0 h,  0 min,  0.133 sec
 SCC setup                      ...        0 min,  0.009 sec (  7.153%)
 Dispersion                     ...        0 min,  0.001 sec (  0.813%)
 classical contributions        ...        0 min,  0.011 sec (  8.237%)
 integral evaluation            ...        0 min,  0.001 sec (  0.976%)
 iterations                     ...        0 min,  0.025 sec ( 18.777%)
 molecular gradient             ...        0 min,  0.077 sec ( 58.257%)
 printout                       ...        0 min,  0.007 sec (  5.619%)

         :::::::::::::::::::::::::::::::::::::::::::::::::::::
         ::                     SUMMARY                     ::
         :::::::::::::::::::::::::::::::::::::::::::::::::::::
         :: total energy             -35.070055548508 Eh    ::
         :: gradient norm              0.000457512137 Eh/a0 ::
         :: HOMO-LUMO gap              3.328683378208 eV    ::
         ::.................................................::
         :: SCC energy               -35.507679872099 Eh    ::
         :: -> isotropic ES            0.047869360354 Eh    ::
         :: -> anisotropic ES          0.000995116535 Eh    ::
         :: -> anisotropic XC          0.007109033922 Eh    ::
         :: -> dispersion             -0.019339063511 Eh    ::
         :: repulsion energy           0.437624323591 Eh    ::
         :: add. restraining           0.000000000000 Eh    ::
         :: total charge               0.000000000000 e     ::
         :::::::::::::::::::::::::::::::::::::::::::::::::::::

           -------------------------------------------------
          |                Property Printout                |
           -------------------------------------------------

    * Orbital Energies and Occupations

         #    Occupation            Energy/Eh            Energy/eV
      -------------------------------------------------------------
         1        2.0000           -0.8499064             -23.1271
       ...           ...                  ...                  ...
        19        2.0000           -0.5246313             -14.2759
        20        2.0000           -0.5174590             -14.0808
        21        2.0000           -0.5096868             -13.8693
        22        2.0000           -0.5045145             -13.7285
        23        2.0000           -0.4961286             -13.5003
        24        2.0000           -0.4713512             -12.8261
        25        2.0000           -0.4639900             -12.6258
        26        2.0000           -0.4590635             -12.4918
        27        2.0000           -0.4557714             -12.4022
        28        2.0000           -0.4397055             -11.9650
        29        2.0000           -0.4248361             -11.5604
        30        2.0000           -0.4197439             -11.4218
        31        2.0000           -0.4158887             -11.3169 (HOMO)
        32                         -0.2935619              -7.9882 (LUMO)
        33                         -0.2633629              -7.1665
        34                         -0.2187888              -5.9535
        35                         -0.2143653              -5.8332
        36                         -0.1250471              -3.4027
        37                         -0.0008726              -0.0237
        38                          0.0227173               0.6182
        39                          0.0250164               0.6807
        40                          0.0276423               0.7522
        41                          0.0624501               1.6994
        42                          0.0657644               1.7895
       ...                                ...                  ...
        60                          0.6717805              18.2801
      -------------------------------------------------------------
                  HL-Gap            0.1223269 Eh            3.3287 eV
             Fermi-level           -0.3547253 Eh           -9.6526 eV

     #   Z          covCN         q      C6AA      α(0)
     1   8 O        0.857    -0.378    21.256     6.181
     2   6 C        2.716     0.355    20.979     7.498
     3   8 O        1.704    -0.255    18.218     5.763
     4   6 C        3.701     0.074    19.493     6.313
     5   6 C        3.809    -0.072    21.873     6.657
     6   6 C        2.982     0.020    27.544     8.609
     7   6 C        2.997    -0.044    29.086     8.847
     8   6 C        2.917     0.089    26.014     8.364
     9  35 Br       1.072    -0.148   189.138    22.174
    10   6 C        2.990    -0.034    28.844     8.810
    11   6 C        2.925    -0.018    28.451     8.747
    12   6 C        2.977    -0.034    28.845     8.810
    13   1 H        0.924     0.070     2.084     2.258
    14   1 H        0.923     0.047     2.360     2.402
    15   1 H        0.925     0.060     2.200     2.320
    16   1 H        0.924     0.068     2.110     2.271
    17   1 H        0.926     0.060     2.195     2.317
    18   1 H        0.926     0.065     2.139     2.287
    19   1 H        0.926     0.075     2.032     2.229

 Mol. C6AA /au·bohr⁶  :       6120.993607
 Mol. C8AA /au·bohr⁸  :     183871.747448
 Mol. α(0) /au        :        122.857216


Wiberg/Mayer (AO) data.
largest (>0.10) Wiberg bond orders for each atom

 ---------------------------------------------------------------------------
     #   Z sym  total        # sym  WBO       # sym  WBO       # sym  WBO
 ---------------------------------------------------------------------------
     1   8 O    2.056 --     2 C    1.748     3 O    0.160
     2   6 C    3.919 --     1 O    1.748     3 O    1.109    12 C    0.997
     3   8 O    2.308 --     2 C    1.109     4 C    0.956     1 O    0.160
     4   6 C    3.936 --     5 C    0.999    13 H    0.969    14 H    0.968
                             3 O    0.956
     5   6 C    3.993 --     6 C    1.013     4 C    0.999    15 H    0.969
                            16 H    0.955
     6   6 C    3.989 --     7 C    1.421    12 C    1.362     5 C    1.013
     7   6 C    3.989 --     6 C    1.421     8 C    1.407    17 H    0.965
                            11 C    0.103
     8   6 C    3.943 --     7 C    1.407    10 C    1.399     9 Br   0.994
     9  35 Br   1.129 --     8 C    0.994
    10   6 C    3.989 --    11 C    1.452     8 C    1.399    18 H    0.966
    11   6 C    3.987 --    10 C    1.452    12 C    1.390    19 H    0.962
                             7 C    0.103
    12   6 C    3.989 --    11 C    1.390     6 C    1.362     2 C    0.997
    13   1 H    0.994 --     4 C    0.969
    14   1 H    0.998 --     4 C    0.968
    15   1 H    0.996 --     5 C    0.969
    16   1 H    0.995 --     5 C    0.955
    17   1 H    0.996 --     7 C    0.965
    18   1 H    0.995 --    10 C    0.966
    19   1 H    0.994 --    11 C    0.962
 ---------------------------------------------------------------------------

Topologies differ in total number of bonds
Writing topology from bond orders to xtbtopo.mol

molecular dipole:
                 x           y           z       tot (Debye)
 q only:        0.306      -1.271       0.274
   full:        0.013      -1.385       0.309       3.608
molecular quadrupole (traceless):
                xx          xy          yy          xz          yz          zz
 q only:      -14.913      14.826       9.345      -2.802       1.255       5.568
  q+dip:      -21.613      18.202      13.089      -3.081       2.576       8.523
   full:      -22.063      17.961      11.372      -3.380       2.104      10.690

           -------------------------------------------------
          |                Geometry Summary                 |
           -------------------------------------------------

      molecular mass/u    :      227.0545460
   center of mass at/Å    :        0.1774138       0.0172327       0.0018447
  moments of inertia/u·Å² :        0.2591611E+03   0.1581026E+04   0.1816813E+04
rotational constants/cm⁻¹ :        0.6504693E-01   0.1066246E-01   0.9278681E-02

 * 18 selected distances

     #   Z          #   Z                                           value/Å
     1   8 O        2   6 C                                       1.2027395
     2   6 C        3   8 O                                       1.3441300
     3   8 O        4   6 C                                       1.4188560
     4   6 C        5   6 C                                       1.5244753
     6   6 C        7   6 C                                       1.3848419
     7   6 C        8   6 C                                       1.3853646
     8   6 C        9  35 Br                                      1.9018056 (max)
     8   6 C       10   6 C                                       1.3868796
    10   6 C       11   6 C                                       1.3807295
     6   6 C       12   6 C                                       1.3962860
    11   6 C       12   6 C                                       1.3914885
     4   6 C       13   1 H                                       1.0920624
     4   6 C       14   1 H                                       1.0985967
     5   6 C       15   1 H                                       1.0898589
     5   6 C       16   1 H                                       1.0944496
     7   6 C       17   1 H                                       1.0794999
    10   6 C       18   1 H                                       1.0786687 (min)
    11   6 C       19   1 H                                       1.0789865

 * 4 distinct bonds (by element types)

   Z      Z             #   av. dist./Å        max./Å        min./Å
   1 H    6 C           7     1.0874461     1.0985967     1.0786687
   6 C    6 C           7     1.4071522     1.5244753     1.3807295
   6 C    8 O           3     1.3219085     1.4188560     1.2027395
   6 C   35 Br          1     1.9018056     1.9018056     1.9018056


optimized geometry written to: xtbopt.xyz


           -------------------------------------------------
          | TOTAL ENERGY              -35.070055548508 Eh   |
          | GRADIENT NORM               0.000457512137 Eh/α |
          | HOMO-LUMO GAP               3.328683378208 eV   |
           -------------------------------------------------
########################################################################
[WARNING] Runtime exception occurred
-2- restart_readRestart: Dimension missmatch in restart file.
-1- restart_readRestart: Number of electron missmatch in restart file.
########################################################################

------------------------------------------------------------------------
 * finished run on 2024/09/25 at 09:25:05.563     
------------------------------------------------------------------------
 total:
 * wall-time:     0 d,  0 h,  0 min,  1.651 sec
 *  cpu-time:     0 d,  0 h,  1 min, 18.914 sec
 * ratio c/w:    47.785 speedup
 SCF:
 * wall-time:     0 d,  0 h,  0 min,  0.444 sec
 *  cpu-time:     0 d,  0 h,  0 min, 15.331 sec
 * ratio c/w:    34.497 speedup
 ANC optimizer:
 * wall-time:     0 d,  0 h,  0 min,  1.102 sec
 *  cpu-time:     0 d,  0 h,  1 min,  0.661 sec
 * ratio c/w:    55.031 speedup

