      -----------------------------------------------------------      
     |                   =====================                   |     
     |                           x T B                           |     
     |                   =====================                   |     
     |                         S. Grimme                         |     
     |          Mulliken Center for Theoretical Chemistry        |     
     |                    University of Bonn                     |     
      -----------------------------------------------------------      

   * xtb version 6.7.0 (08769fc) compiled by 'albert@albert-system' on 2024-03-04

   xtb is free software: you can redistribute it and/or modify it under
   the terms of the GNU Lesser General Public License as published by
   the Free Software Foundation, either version 3 of the License, or
   (at your option) any later version.
   
   xtb is distributed in the hope that it will be useful,
   but WITHOUT ANY WARRANTY; without even the implied warranty of
   MERCHANTABILITY or FITNESS FOR A PARTICULAR PURPOSE.  See the
   GNU Lesser General Public License for more details.
   
   Cite this work as:
   * C. Bannwarth, E. Caldeweyher, S. Ehlert, A. Hansen, P. Pracht,
     J. Seibert, S. Spicher, S. Grimme, WIREs Comput. Mol. Sci., 2020, 11,
     e01493. DOI: 10.1002/wcms.1493
   
   for GFN2-xTB:
   * C. Bannwarth, S. Ehlert and S. Grimme., J. Chem. Theory Comput., 2019,
     15, 1652-1671. DOI: 10.1021/acs.jctc.8b01176
   for GFN1-xTB:
   * S. Grimme, C. Bannwarth, P. Shushkov, J. Chem. Theory Comput., 2017,
     13, 1989-2009. DOI: 10.1021/acs.jctc.7b00118
   for GFN0-xTB:
   * P. Pracht, E. Caldeweyher, S. Ehlert, S. Grimme, ChemRxiv, 2019, preprint.
     DOI: 10.26434/chemrxiv.8326202.v1
   for GFN-FF:
   * S. Spicher and S. Grimme, Angew. Chem. Int. Ed., 2020, 59, 15665-15673.
     DOI: 10.1002/anie.202004239
   
   for ALPB and GBSA implicit solvation:
   * S. Ehlert, M. Stahn, S. Spicher, S. Grimme, J. Chem. Theory Comput.,
     2021, 17, 4250-4261. DOI: 10.1021/acs.jctc.1c00471
   
   for ddCOSMO and CPCM-X implicit solvation:
   * M. Stahn, S. Ehlert, S. Grimme, J. Phys. Chem. A,
     2023, XX, XXXX-XXXX. DOI: 10.1021/acs.jpca.3c04382
   
   for DFT-D4:
   * E. Caldeweyher, C. Bannwarth and S. Grimme, J. Chem. Phys., 2017,
     147, 034112. DOI: 10.1063/1.4993215
   * E. Caldeweyher, S. Ehlert, A. Hansen, H. Neugebauer, S. Spicher,
     C. Bannwarth and S. Grimme, J. Chem. Phys., 2019, 150, 154122.
     DOI: 10.1063/1.5090222
   * E. Caldeweyher, J.-M. Mewes, S. Ehlert and S. Grimme, Phys. Chem. Chem. Phys.
     2020, 22, 8499-8512. DOI: 10.1039/D0CP00502A
   
   for sTDA-xTB:
   * S. Grimme and C. Bannwarth, J. Chem. Phys., 2016, 145, 054103.
     DOI: 10.1063/1.4959605
   
   in the mass-spec context:
   * V. Asgeirsson, C. Bauer and S. Grimme, Chem. Sci., 2017, 8, 4879.
     DOI: 10.1039/c7sc00601b
   * J. Koopman and S. Grimme, ACS Omega 2019, 4, 12, 15120-15133.
     DOI: 10.1021/acsomega.9b02011
   
   for metadynamics refer to:
   * S. Grimme, J. Chem. Theory Comput., 2019, 155, 2847-2862
     DOI: 10.1021/acs.jctc.9b00143
   
   for SPH calculations refer to:
   * S. Spicher and S. Grimme, J. Chem. Theory Comput., 2021, 17, 1701-1714
     DOI: 10.1021/acs.jctc.0c01306
   
   for ONIOM refer to:
   * C. Plett, A. Katbashev, S. Ehlert, S. Grimme, M. Bursch,
     Phys. Chem. Chem. Phys., 2023, 25, 17860-17868. DOI: 10.1039/D3CP02178E
   
   for DIPRO refer to:
   * J. Kohn, N. Gildemeister, S. Grimme, D. Fazzi, A. Hansen,
     J. Chem. Phys., 2023, just accepted.
   
   for PTB refer to:
   * S. Grimme, M. Mueller, A. Hansen, J. Chem. Phys., 2023, 158, 124111.
     DOI: 10.1063/5.0137838
   
   with help from (in alphabetical order)
   P. Atkinson, C. Bannwarth, F. Bohle, G. Brandenburg, E. Caldeweyher
   M. Checinski, S. Dohm, S. Ehlert, S. Ehrlich, I. Gerasimov, C. Hölzer
   A. Katbashev, J. Kohn, J. Koopman, C. Lavigne, S. Lehtola, F. März, M. Müller,
   F. Musil, H. Neugebauer, J. Pisarek, C. Plett, P. Pracht, F. Pultar,
   J. Seibert, P. Shushkov, S. Spicher, M. Stahn, M. Steiner, T. Strunk,
   J. Stückrath, T. Rose, and J. Unsleber
   
 * started run on 2024/09/25 at 09:26:01.950     
   ID    Z sym.   atoms
    1    8 O      1
    2    6 C      2-5, 7-14
    3   35 Br     6
    4    1 H      15-25

           -------------------------------------------------
          |                Calculation Setup                |
           -------------------------------------------------

          program call               : xtb arbr39_xtb.xyz --opt
          hostname                   : dynamo.chem.colostate.edu
          coordinate file            : arbr39_xtb.xyz
          omp threads                :                    96


           -------------------------------------------------
          |                 G F N 2 - x T B                 |
           -------------------------------------------------

        Reference                      10.1021/acs.jctc.8b01176
      * Hamiltonian:
        H0-scaling (s, p, d)           1.850000    2.230000    2.230000
        zeta-weighting                 0.500000
      * Dispersion:
        s8                             2.700000
        a1                             0.520000
        a2                             5.000000
        s9                             5.000000
      * Repulsion:
        kExp                           1.500000    1.000000
        rExp                           1.000000
      * Coulomb:
        alpha                          2.000000
        third order                    shell-resolved
        anisotropic                    true
        a3                             3.000000
        a5                             4.000000
        cn-shift                       1.200000
        cn-exp                         4.000000
        max-rad                        5.000000


          ...................................................
          :                      SETUP                      :
          :.................................................:
          :  # basis functions                  73          :
          :  # atomic orbitals                  72          :
          :  # shells                           40          :
          :  # electrons                        72          :
          :  max. iterations                   250          :
          :  Hamiltonian                  GFN2-xTB          :
          :  restarted?                      false          :
          :  GBSA solvation                  false          :
          :  PC potential                    false          :
          :  electronic temp.          300.0000000     K    :
          :  accuracy                    1.0000000          :
          :  -> integral cutoff          0.2500000E+02      :
          :  -> integral neglect         0.1000000E-07      :
          :  -> SCF convergence          0.1000000E-05 Eh   :
          :  -> wf. convergence          0.1000000E-03 e    :
          :  Broyden damping             0.4000000          :
          :  net charge                          0          :
          :  unpaired electrons                  0          :
          ...................................................

 iter      E             dE          RMSdq      gap      omega  full diag
   1    -39.9088836 -0.399089E+02  0.485E+00    3.08       0.0  T
   2    -39.9546773 -0.457938E-01  0.289E+00    2.52       1.0  T
   3    -39.9483347  0.634269E-02  0.131E+00    2.78       1.0  T
   4    -39.9637704 -0.154358E-01  0.411E-01    2.63       1.0  T
   5    -39.9639552 -0.184741E-03  0.282E-01    2.62       1.0  T
   6    -39.9643290 -0.373812E-03  0.154E-01    2.63       1.0  T
   7    -39.9644556 -0.126625E-03  0.110E-01    2.62       1.0  T
   8    -39.9644775 -0.219294E-04  0.647E-02    2.62       1.0  T
   9    -39.9645187 -0.411305E-04  0.224E-02    2.62       1.0  T
  10    -39.9645212 -0.258056E-05  0.982E-03    2.62       2.0  T
  11    -39.9645218 -0.532993E-06  0.487E-03    2.62       4.1  T
  12    -39.9645220 -0.258979E-06  0.113E-03    2.62      17.7  T
  13    -39.9645220 -0.694618E-08  0.644E-04    2.62      31.0  T
  14    -39.9645220 -0.651340E-09  0.295E-04    2.62      67.7  T

   *** convergence criteria satisfied after 14 iterations ***

         #    Occupation            Energy/Eh            Energy/eV
      -------------------------------------------------------------
         1        2.0000           -0.8416279             -22.9019
       ...           ...                  ...                  ...
        30        2.0000           -0.4447495             -12.1022
        31        2.0000           -0.4370220             -11.8920
        32        2.0000           -0.4350373             -11.8380
        33        2.0000           -0.4349483             -11.8355
        34        2.0000           -0.4168250             -11.3424
        35        2.0000           -0.4044279             -11.0050
        36        2.0000           -0.3942046             -10.7269 (HOMO)
        37                         -0.2979222              -8.1069 (LUMO)
        38                         -0.2581603              -7.0249
        39                         -0.2182649              -5.9393
        40                         -0.2078068              -5.6547
        41                         -0.1210379              -3.2936
       ...                                ...                  ...
        72                          0.6719709              18.2853
      -------------------------------------------------------------
                  HL-Gap            0.0962825 Eh            2.6200 eV
             Fermi-level           -0.3460634 Eh           -9.4169 eV

 SCC (total)                   0 d,  0 h,  0 min,  1.078 sec
 SCC setup                      ...        0 min,  0.000 sec (  0.040%)
 Dispersion                     ...        0 min,  0.002 sec (  0.144%)
 classical contributions        ...        0 min,  0.001 sec (  0.071%)
 integral evaluation            ...        0 min,  0.613 sec ( 56.887%)
 iterations                     ...        0 min,  0.435 sec ( 40.365%)
 molecular gradient             ...        0 min,  0.026 sec (  2.411%)
 printout                       ...        0 min,  0.001 sec (  0.074%)

         :::::::::::::::::::::::::::::::::::::::::::::::::::::
         ::                     SUMMARY                     ::
         :::::::::::::::::::::::::::::::::::::::::::::::::::::
         :: total energy             -39.439892247962 Eh    ::
         :: gradient norm              0.060358302498 Eh/a0 ::
         :: HOMO-LUMO gap              2.619979168092 eV    ::
         ::.................................................::
         :: SCC energy               -39.964485349571 Eh    ::
         :: -> isotropic ES            0.030484637922 Eh    ::
         :: -> anisotropic ES          0.001550946507 Eh    ::
         :: -> anisotropic XC          0.015426726387 Eh    ::
         :: -> dispersion             -0.025651068867 Eh    ::
         :: repulsion energy           0.524593101609 Eh    ::
         :: add. restraining           0.000000000000 Eh    ::
         :: total charge              -0.000000000000 e     ::
         :::::::::::::::::::::::::::::::::::::::::::::::::::::

      ----------------------------------------------------------- 
     |                   =====================                   |
     |                        A N C O P T                        |
     |                   =====================                   |
     |               Approximate Normal Coordinate               |
     |                Rational Function Optimizer                |
      ----------------------------------------------------------- 
      ----------------------------------------------------------- 
     |                   =====================                   |
     |                        A N C O P T                        |
     |                   =====================                   |
     |               Approximate Normal Coordinate               |
     |                Rational Function Optimizer                |
      ----------------------------------------------------------- 

          ...................................................
          :                      SETUP                      :
          :.................................................:
          :   optimization level            normal          :
          :   max. optcycles                   200          :
          :   ANC micro-cycles                  20          :
          :   degrees of freedom                69          :
          :.................................................:
          :   RF solver                   davidson          :
          :   write xtbopt.log                true          :
          :   linear?                        false          :
          :   energy convergence         0.5000000E-05 Eh   :
          :   grad. convergence          0.1000000E-02 Eh/α :
          :   maxmium RF displ.          1.0000000          :
          :   Hlow (freq-cutoff)         0.1000000E-01      :
          :   Hmax (freq-cutoff)         5.0000000          :
          :   S6 in model hess.         20.0000000          :
          ...................................................

generating ANC from model Hessian ...
Using Lindh-Hessian (1995)
 Shifting diagonal of input Hessian by   8.737723443106148E-003
 Lowest  eigenvalues of input Hessian
    0.000000    0.000000    0.000000    0.000000    0.000000    0.000000
    0.010000    0.011680    0.013032    0.014518    0.018393    0.021470
    0.021497    0.023299    0.026410    0.029396    0.034010    0.043517
 Highest eigenvalues
    1.498005    1.555824    1.841330    1.911815    1.993006    2.163625
 

........................................................................
.............................. CYCLE    1 ..............................
........................................................................

 iter      E             dE          RMSdq      gap      omega  full diag
   1    -39.9645220 -0.399645E+02  0.192E-04    2.62       0.0  T
   2    -39.9645220 -0.574758E-10  0.145E-04    2.62     138.3  T
   3    -39.9645220  0.105871E-10  0.109E-04    2.62     182.9  T
     SCC iter.                  ...        0 min,  0.066 sec
     gradient                   ...        0 min,  0.015 sec
 * total energy  :   -39.4398922 Eh     change       -0.5807550E-09 Eh
   gradient norm :     0.0603571 Eh/α   predicted     0.0000000E+00 (-100.00%)
   displ. norm   :     0.2960820 α      lambda       -0.1131541E-01
   maximum displ.:     0.1413985 α      in ANC's #23, #3, #24, ...

........................................................................
.............................. CYCLE    2 ..............................
........................................................................

 iter      E             dE          RMSdq      gap      omega  full diag
   1    -39.9933365 -0.399933E+02  0.259E-01    2.70       0.0  T
   2    -39.9933959 -0.593663E-04  0.156E-01    2.70       1.0  T
   3    -39.9933501  0.458334E-04  0.577E-02    2.71       1.0  T
   4    -39.9934111 -0.610001E-04  0.904E-03    2.70       2.2  T
   5    -39.9934122 -0.112657E-05  0.425E-03    2.70       4.7  T
   6    -39.9934124 -0.201645E-06  0.235E-03    2.70       8.5  T
   7    -39.9934124 -0.182983E-07  0.125E-03    2.70      16.0  T
   8    -39.9934124 -0.371747E-08  0.746E-04    2.70      26.8  T
   9    -39.9934124 -0.166749E-08  0.570E-04    2.70      35.1  T
     SCC iter.                  ...        0 min,  0.154 sec
     gradient                   ...        0 min,  0.019 sec
 * total energy  :   -39.4469284 Eh     change       -0.7036128E-02 Eh
   gradient norm :     0.0171066 Eh/α   predicted    -0.6154268E-02 ( -12.53%)
   displ. norm   :     0.2289036 α      lambda       -0.2044673E-02
   maximum displ.:     0.1414163 α      in ANC's #3, #9, #11, ...

........................................................................
.............................. CYCLE    3 ..............................
........................................................................

 iter      E             dE          RMSdq      gap      omega  full diag
   1    -40.0030130 -0.400030E+02  0.109E-01    2.72       0.0  T
   2    -40.0030260 -0.130339E-04  0.685E-02    2.71       1.0  T
   3    -40.0030160  0.999142E-05  0.305E-02    2.72       1.0  T
   4    -40.0030318 -0.157810E-04  0.620E-03    2.72       3.2  T
   5    -40.0030323 -0.507179E-06  0.353E-03    2.72       5.7  T
   6    -40.0030324 -0.698433E-07  0.221E-03    2.72       9.1  T
   7    -40.0030324 -0.159474E-07  0.151E-03    2.72      13.3  T
   8    -40.0030324 -0.833187E-08  0.962E-04    2.72      20.8  T
   9    -40.0030324 -0.439255E-08  0.476E-04    2.72      42.0  T
     SCC iter.                  ...        0 min,  0.202 sec
     gradient                   ...        0 min,  0.016 sec
 * total energy  :   -39.4481188 Eh     change       -0.1190465E-02 Eh
   gradient norm :     0.0056698 Eh/α   predicted    -0.1075897E-02 (  -9.62%)
   displ. norm   :     0.1508717 α      lambda       -0.3064760E-03
   maximum displ.:     0.1429947 α      in ANC's #3, #11, #9, ...

........................................................................
.............................. CYCLE    4 ..............................
........................................................................

 iter      E             dE          RMSdq      gap      omega  full diag
   1    -40.0028482 -0.400028E+02  0.453E-02    2.72       0.0  T
   2    -40.0028491 -0.891988E-06  0.260E-02    2.71       1.0  T
   3    -40.0028484  0.678483E-06  0.815E-03    2.72       2.5  T
   4    -40.0028493 -0.907422E-06  0.307E-03    2.71       6.5  T
   5    -40.0028494 -0.622988E-07  0.203E-03    2.71       9.9  T
   6    -40.0028494 -0.143087E-07  0.138E-03    2.71      14.5  T
   7    -40.0028494 -0.750696E-08  0.899E-04    2.71      22.2  T
   8    -40.0028494 -0.314309E-08  0.337E-04    2.71      59.3  T
     SCC iter.                  ...        0 min,  0.157 sec
     gradient                   ...        0 min,  0.043 sec
 * total energy  :   -39.4483569 Eh     change       -0.2380429E-03 Eh
   gradient norm :     0.0043341 Eh/α   predicted    -0.1567587E-03 ( -34.15%)
   displ. norm   :     0.1518491 α      lambda       -0.2187080E-03
   maximum displ.:     0.1478539 α      in ANC's #3, #6, #11, ...

........................................................................
.............................. CYCLE    5 ..............................
........................................................................

 iter      E             dE          RMSdq      gap      omega  full diag
   1    -40.0020162 -0.400020E+02  0.410E-02    2.71       0.0  T
   2    -40.0020168 -0.592022E-06  0.238E-02    2.71       1.0  T
   3    -40.0020166  0.191556E-06  0.500E-03    2.71       4.0  T
   4    -40.0020169 -0.316066E-06  0.210E-03    2.71       9.5  T
   5    -40.0020169 -0.151183E-07  0.139E-03    2.71      14.4  T
   6    -40.0020169 -0.702859E-08  0.941E-04    2.71      21.3  T
   7    -40.0020169 -0.276295E-08  0.602E-04    2.71      33.2  T
     SCC iter.                  ...        0 min,  0.077 sec
     gradient                   ...        0 min,  0.045 sec
 * total energy  :   -39.4485368 Eh     change       -0.1799599E-03 Eh
   gradient norm :     0.0027807 Eh/α   predicted    -0.1118803E-03 ( -37.83%)
   displ. norm   :     0.1327959 α      lambda       -0.1495935E-03
   maximum displ.:     0.1257204 α      in ANC's #3, #6, #15, ...

........................................................................
.............................. CYCLE    6 ..............................
........................................................................

 iter      E             dE          RMSdq      gap      omega  full diag
   1    -40.0017805 -0.400018E+02  0.324E-02    2.71       0.0  T
   2    -40.0017808 -0.312824E-06  0.191E-02    2.71       1.0  T
   3    -40.0017806  0.199833E-06  0.358E-03    2.71       5.6  T
   4    -40.0017809 -0.270429E-06  0.118E-03    2.71      16.9  T
   5    -40.0017809 -0.750821E-08  0.661E-04    2.71      30.2  T
   6    -40.0017809 -0.441318E-08  0.361E-04    2.71      55.4  T
     SCC iter.                  ...        0 min,  0.099 sec
     gradient                   ...        0 min,  0.023 sec
 * total energy  :   -39.4486671 Eh     change       -0.1302868E-03 Eh
   gradient norm :     0.0027110 Eh/α   predicted    -0.7611898E-04 ( -41.58%)
   displ. norm   :     0.1433627 α      lambda       -0.1391123E-03
   maximum displ.:     0.1318887 α      in ANC's #3, #6, #18, ...

........................................................................
.............................. CYCLE    7 ..............................
........................................................................

 iter      E             dE          RMSdq      gap      omega  full diag
   1    -40.0019386 -0.400019E+02  0.340E-02    2.71       0.0  T
   2    -40.0019388 -0.164673E-06  0.200E-02    2.71       1.0  T
   3    -40.0019387  0.135643E-06  0.293E-03    2.71       6.8  T
   4    -40.0019389 -0.183587E-06  0.115E-03    2.71      17.4  T
   5    -40.0019389 -0.701105E-08  0.577E-04    2.71      34.6  T
   6    -40.0019389 -0.383937E-08  0.302E-04    2.71      66.1  T
     SCC iter.                  ...        0 min,  0.103 sec
     gradient                   ...        0 min,  0.021 sec
 * total energy  :   -39.4487897 Eh     change       -0.1226018E-03 Eh
   gradient norm :     0.0028162 Eh/α   predicted    -0.7098672E-04 ( -42.10%)
   displ. norm   :     0.1682960 α      lambda       -0.1385090E-03
   maximum displ.:     0.1529477 α      in ANC's #3, #6, #18, ...

........................................................................
.............................. CYCLE    8 ..............................
........................................................................

 iter      E             dE          RMSdq      gap      omega  full diag
   1    -40.0021235 -0.400021E+02  0.396E-02    2.71       0.0  T
   2    -40.0021237 -0.137883E-06  0.232E-02    2.71       1.0  T
   3    -40.0021236  0.888323E-07  0.295E-03    2.71       6.8  T
   4    -40.0021237 -0.135962E-06  0.153E-03    2.71      13.1  T
   5    -40.0021238 -0.157497E-07  0.645E-04    2.71      31.0  T
   6    -40.0021238 -0.121724E-08  0.494E-04    2.71      40.5  T
     SCC iter.                  ...        0 min,  0.121 sec
     gradient                   ...        0 min,  0.106 sec
 * total energy  :   -39.4489092 Eh     change       -0.1195006E-03 Eh
   gradient norm :     0.0025199 Eh/α   predicted    -0.7121917E-04 ( -40.40%)
   displ. norm   :     0.1852292 α      lambda       -0.1201033E-03
   maximum displ.:     0.1688661 α      in ANC's #3, #6, #18, ...

........................................................................
.............................. CYCLE    9 ..............................
........................................................................

 iter      E             dE          RMSdq      gap      omega  full diag
   1    -40.0022241 -0.400022E+02  0.437E-02    2.71       0.0  T
   2    -40.0022243 -0.207178E-06  0.255E-02    2.71       1.0  T
   3    -40.0022242  0.714032E-07  0.320E-03    2.71       6.3  T
   4    -40.0022244 -0.117053E-06  0.182E-03    2.71      11.0  T
   5    -40.0022244 -0.278150E-07  0.739E-04    2.71      27.1  T
   6    -40.0022244 -0.142136E-08  0.537E-04    2.71      37.3  T
     SCC iter.                  ...        0 min,  0.109 sec
     gradient                   ...        0 min,  0.058 sec
 * total energy  :   -39.4490088 Eh     change       -0.9953283E-04 Eh
   gradient norm :     0.0020023 Eh/α   predicted    -0.6211475E-04 ( -37.59%)
   displ. norm   :     0.1877101 α      lambda       -0.8785979E-04
   maximum displ.:     0.1727146 α      in ANC's #3, #6, #18, ...

........................................................................
.............................. CYCLE   10 ..............................
........................................................................

 iter      E             dE          RMSdq      gap      omega  full diag
   1    -40.0022769 -0.400023E+02  0.443E-02    2.71       0.0  T
   2    -40.0022771 -0.229169E-06  0.257E-02    2.71       1.0  T
   3    -40.0022771  0.402341E-07  0.309E-03    2.71       6.5  T
   4    -40.0022772 -0.826502E-07  0.177E-03    2.71      11.3  T
   5    -40.0022772 -0.269643E-07  0.690E-04    2.71      29.0  T
   6    -40.0022772 -0.233361E-08  0.473E-04    2.71      42.3  T
     SCC iter.                  ...        0 min,  0.135 sec
     gradient                   ...        0 min,  0.082 sec
 * total energy  :   -39.4490782 Eh     change       -0.6945589E-04 Eh
   gradient norm :     0.0016459 Eh/α   predicted    -0.4547898E-04 ( -34.52%)
   displ. norm   :     0.2951026 α      lambda       -0.6143368E-04
   maximum displ.:     0.2736174 α      in ANC's #3, #6, #18, ...

........................................................................
.............................. CYCLE   11 ..............................
........................................................................

 iter      E             dE          RMSdq      gap      omega  full diag
   1    -40.0019622 -0.400020E+02  0.695E-02    2.71       0.0  T
   2    -40.0019628 -0.569240E-06  0.402E-02    2.71       1.0  T
   3    -40.0019627  0.519928E-07  0.466E-03    2.71       4.3  T
   4    -40.0019629 -0.151938E-06  0.257E-03    2.71       7.8  T
   5    -40.0019629 -0.568610E-07  0.984E-04    2.71      20.3  T
   6    -40.0019629 -0.902038E-08  0.591E-04    2.71      33.8  T
     SCC iter.                  ...        0 min,  0.191 sec
     gradient                   ...        0 min,  0.020 sec
 * total energy  :   -39.4491320 Eh     change       -0.5380126E-04 Eh
   gradient norm :     0.0022735 Eh/α   predicted    -0.3190709E-04 ( -40.69%)
   displ. norm   :     0.0584567 α      lambda       -0.1829714E-04
   maximum displ.:     0.0533768 α      in ANC's #3, #6, #42, ...

........................................................................
.............................. CYCLE   12 ..............................
........................................................................

 iter      E             dE          RMSdq      gap      omega  full diag
   1    -40.0028265 -0.400028E+02  0.145E-02    2.71       0.0  T
   2    -40.0028266 -0.824114E-07  0.829E-03    2.71       2.4  T
   3    -40.0028266 -0.208691E-08  0.124E-03    2.71      16.1  T
   4    -40.0028266 -0.683821E-08  0.596E-04    2.71      33.6  T
   5    -40.0028266 -0.146359E-08  0.326E-04    2.71      61.4  T
     SCC iter.                  ...        0 min,  0.075 sec
     gradient                   ...        0 min,  0.118 sec
 * total energy  :   -39.4491439 Eh     change       -0.1185865E-04 Eh
   gradient norm :     0.0009892 Eh/α   predicted    -0.9245124E-05 ( -22.04%)
   displ. norm   :     0.1410072 α      lambda       -0.9391072E-05
   maximum displ.:     0.1293895 α      in ANC's #3, #6, #20, ...

........................................................................
.............................. CYCLE   13 ..............................
........................................................................

 iter      E             dE          RMSdq      gap      omega  full diag
   1    -40.0028454 -0.400028E+02  0.340E-02    2.71       0.0  T
   2    -40.0028456 -0.148778E-06  0.198E-02    2.71       1.0  T
   3    -40.0028455  0.491132E-07  0.234E-03    2.71       8.5  T
   4    -40.0028456 -0.876849E-07  0.105E-03    2.71      19.0  T
   5    -40.0028456 -0.369520E-08  0.531E-04    2.71      37.7  T
   6    -40.0028456 -0.428837E-08  0.279E-04    2.71      71.7  T
     SCC iter.                  ...        0 min,  0.128 sec
     gradient                   ...        0 min,  0.076 sec
 * total energy  :   -39.4491506 Eh     change       -0.6760302E-05 Eh
   gradient norm :     0.0005805 Eh/α   predicted    -0.4738487E-05 ( -29.91%)
   displ. norm   :     0.0081207 α      lambda        0.1144342E-05
   maximum displ.:     0.0042343 α      in ANC's #6, #3, #20, ...

........................................................................
.............................. CYCLE   14 ..............................
........................................................................

 iter      E             dE          RMSdq      gap      omega  full diag
   1    -40.0034293 -0.400034E+02  0.485E-03    2.71       0.0  T
   2    -40.0034294 -0.347361E-07  0.282E-03    2.71       7.1  T
   3    -40.0034294  0.382936E-08  0.810E-04    2.71      24.7  T
   4    -40.0034294 -0.581757E-08  0.268E-04    2.71      74.6  T
     SCC iter.                  ...        0 min,  0.125 sec
     gradient                   ...        0 min,  0.039 sec
 * total energy  :   -39.4491493 Eh     change        0.1297827E-05 Eh
   gradient norm :     0.0009112 Eh/α   predicted     0.5709289E-06 ( -56.01%)
   displ. norm   :     0.0092187 α      lambda       -0.2674289E-05
   maximum displ.:     0.0060721 α      in ANC's #3, #18, #21, ...

........................................................................
.............................. CYCLE   15 ..............................
........................................................................

 iter      E             dE          RMSdq      gap      omega  full diag
   1    -40.0029352 -0.400029E+02  0.565E-03    2.71       0.0  T
   2    -40.0029352 -0.218362E-07  0.331E-03    2.71       6.0  T
   3    -40.0029352  0.107779E-07  0.897E-04    2.71      22.3  T
   4    -40.0029352 -0.141048E-07  0.249E-04    2.71      80.4  T
     SCC iter.                  ...        0 min,  0.160 sec
     gradient                   ...        0 min,  0.064 sec
 * total energy  :   -39.4491513 Eh     change       -0.1985200E-05 Eh
   gradient norm :     0.0002227 Eh/α   predicted    -0.1337685E-05 ( -32.62%)
   displ. norm   :     0.0046887 α      lambda       -0.1967407E-06
   maximum displ.:     0.0039889 α      in ANC's #3, #6, #12, ...

   *** GEOMETRY OPTIMIZATION CONVERGED AFTER 15 ITERATIONS ***

------------------------------------------------------------------------
 total energy gain   :        -0.0092591 Eh       -5.8102 kcal/mol
 total RMSD          :         0.3768617 a0        0.1994 Å
 total power (kW/mol):        -1.6206477 (step)   -8.1198 (real)
------------------------------------------------------------------------

 ANCopt (total)                0 d,  0 h,  0 min,  2.994 sec
 optimizer setup                ...        0 min,  0.000 sec (  0.005%)
 model hessian                  ...        0 min,  0.049 sec (  1.639%)
 ANC generation                 ...        0 min,  0.009 sec (  0.317%)
 coordinate transformation      ...        0 min,  0.000 sec (  0.009%)
 single point calculation       ...        0 min,  2.868 sec ( 95.808%)
 optimization log               ...        0 min,  0.002 sec (  0.070%)
 hessian update                 ...        0 min,  0.062 sec (  2.066%)
 rational function              ...        0 min,  0.001 sec (  0.044%)

================
 final structure:
================
25
 xtb: 6.7.0 (08769fc)
O            1.80646038140138       -2.16681256552755        0.00003465051774
C            1.66231864132478       -0.96880868237126        0.00009282797927
C            0.39263602442400       -0.22246211938034       -0.00000275055187
C           -0.89860029944073       -0.72815701146934       -0.00004550314793
C           -1.93697067358100        0.18520821426417       -0.00003262973363
Br          -3.73626657317953       -0.44384427366348        0.00001888259774
C           -1.70684978366386        1.55551038520304       -0.00000616636579
C           -0.41025264084882        2.04486421221576        0.00000574890000
C            0.64429222362086        1.14960310303772        0.00001679417951
C            2.11395789459386        1.43209852930846        0.00000357802199
C            2.78652438695602        0.05376421517711       -0.00000868000407
C            3.87341879216171       -0.18699753852756        1.07518249357779
C            4.96299491484089       -0.10282746111202       -0.00001075285228
C            3.87341723258502       -0.18698051228162       -1.07521329643176
H           -1.07280698185372       -1.79289331523068       -0.00000097136844
H           -2.54476428769472        2.23601330296955       -0.00002073965453
H           -0.23590229334245        3.11032281120335       -0.00001569757252
H            2.39246679654254        2.01675167491629        0.87982238313541
H            2.39245720118498        2.01675372368340       -0.87981740293683
H            3.91587931217121        0.55249068678501        1.87236116889007
H            3.78646620331712       -1.18127796282742        1.50925671075453
H            5.69425938643192       -0.90681017340056       -0.00000090458271
H            5.48406271357513        0.85231145321087       -0.00000401886259
H            3.91588474991603        0.55250760869465       -1.87239369202759
H            3.78647667855735       -1.18125830487751       -1.50928203246151
 
 Bond Distances (Angstroems)
 ---------------------------
O1-C2=1.2066         C2-O1=1.2066         C2-C3=1.4728         C2-C11=1.5197        C3-C2=1.4728         C3-C4=1.3867         
C3-C9=1.3950         C4-C3=1.3867         C4-C5=1.3829         C4-H15=1.0789        C5-C4=1.3829         C5-Br6=1.9061        
C5-C7=1.3895         Br6-C5=1.9061        C7-C5=1.3895         C7-C8=1.3859         C7-H16=1.0794        C8-C7=1.3859         
C8-C9=1.3833         C8-H17=1.0796        C9-C3=1.3950         C9-C8=1.3833         C9-C10=1.4966        C10-C9=1.4966        
C10-C11=1.5337       C10-H18=1.0925       C10-H19=1.0925       C11-C2=1.5197        C11-C10=1.5337       C11-C12=1.5477       
C11-C14=1.5477       C12-C11=1.5477       C12-C13=1.5331       C12-H20=1.0882       C12-H21=1.0884       C13-C12=1.5331       
C13-C14=1.5331       C13-H22=1.0868       C13-H23=1.0880       C14-C11=1.5477       C14-C13=1.5331       C14-H24=1.0882       
C14-H25=1.0884       H15-C4=1.0789        H16-C7=1.0794        H17-C8=1.0796        H18-C10=1.0925       H19-C10=1.0925       
H20-C12=1.0882       H21-C12=1.0884       H22-C13=1.0868       H23-C13=1.0880       H24-C14=1.0882       H25-C14=1.0884       
 C  H  Rav=1.0864 sigma=0.0047  Rmin=1.0789  Rmax=1.0925    11
 C  C  Rav=1.4648 sigma=0.0698  Rmin=1.3829  Rmax=1.5477    14
 O  C  Rav=1.2066 sigma=0.0000  Rmin=1.2066  Rmax=1.2066     1
 Br C  Rav=1.9061 sigma=0.0000  Rmin=1.9061  Rmax=1.9061     1
 
 selected bond angles (degree)
 --------------------
C3-C2-O1=127.31                C11-C2-O1=125.43               C11-C2-C3=107.26               C4-C3-C2=128.16                
C9-C3-C2=110.05                C9-C3-C4=121.78                C5-C4-C3=117.28                H15-C4-C3=120.68               
H15-C4-C5=122.04               Br6-C5-C4=119.39               C7-C5-C4=121.80                C7-C5-Br6=118.80               
C8-C7-C5=120.21                H16-C7-C5=119.55               H16-C7-C8=120.24               C9-C8-C7=118.99                
H17-C8-C7=119.97               H17-C8-C9=121.04               C8-C9-C3=119.94                C10-C9-C3=111.27               
C10-C9-C8=128.79               C11-C10-C9=105.13              H18-C10-C9=110.57              H18-C10-C11=111.66             
H19-C10-C9=110.57              H19-C10-C11=111.66             H19-C10-H18=107.29             
 
 selected dihedral angles (degree)
 ---------------------------------
C4-C3-C2-O1=  0.00            C4-C3-C2-C11=180.00           C9-C3-C2-O1=180.00            C9-C3-C2-C11=  0.00           
C5-C4-C3-C2=180.00            C5-C4-C3-C9=  0.00            H15-C4-C3-C2=  0.00           H15-C4-C3-C9=180.00           
Br6-C5-C4-C3=180.00           Br6-C5-C4-H15=  0.00          C7-C5-C4-C3=  0.00            C7-C5-C4-H15=180.00           
C8-C7-C5-C4=  0.00            C8-C7-C5-Br6=180.00           H16-C7-C5-C4=180.00           H16-C7-C5-Br6=  0.00          
C9-C8-C7-C5=  0.00            C9-C8-C7-H16=180.00           H17-C8-C7-C5=180.00           H17-C8-C7-H16=  0.00          
C8-C9-C3-C2=180.00            C8-C9-C3-C4=  0.00            C10-C9-C3-C2=  0.00           C10-C9-C3-C4=180.00           
C3-C9-C8-C7=  0.00            C3-C9-C8-H17=180.00           C10-C9-C8-C7=180.00           C10-C9-C8-H17=  0.00          
C11-C10-C9-C3=  0.00          C11-C10-C9-C8=180.00          H18-C10-C9-C3=239.34          H18-C10-C9-C8= 59.34          
H19-C10-C9-C3=120.66          H19-C10-C9-C8=300.66          
           -------------------------------------------------
          |                Final Singlepoint                |
           -------------------------------------------------

          ...................................................
          :                      SETUP                      :
          :.................................................:
          :  # basis functions                  73          :
          :  # atomic orbitals                  72          :
          :  # shells                           40          :
          :  # electrons                        72          :
          :  max. iterations                   250          :
          :  Hamiltonian                  GFN2-xTB          :
          :  restarted?                      false          :
          :  GBSA solvation                  false          :
          :  PC potential                    false          :
          :  electronic temp.          300.0000000     K    :
          :  accuracy                    1.0000000          :
          :  -> integral cutoff          0.2500000E+02      :
          :  -> integral neglect         0.1000000E-07      :
          :  -> SCF convergence          0.1000000E-05 Eh   :
          :  -> wf. convergence          0.1000000E-03 e    :
          :  Broyden damping             0.4000000          :
          :  net charge                          0          :
          :  unpaired electrons                  0          :
          ...................................................

 iter      E             dE          RMSdq      gap      omega  full diag
   1    -40.0029352 -0.400029E+02  0.131E-04    2.71       0.0  T
   2    -40.0029352 -0.434071E-10  0.902E-05    2.71     221.8  T
   3    -40.0029352 -0.421423E-10  0.660E-05    2.71     302.9  T

   *** convergence criteria satisfied after 3 iterations ***

         #    Occupation            Energy/Eh            Energy/eV
      -------------------------------------------------------------
         1        2.0000           -0.8407298             -22.8774
       ...           ...                  ...                  ...
        30        2.0000           -0.4448043             -12.1037
        31        2.0000           -0.4387895             -11.9401
        32        2.0000           -0.4339784             -11.8092
        33        2.0000           -0.4339762             -11.8091
        34        2.0000           -0.4161158             -11.3231
        35        2.0000           -0.4046071             -11.0099
        36        2.0000           -0.3951725             -10.7532 (HOMO)
        37                         -0.2955855              -8.0433 (LUMO)
        38                         -0.2567199              -6.9857
        39                         -0.2151426              -5.8543
        40                         -0.2103266              -5.7233
        41                         -0.1187207              -3.2306
       ...                                ...                  ...
        72                          0.7055761              19.1997
      -------------------------------------------------------------
                  HL-Gap            0.0995870 Eh            2.7099 eV
             Fermi-level           -0.3453790 Eh           -9.3982 eV

 SCC (total)                   0 d,  0 h,  0 min,  0.150 sec
 SCC setup                      ...        0 min,  0.010 sec (  6.508%)
 Dispersion                     ...        0 min,  0.001 sec (  0.639%)
 classical contributions        ...        0 min,  0.006 sec (  4.193%)
 integral evaluation            ...        0 min,  0.002 sec (  1.072%)
 iterations                     ...        0 min,  0.066 sec ( 43.891%)
 molecular gradient             ...        0 min,  0.065 sec ( 43.199%)
 printout                       ...        0 min,  0.001 sec (  0.435%)

         :::::::::::::::::::::::::::::::::::::::::::::::::::::
         ::                     SUMMARY                     ::
         :::::::::::::::::::::::::::::::::::::::::::::::::::::
         :: total energy             -39.449151330410 Eh    ::
         :: gradient norm              0.000222488892 Eh/a0 ::
         :: HOMO-LUMO gap              2.709899542437 eV    ::
         ::.................................................::
         :: SCC energy               -40.002903864820 Eh    ::
         :: -> isotropic ES            0.030613792561 Eh    ::
         :: -> anisotropic ES          0.001667843044 Eh    ::
         :: -> anisotropic XC          0.014749076233 Eh    ::
         :: -> dispersion             -0.025805681057 Eh    ::
         :: repulsion energy           0.553752534410 Eh    ::
         :: add. restraining           0.000000000000 Eh    ::
         :: total charge              -0.000000000000 e     ::
         :::::::::::::::::::::::::::::::::::::::::::::::::::::

           -------------------------------------------------
          |                Property Printout                |
           -------------------------------------------------

    * Orbital Energies and Occupations

         #    Occupation            Energy/Eh            Energy/eV
      -------------------------------------------------------------
         1        2.0000           -0.8407298             -22.8774
       ...           ...                  ...                  ...
        24        2.0000           -0.4893485             -13.3159
        25        2.0000           -0.4803465             -13.0709
        26        2.0000           -0.4750250             -12.9261
        27        2.0000           -0.4711261             -12.8200
        28        2.0000           -0.4565060             -12.4222
        29        2.0000           -0.4473115             -12.1720
        30        2.0000           -0.4448043             -12.1037
        31        2.0000           -0.4387895             -11.9401
        32        2.0000           -0.4339784             -11.8092
        33        2.0000           -0.4339762             -11.8091
        34        2.0000           -0.4161158             -11.3231
        35        2.0000           -0.4046071             -11.0099
        36        2.0000           -0.3951725             -10.7532 (HOMO)
        37                         -0.2955855              -8.0433 (LUMO)
        38                         -0.2567199              -6.9857
        39                         -0.2151426              -5.8543
        40                         -0.2103266              -5.7233
        41                         -0.1187207              -3.2306
        42                          0.0139857               0.3806
        43                          0.0272755               0.7422
        44                          0.0284668               0.7746
        45                          0.0353808               0.9628
        46                          0.0376335               1.0241
        47                          0.0398485               1.0843
       ...                                ...                  ...
        72                          0.7055761              19.1997
      -------------------------------------------------------------
                  HL-Gap            0.0995870 Eh            2.7099 eV
             Fermi-level           -0.3453790 Eh           -9.3982 eV

     #   Z          covCN         q      C6AA      α(0)
     1   8 O        0.856    -0.357    20.842     6.121
     2   6 C        2.853     0.229    23.198     7.894
     3   6 C        3.015    -0.024    28.579     8.769
     4   6 C        2.986    -0.023    28.561     8.767
     5   6 C        2.919     0.081    26.186     8.392
     6  35 Br       1.069    -0.160   189.473    22.194
     7   6 C        2.995    -0.029    28.719     8.791
     8   6 C        2.918    -0.035    28.879     8.812
     9   6 C        3.015     0.014    27.675     8.629
    10   6 C        3.830    -0.071    21.838     6.649
    11   6 C        4.090    -0.011    20.685     6.460
    12   6 C        4.007    -0.054    21.454     6.580
    13   6 C        3.962    -0.057    21.521     6.592
    14   6 C        4.007    -0.054    21.454     6.580
    15   1 H        0.926     0.073     2.048     2.238
    16   1 H        0.926     0.061     2.184     2.311
    17   1 H        0.926     0.049     2.338     2.391
    18   1 H        0.924     0.059     2.215     2.327
    19   1 H        0.924     0.059     2.215     2.327
    20   1 H        0.925     0.033     2.542     2.493
    21   1 H        0.925     0.053     2.282     2.363
    22   1 H        0.925     0.039     2.460     2.453
    23   1 H        0.925     0.037     2.487     2.466
    24   1 H        0.925     0.033     2.542     2.493
    25   1 H        0.925     0.053     2.282     2.362

 Mol. C6AA /au·bohr⁶  :       8962.142186
 Mol. C8AA /au·bohr⁸  :     258734.755604
 Mol. α(0) /au        :        147.455273


Wiberg/Mayer (AO) data.
largest (>0.10) Wiberg bond orders for each atom

 ---------------------------------------------------------------------------
     #   Z sym  total        # sym  WBO       # sym  WBO       # sym  WBO
 ---------------------------------------------------------------------------
     1   8 O    2.083 --     2 C    1.822
     2   6 C    3.926 --     1 O    1.822     3 C    1.029    11 C    0.968
     3   6 C    3.988 --     4 C    1.385     9 C    1.343     2 C    1.029
     4   6 C    3.988 --     5 C    1.425     3 C    1.385    15 H    0.964
                             8 C    0.105
     5   6 C    3.941 --     4 C    1.425     7 C    1.396     6 Br   0.984
     6  35 Br   1.113 --     5 C    0.984
     7   6 C    3.987 --     8 C    1.441     5 C    1.396    16 H    0.968
     8   6 C    3.991 --     7 C    1.441     9 C    1.417    17 H    0.967
                             4 C    0.105
     9   6 C    3.986 --     8 C    1.417     3 C    1.343    10 C    1.019
    10   6 C    3.996 --     9 C    1.019    11 C    0.992    18 H    0.955
                            19 H    0.955
    11   6 C    3.983 --    10 C    0.992     2 C    0.968    12 C    0.958
                            14 C    0.958
    12   6 C    3.987 --    13 C    1.006    20 H    0.978    21 H    0.978
                            11 C    0.958
    13   6 C    3.991 --    12 C    1.006    14 C    1.006    23 H    0.983
                            22 H    0.983
    14   6 C    3.987 --    13 C    1.006    24 H    0.978    25 H    0.978
                            11 C    0.958
    15   1 H    0.995 --     4 C    0.964
    16   1 H    0.996 --     7 C    0.968
    17   1 H    0.997 --     8 C    0.967
    18   1 H    0.996 --    10 C    0.955
    19   1 H    0.996 --    10 C    0.955
    20   1 H    0.999 --    12 C    0.978
    21   1 H    0.997 --    12 C    0.978
    22   1 H    0.998 --    13 C    0.983
    23   1 H    0.999 --    13 C    0.983
    24   1 H    0.999 --    14 C    0.978
    25   1 H    0.997 --    14 C    0.978
 ---------------------------------------------------------------------------

Topologies differ in total number of bonds
Writing topology from bond orders to xtbtopo.mol

molecular dipole:
                 x           y           z       tot (Debye)
 q only:        0.956       1.477      -0.000
   full:        1.326       1.804      -0.000       5.690
molecular quadrupole (traceless):
                xx          xy          yy          xz          yz          zz
 q only:       -0.179       3.705      -1.458      -0.000      -0.000       1.637
  q+dip:       -7.381       2.812       4.277       0.000      -0.000       3.104
   full:       -7.434       3.266       1.445       0.000      -0.000       5.989

           -------------------------------------------------
          |                Geometry Summary                 |
           -------------------------------------------------

      molecular mass/u    :      251.1191118
   center of mass at/Å    :       -0.2288082      -0.0615911       0.0000070
  moments of inertia/u·Å² :        0.3010640E+03   0.2273043E+04   0.2492127E+04
rotational constants/cm⁻¹ :        0.5599352E-01   0.7416329E-02   0.6764354E-02

 * 24 selected distances

     #   Z          #   Z                                           value/Å
     1   8 O        2   6 C                                       1.2066443
     3   6 C        4   6 C                                       1.3867296
     4   6 C        5   6 C                                       1.3829134
     5   6 C        6  35 Br                                      1.9060885 (max)
     5   6 C        7   6 C                                       1.3894906
     7   6 C        8   6 C                                       1.3858686
     3   6 C        9   6 C                                       1.3949531
     8   6 C        9   6 C                                       1.3833140
    10   6 C       11   6 C                                       1.5336726
    11   6 C       12   6 C                                       1.5476893
    12   6 C       13   6 C                                       1.5330694
    11   6 C       14   6 C                                       1.5476949
    13   6 C       14   6 C                                       1.5330761
     4   6 C       15   1 H                                       1.0788937 (min)
     7   6 C       16   1 H                                       1.0794374
     8   6 C       17   1 H                                       1.0796297
    10   6 C       18   1 H                                       1.0924595
    10   6 C       19   1 H                                       1.0924599
    12   6 C       20   1 H                                       1.0881819
    12   6 C       21   1 H                                       1.0883818
    13   6 C       22   1 H                                       1.0868009
    13   6 C       23   1 H                                       1.0880268
    14   6 C       24   1 H                                       1.0881833
    14   6 C       25   1 H                                       1.0883763

 * 4 distinct bonds (by element types)

   Z      Z             #   av. dist./Å        max./Å        min./Å
   1 H    6 C          11     1.0864392     1.0924599     1.0788937
   6 C    6 C          11     1.4562247     1.5476949     1.3829134
   6 C    8 O           1     1.2066443     1.2066443     1.2066443
   6 C   35 Br          1     1.9060885     1.9060885     1.9060885


optimized geometry written to: xtbopt.xyz


           -------------------------------------------------
          | TOTAL ENERGY              -39.449151330410 Eh   |
          | GRADIENT NORM               0.000222488892 Eh/α |
          | HOMO-LUMO GAP               2.709899542437 eV   |
           -------------------------------------------------
########################################################################
[WARNING] Runtime exception occurred
-2- restart_readRestart: Dimension missmatch in restart file.
-1- restart_readRestart: Number of electron missmatch in restart file.
########################################################################

------------------------------------------------------------------------
 * finished run on 2024/09/25 at 09:26:06.284     
------------------------------------------------------------------------
 total:
 * wall-time:     0 d,  0 h,  0 min,  4.334 sec
 *  cpu-time:     0 d,  0 h,  3 min, 13.973 sec
 * ratio c/w:    44.754 speedup
 SCF:
 * wall-time:     0 d,  0 h,  0 min,  1.078 sec
 *  cpu-time:     0 d,  0 h,  0 min, 31.850 sec
 * ratio c/w:    29.552 speedup
 ANC optimizer:
 * wall-time:     0 d,  0 h,  0 min,  3.145 sec
 *  cpu-time:     0 d,  0 h,  2 min, 40.004 sec
 * ratio c/w:    50.875 speedup

