28
 energy: -44.567785349378 gnorm: 0.000473625240 xtb: 6.7.0 (08769fc)
Br          -3.39367192417917       -0.60335780163900       -0.04620751657343
C           -1.76130848108925        0.37733660452727       -0.02985250497741
C           -1.79338527172345        1.75393286318620        0.10408795070007
C           -0.59770912520756        2.44498118190718        0.11266663112464
C            0.62480491755753        1.79090829444671       -0.00380209261635
C            0.63224175455061        0.40349340916973       -0.13462436818124
C           -0.56466266137981       -0.30034794078520       -0.14609444365773
C            1.92928275815513       -0.38605227136844       -0.19509627174940
C            3.10323650873798        0.50838464854103       -0.61011040399349
C            3.11929154320495        1.74705309631722        0.27330412919709
C            1.89151042941349        2.59764211205236       -0.02492949789787
O            1.77653727529234       -1.48125002380673       -1.07776753492667
C            2.32220551038824       -2.62242450162792       -0.45566565060320
C            2.11244954916608       -2.33071030567008        1.03161280830505
O            2.20545186819533       -0.92663060761383        1.09922361567363
H           -2.73427927072517        2.27385575966488        0.19917934972070
H           -0.61115577386368        3.52056554244461        0.21282706015818
H           -0.55261496430318       -1.37277480014525       -0.26252403408457
H            4.02774549525379       -0.06035821939011       -0.50202775557147
H            2.97486014405937        0.77617553742155       -1.66023945163583
H            4.02729314904667        2.32613244828560        0.09935186068193
H            3.10550992869581        1.42691466581050        1.31635887953786
H            1.81313563110069        3.41916282506312        0.69027186520932
H            1.99338647958843        3.04165635099441       -1.02136981363818
H            1.78496554565132       -3.49925830411488       -0.81642183655035
H            3.39066031694339       -2.71702054830793       -0.69268859122881
H            2.88048656104582       -2.76046030870470        1.67595979317987
H            1.12062210642431       -2.66290970665830        1.36718782439764
