23
 energy: -36.515935481572 gnorm: 0.000782190493 xtb: 6.7.0 (08769fc)
Br           3.81426558062950       -0.10734334544715        0.00001437783266
C            1.92224353761722        0.14785651796071        0.00000689993145
C            1.41993547858926        1.44007110865794        0.00000065267746
C            0.05063972193566        1.64485413202100       -0.00000576891349
C           -0.79269128650446        0.54461656674403        0.00000035641541
C           -0.26539680003627       -0.75758392787208        0.00000934049876
C            1.09673912397168       -0.96772547269191        0.00001206175946
C           -1.37290668537060       -1.76860036804842        0.00001803146855
C           -2.60086790674450       -0.90513621469036        0.00000736647829
C           -3.92844105576668       -1.27823112572438        0.00000508282178
C           -4.89984322113440       -0.28654268576026       -0.00000586353015
C           -4.54677362379308        1.05512380399516       -0.00001259053594
C           -3.21601069174668        1.43872192898273       -0.00000908896845
C           -2.24256908126252        0.45220396039860       -0.00000101160710
H            2.09901932947167        2.27896314151475       -0.00001464942063
H           -0.34595375897806        2.64858752971918       -0.00001865860363
H            1.51604955510224       -1.96257435336731        0.00002790618466
H           -1.33052832495928       -2.41483925100490       -0.88041567967733
H           -1.33053116467319       -2.41482464197763        0.88046276280861
H           -4.21017063476212       -2.32134075681856        0.00001403695632
H           -5.94383864419680       -0.56324256372230       -0.00000288025520
H           -5.32047151327002        1.80891975869952       -0.00001589401522
H           -2.94399793411857        2.48364625843163       -0.00001679030629
