25
 energy: -39.449151330410 gnorm: 0.000222488892 xtb: 6.7.0 (08769fc)
O            1.80646038140138       -2.16681256552755        0.00003465051774
C            1.66231864132478       -0.96880868237126        0.00009282797927
C            0.39263602442400       -0.22246211938034       -0.00000275055187
C           -0.89860029944073       -0.72815701146934       -0.00004550314793
C           -1.93697067358100        0.18520821426417       -0.00003262973363
Br          -3.73626657317953       -0.44384427366348        0.00001888259774
C           -1.70684978366386        1.55551038520304       -0.00000616636579
C           -0.41025264084882        2.04486421221576        0.00000574890000
C            0.64429222362086        1.14960310303772        0.00001679417951
C            2.11395789459386        1.43209852930846        0.00000357802199
C            2.78652438695602        0.05376421517711       -0.00000868000407
C            3.87341879216171       -0.18699753852756        1.07518249357779
C            4.96299491484089       -0.10282746111202       -0.00001075285228
C            3.87341723258502       -0.18698051228162       -1.07521329643176
H           -1.07280698185372       -1.79289331523068       -0.00000097136844
H           -2.54476428769472        2.23601330296955       -0.00002073965453
H           -0.23590229334245        3.11032281120335       -0.00001569757252
H            2.39246679654254        2.01675167491629        0.87982238313541
H            2.39245720118498        2.01675372368340       -0.87981740293683
H            3.91587931217121        0.55249068678501        1.87236116889007
H            3.78646620331712       -1.18127796282742        1.50925671075453
H            5.69425938643192       -0.90681017340056       -0.00000090458271
H            5.48406271357513        0.85231145321087       -0.00000401886259
H            3.91588474991603        0.55250760869465       -1.87239369202759
H            3.78647667855735       -1.18125830487751       -1.50928203246151
