19
 energy: -35.049283102289 gnorm: 0.000814436820 xtb: 6.7.0 (08769fc)
O           -4.37066565826726       -1.42626532656153       -0.32441866795160
C           -3.39644639412214       -0.79225108730866       -0.01817826540262
C           -3.48559790964259        0.65350443705110        0.43920307872767
O           -2.47145749070127        1.50177120680676       -0.05241455045040
C           -1.20107694993854        1.01454532112059       -0.04506720454760
C           -0.16725457453486        1.94567692025214       -0.13736664671058
C            1.14868059744659        1.53447580089577       -0.13196180827968
C            1.43037504974178        0.18156969374690       -0.02682042617589
Br           3.24255151004446       -0.40221925819279        0.00837560177738
C            0.41603871444394       -0.75379587686873        0.04272701318014
C           -0.91127129200905       -0.34723430178378        0.02434001530804
C           -2.00757896515325       -1.37557063809315        0.02084943234931
H           -4.43357005192132        1.09186388872428        0.11894401821285
H           -3.45797339615646        0.64058588874116        1.54209076912004
H           -0.42109801519793        2.99033447881292       -0.21291024013514
H            1.94790745606735        2.25520962548263       -0.20057760477821
H            0.65042578978284       -1.80604466028691        0.10146047222998
H           -1.94462378524591       -2.00077258326937        0.91953546204172
H           -1.89093463463638       -2.05426352926934       -0.82963044851541
