18
 energy: -30.989950010930 gnorm: 0.000723798473 xtb: 6.7.0 (08769fc)
O            3.85810889964012        1.38237980328541       -0.00001565364414
C            3.09514970844774        0.44897758352242        0.00000014484225
C            3.48339466404119       -1.02296900555375        0.00002319156446
C            2.17799555813494       -1.82756611950328        0.00001056733436
C            1.09612156447774       -0.79216394526910        0.00000471420773
C           -0.27163772143416       -0.98596138118260        0.00000279317875
C           -1.08494463607419        0.13838307570834       -0.00000433240611
Br          -2.97418167280344       -0.09860122670997        0.00000053050095
C           -0.57163913728023        1.42978079684038       -0.00000998083466
C            0.79817994876037        1.61615688531603       -0.00001042721545
C            1.62353752648420        0.49974135553334       -0.00000249235205
H            4.09878494990089       -1.22581621362627       -0.87718996524402
H            4.09875008037268       -1.22579357793089        0.87726656987149
H            2.09412058823711       -2.46893949919498        0.87949870674384
H            2.09413472461559       -2.46892856591060       -0.87948685572751
H           -0.70195474232645       -1.97592407287914        0.00000944584178
H           -1.24383454427619        2.27388016382400       -0.00001786574364
H            1.22778424108210        2.60600394373065       -0.00001909091803
