20
 energy: -32.024707278763 gnorm: 0.000396726366 xtb: 6.7.0 (08769fc)
Br           2.99341768871278       -0.25958187443240       -0.10009243856396
C            1.14492999706531        0.19043477900933       -0.01904239670912
C            0.77156534903831        1.52267408326777        0.02996170102847
C           -0.57581537943853        1.82671293198237        0.07294144247726
C           -1.54811094922696        0.83662878338420        0.08075099434078
C           -1.14665362142340       -0.50201141925489        0.05256324377708
C            0.20890948050678       -0.82187395488616       -0.00776488704189
O           -2.00854023069670       -1.55071414545794        0.06264449378592
C           -3.36940488125492       -1.25155963087048        0.31038892354081
C           -3.82062701440274        0.00148205506909       -0.42880893215019
C           -3.01189079974462        1.18433004263435        0.09477822313329
H            1.51618057407731        2.30251976184066        0.02671866361231
H           -0.88513469734053        2.86130517038514        0.09736645089205
H            0.49777639560090       -1.85993468481900       -0.04321631981941
H           -3.92135827788144       -2.13547285482431       -0.01776661712127
H           -3.51964268603718       -1.12208541465214        1.39139337420164
H           -3.63556807315368       -0.13033882372283       -1.49682492280835
H           -4.88826106248333        0.15648300967233       -0.27645037192138
H           -3.32258678910774        1.42203092819331        1.11737668390790
H           -3.18659502280961        2.07262125748160       -0.51534730856193
