17
 energy: -32.159136574353 gnorm: 0.000850729375 xtb: 6.7.0 (08769fc)
Br           3.49951786544264       -0.89334675397520        0.00664493525648
C            1.81950240299147        0.00208181277649       -0.00084562291970
C            0.65976010546664       -0.75455474237269       -0.00012166251455
C           -0.57028678589585       -0.11604143816058       -0.00166531065930
I           -2.37274856108416       -1.20211913638393       -0.00201070192870
C           -0.61067409293245        1.26535162538685       -0.00373291764171
C            0.56933572564105        2.01229129554392       -0.00730179932910
C            1.79733195289517        1.39259378776484       -0.00607113653033
C            0.19050766039835        3.46420139562208       -0.02291365224817
C           -1.34975421012479        3.39203035522207        0.03978732224004
O           -1.72690946227294        2.01412875936459       -0.00428583808626
H            0.71392980273916       -1.83172333150088        0.00284962342672
H            2.71420599681211        1.96007448002117       -0.00856608704529
H            0.60930507443125        4.00205289205751        0.82808290814480
H            0.53844024396706        3.95081572580273       -0.93587367779106
H           -1.82940868387035        3.89523760190438       -0.80361093450379
H           -1.74361503460437        3.81458567092665        0.96951455212990
