20
 energy: -30.071168380890 gnorm: 0.000653469021 xtb: 6.7.0 (08769fc)
C           -3.95260805017779        1.37087221533116       -0.08360244772159
C           -3.08472115943919        0.36983633955422        0.00705862906861
C           -3.44272831020104       -1.09413196692446        0.12661521347456
C           -2.12893723880823       -1.86971581452510       -0.07084482545855
C           -1.06756317962952       -0.81338513306534       -0.02445959442506
C            0.30108231020495       -0.98563945617423       -0.02751178903571
C            1.09697191887890        0.15016562095387        0.00147109582609
Br           2.99505579961508       -0.05269631738611        0.00488294724400
C            0.55822594503440        1.42709419483013        0.02872682469384
C           -0.81640284965857        1.58945277176849        0.02865987097658
C           -1.63093263599154        0.46661331721456        0.00370563980432
H           -3.63378275218074        2.39548331349872       -0.16331499173453
H           -5.01506060222002        1.19716190712654       -0.08266756249198
H           -3.85342267349585       -1.28186103450016        1.12133547456352
H           -4.20279552609789       -1.37727850453675       -0.60112616624462
H           -2.10806936018860       -2.37277249060946       -1.04086731954637
H           -1.97422013106495       -2.62972854374702        0.69620925533463
H            0.74537070820802       -1.96921208844644       -0.05069180406920
H            1.21194231061508        2.28551437992646        0.05218917943151
H           -1.24159452340251        2.58081728971091        0.05369237030993
