17
arbr37_wb97xd.log	Energy:      43.6999505
Br        -2.65326       -0.21081        0.00000
C         -0.79575        0.15143       -0.00003
C         -0.35446        1.48552       -0.00000
C          1.01325        1.77887        0.00000
C          1.90720        0.72303        0.00001
C          1.46040       -0.60553        0.00002
C          0.10971       -0.91153       -0.00002
C          2.63854       -1.53022        0.00001
C          3.77864       -0.53973       -0.00001
C          3.35954        0.73611       -0.00001
H         -1.07334        2.30113        0.00002
H          1.35844        2.80734        0.00002
H         -0.22722       -1.94247        0.00002
H          2.65967       -2.15024       -0.90067
H          2.65964       -2.15028        0.90069
H          4.81676       -0.84117        0.00001
H          3.96749        1.62622        0.00003
