 Entering Gaussian System, Link 0=/usr/local/Gaussian/G16C/g16/g16
 Input=arbr47_wb97xd_red.com
 Output=arbr47_wb97xd_red.log
 Initial command:
 /usr/local/Gaussian/G16C/g16/l1.exe "/home/rpaton/arbr500/dzvp/fukui/Gau-1921562.inp" -scrdir="/home/rpaton/arbr500/dzvp/fukui/"
 Entering Link 1 = /usr/local/Gaussian/G16C/g16/l1.exe PID=   1921563.
  
 Copyright (c) 1988-2019, Gaussian, Inc.  All Rights Reserved.
  
 This is part of the Gaussian(R) 16 program.  It is based on
 the Gaussian(R) 09 system (copyright 2009, Gaussian, Inc.),
 the Gaussian(R) 03 system (copyright 2003, Gaussian, Inc.),
 the Gaussian(R) 98 system (copyright 1998, Gaussian, Inc.),
 the Gaussian(R) 94 system (copyright 1995, Gaussian, Inc.),
 the Gaussian 92(TM) system (copyright 1992, Gaussian, Inc.),
 the Gaussian 90(TM) system (copyright 1990, Gaussian, Inc.),
 the Gaussian 88(TM) system (copyright 1988, Gaussian, Inc.),
 the Gaussian 86(TM) system (copyright 1986, Carnegie Mellon
 University), and the Gaussian 82(TM) system (copyright 1983,
 Carnegie Mellon University). Gaussian is a federally registered
 trademark of Gaussian, Inc.
  
 This software contains proprietary and confidential information,
 including trade secrets, belonging to Gaussian, Inc.
  
 This software is provided under written license and may be
 used, copied, transmitted, or stored only in accord with that
 written license.
  
 The following legend is applicable only to US Government
 contracts under FAR:
  
                    RESTRICTED RIGHTS LEGEND
  
 Use, reproduction and disclosure by the US Government is
 subject to restrictions as set forth in subparagraphs (a)
 and (c) of the Commercial Computer Software - Restricted
 Rights clause in FAR 52.227-19.
  
 Gaussian, Inc.
 340 Quinnipiac St., Bldg. 40, Wallingford CT 06492
  
  
 ---------------------------------------------------------------
 Warning -- This program may not be used in any manner that
 competes with the business of Gaussian, Inc. or will provide
 assistance to any competitor of Gaussian, Inc.  The licensee
 of this program is prohibited from giving any competitor of
 Gaussian, Inc. access to this program.  By using this program,
 the user acknowledges that Gaussian, Inc. is engaged in the
 business of creating and licensing software in the field of
 computational chemistry and represents and warrants to the
 licensee that it is not a competitor of Gaussian, Inc. and that
 it will not use this program in any manner prohibited above.
 ---------------------------------------------------------------
  

 Cite this work as:
 Gaussian 16, Revision C.01,
 M. J. Frisch, G. W. Trucks, H. B. Schlegel, G. E. Scuseria, 
 M. A. Robb, J. R. Cheeseman, G. Scalmani, V. Barone, 
 G. A. Petersson, H. Nakatsuji, X. Li, M. Caricato, A. V. Marenich, 
 J. Bloino, B. G. Janesko, R. Gomperts, B. Mennucci, H. P. Hratchian, 
 J. V. Ortiz, A. F. Izmaylov, J. L. Sonnenberg, D. Williams-Young, 
 F. Ding, F. Lipparini, F. Egidi, J. Goings, B. Peng, A. Petrone, 
 T. Henderson, D. Ranasinghe, V. G. Zakrzewski, J. Gao, N. Rega, 
 G. Zheng, W. Liang, M. Hada, M. Ehara, K. Toyota, R. Fukuda, 
 J. Hasegawa, M. Ishida, T. Nakajima, Y. Honda, O. Kitao, H. Nakai, 
 T. Vreven, K. Throssell, J. A. Montgomery, Jr., J. E. Peralta, 
 F. Ogliaro, M. J. Bearpark, J. J. Heyd, E. N. Brothers, K. N. Kudin, 
 V. N. Staroverov, T. A. Keith, R. Kobayashi, J. Normand, 
 K. Raghavachari, A. P. Rendell, J. C. Burant, S. S. Iyengar, 
 J. Tomasi, M. Cossi, J. M. Millam, M. Klene, C. Adamo, R. Cammi, 
 J. W. Ochterski, R. L. Martin, K. Morokuma, O. Farkas, 
 J. B. Foresman, and D. J. Fox, Gaussian, Inc., Wallingford CT, 2019.
 
 ******************************************
 Gaussian 16:  ES64L-G16RevC.01  3-Jul-2019
                28-Sep-2024 
 ******************************************
 %chk=arbr47_wb97xd_red.chk
 %mem=48GB
 %nprocshared=24
 Will use up to   24 processors via shared memory.
 -------------------------------------
 # pop=(nbo6,hirshfeld) wb97xd/def2svp
 -------------------------------------
 1/38=1,172=1/1;
 2/12=2,17=6,18=5,40=1/2;
 3/5=43,7=101,11=2,25=1,30=1,74=-58/1,2,3;
 4//1;
 5/5=2,38=5/2;
 6/7=2,8=2,9=2,10=2,28=1,40=1,79=1,113=1,114=1,124=3103,126=1/1,12;
 99/5=1,9=1/99;
 ----------------------------------------
 arbr47_wb97xd_redcreated by GaussianPrep
 ----------------------------------------
 Symbolic Z-matrix:
 Charge = -1 Multiplicity = 2
 O                    -4.21408  -1.57107   0.46283 
 C                    -3.33965  -0.81931   0.12217 
 C                    -3.45003   0.67883   0.38165 
 O                    -2.49273   1.46579  -0.28749 
 C                    -1.20614   1.03454  -0.19202 
 C                    -0.1854    1.96938  -0.02917 
 C                     1.13693   1.5431    0.04781 
 C                     1.42459   0.18014  -0.0256 
 Br                    3.21889  -0.40799   0.10082 
 C                     0.4061   -0.75537  -0.19477 
 C                    -0.91901  -0.33206  -0.29376 
 C                    -2.06541  -1.26909  -0.5653 
 H                    -4.44348   1.021     0.06286 
 H                    -3.37786   0.82449   1.47648 
 H                    -0.44275   3.02734   0.0383 
 H                     1.94173   2.26804   0.17719 
 H                     0.64334  -1.81888  -0.26416 
 H                    -1.85251  -2.30797  -0.27879 
 H                    -2.2871   -1.27304  -1.64949 
 
                          Input orientation:                          
 ---------------------------------------------------------------------
 Center     Atomic      Atomic             Coordinates (Angstroms)
 Number     Number       Type             X           Y           Z
 ---------------------------------------------------------------------
      1          8           0       -4.214079   -1.571068    0.462829
      2          6           0       -3.339651   -0.819305    0.122165
      3          6           0       -3.450031    0.678828    0.381654
      4          8           0       -2.492730    1.465787   -0.287494
      5          6           0       -1.206140    1.034543   -0.192015
      6          6           0       -0.185399    1.969375   -0.029165
      7          6           0        1.136934    1.543098    0.047813
      8          6           0        1.424586    0.180135   -0.025604
      9         35           0        3.218892   -0.407989    0.100823
     10          6           0        0.406098   -0.755372   -0.194771
     11          6           0       -0.919009   -0.332063   -0.293756
     12          6           0       -2.065406   -1.269092   -0.565298
     13          1           0       -4.443476    1.021002    0.062862
     14          1           0       -3.377863    0.824485    1.476475
     15          1           0       -0.442753    3.027341    0.038304
     16          1           0        1.941726    2.268037    0.177189
     17          1           0        0.643339   -1.818878   -0.264164
     18          1           0       -1.852509   -2.307973   -0.278787
     19          1           0       -2.287101   -1.273037   -1.649485
 ---------------------------------------------------------------------
                    Distance matrix (angstroms):
                    1          2          3          4          5
     1  O    0.000000
     2  C    1.202424   0.000000
     3  C    2.377476   1.524441   0.000000
     4  O    3.570506   2.471182   1.408364   0.000000
     5  C    4.033079   2.843823   2.343219   1.360295   0.000000
     6  C    5.385820   4.212949   3.534417   2.375734   1.393680
     7  C    6.205128   5.062242   4.679600   3.645939   2.409594
     8  C    5.924510   4.870182   4.916955   4.131205   2.770997
     9  Br   7.532122   6.571463   6.762734   6.023658   4.663428
    10  C    4.737492   3.759677   4.154386   3.653129   2.408965
    11  C    3.600700   2.503977   2.807873   2.389331   1.400145
    12  C    2.401048   1.516118   2.570661   2.781968   2.486848
    13  H    2.632760   2.146783   1.098018   2.031254   3.247382
    14  H    2.732290   2.130179   1.106823   2.075166   2.746701
    15  H    5.962255   4.816195   3.831073   2.597499   2.146404
    16  H    7.260458   6.117814   5.624805   4.530335   3.401012
    17  H    4.917768   4.124634   4.838522   4.541420   3.401145
    18  H    2.582641   2.142075   3.450977   3.827692   3.405545
    19  H    2.874706   2.110090   3.047574   3.065691   2.935578
                    6          7          8          9         10
     6  C    0.000000
     7  C    1.391475   0.000000
     8  C    2.406957   1.394920   0.000000
     9  Br   4.154269   2.853787   1.892461   0.000000
    10  C    2.793124   2.424032   1.393237   2.849537   0.000000
    11  C    2.429981   2.803533   2.413854   4.157365   1.394596
    12  C    3.782794   4.305729   3.817273   5.395278   2.551378
    13  H    4.363382   5.604800   5.928662   7.794571   5.171097
    14  H    3.710735   4.789663   5.072962   6.850444   4.428021
    15  H    1.090906   2.167597   3.405528   5.021259   3.883785
    16  H    2.157879   1.090855   2.160531   2.966159   3.411379
    17  H    3.884957   3.412308   2.159470   2.959273   1.091853
    18  H    4.597529   4.886122   4.122394   5.428918   2.742067
    19  H    4.189967   4.747152   4.304105   5.841904   3.104431
                   11         12         13         14         15
    11  C    0.000000
    12  C    1.505319   0.000000
    13  H    3.792074   3.360704   0.000000
    14  H    3.243036   3.205378   1.781138   0.000000
    15  H    3.409205   4.632135   4.475688   3.941546   0.000000
    16  H    3.894370   5.396265   6.506840   5.663039   2.506306
    17  H    2.156948   2.780332   5.835028   5.117349   4.975633
    18  H    2.185376   1.098493   4.232246   3.901274   5.527525
    19  H    2.143621   1.106628   3.583950   3.919309   4.974284
                   16         17         18         19
    16  H    0.000000
    17  H    4.310856   0.000000
    18  H    5.961879   2.543361   0.000000
    19  H    5.810243   3.287025   1.771659   0.000000
 Stoichiometry    C9H7BrO2(1-,2)
 Framework group  C1[X(C9H7BrO2)]
 Deg. of freedom    51
 Full point group                 C1      NOp   1
 Largest Abelian subgroup         C1      NOp   1
 Largest concise Abelian subgroup C1      NOp   1
                         Standard orientation:                         
 ---------------------------------------------------------------------
 Center     Atomic      Atomic             Coordinates (Angstroms)
 Number     Number       Type             X           Y           Z
 ---------------------------------------------------------------------
      1          8           0        4.214079   -1.571068   -0.462829
      2          6           0        3.339651   -0.819305   -0.122165
      3          6           0        3.450031    0.678828   -0.381654
      4          8           0        2.492730    1.465787    0.287494
      5          6           0        1.206140    1.034543    0.192015
      6          6           0        0.185399    1.969375    0.029165
      7          6           0       -1.136934    1.543098   -0.047813
      8          6           0       -1.424586    0.180135    0.025604
      9         35           0       -3.218892   -0.407989   -0.100823
     10          6           0       -0.406098   -0.755372    0.194771
     11          6           0        0.919009   -0.332063    0.293756
     12          6           0        2.065406   -1.269092    0.565298
     13          1           0        4.443476    1.021002   -0.062862
     14          1           0        3.377863    0.824485   -1.476475
     15          1           0        0.442753    3.027341   -0.038304
     16          1           0       -1.941726    2.268037   -0.177189
     17          1           0       -0.643339   -1.818878    0.264164
     18          1           0        1.852509   -2.307973    0.278787
     19          1           0        2.287101   -1.273037    1.649485
 ---------------------------------------------------------------------
 Rotational constants (GHZ):           1.9358465           0.3053237           0.2688565
 Standard basis: def2SVP (5D, 7F)
 There are   235 symmetry adapted cartesian basis functions of A   symmetry.
 There are   221 symmetry adapted basis functions of A   symmetry.
   221 basis functions,   404 primitive gaussians,   235 cartesian basis functions
    57 alpha electrons       56 beta electrons
       nuclear repulsion energy       905.6291197828 Hartrees.
 NAtoms=   19 NActive=   19 NUniq=   19 SFac= 1.00D+00 NAtFMM=   60 NAOKFM=F Big=F
 Integral buffers will be    131072 words long.
 Raffenetti 2 integral format.
 Two-electron integral symmetry is turned on.
 Nuclear repulsion after empirical dispersion term =      905.6181081783 Hartrees.
 One-electron integrals computed using PRISM.
   1 Symmetry operations used in ECPInt.
 ECPInt:  NShTT=    4950 NPrTT=   19707 LenC2=    4713 LenP2D=   13904.
 LDataN:  DoStor=T MaxTD1= 4 Len=   56
 NBasis=   221 RedAO= T EigKep=  2.33D-04  NBF=   221
 NBsUse=   221 1.00D-06 EigRej= -1.00D+00 NBFU=   221
 ExpMin= 1.22D-01 ExpMax= 1.13D+05 ExpMxC= 1.70D+04 IAcc=3 IRadAn=         5 AccDes= 0.00D+00
 Harris functional with IExCor= 4639 and IRadAn=       5 diagonalized for initial guess.
 HarFok:  IExCor= 4639 AccDes= 0.00D+00 IRadAn=         5 IDoV= 1 UseB2=F ITyADJ=14
 ICtDFT=  3500011 ScaDFX=  1.000000  1.000000  1.000000  1.000000
 FoFCou: FMM=F IPFlag=           0 FMFlag=      100000 FMFlg1=           0
         NFxFlg=           0 DoJE=T BraDBF=F KetDBF=T FulRan=T
         wScrn=  0.000000 ICntrl=       500 IOpCl=  0 I1Cent=   200000004 NGrid=           0
         NMat0=    1 NMatS0=      1 NMatT0=    0 NMatD0=    1 NMtDS0=    0 NMtDT0=    0
 Petite list used in FoFCou.
 Initial guess <Sx>= 0.0000 <Sy>= 0.0000 <Sz>= 0.5000 <S**2>= 0.7500 S= 0.5000
 Requested convergence on RMS density matrix=1.00D-08 within 128 cycles.
 Requested convergence on MAX density matrix=1.00D-06.
 Requested convergence on             energy=1.00D-06.
 No special actions if energy rises.
 Integral accuracy reduced to 1.0D-05 until final iterations.
 Initial convergence to 1.0D-05 achieved.  Increase integral accuracy.
 SCF Done:  E(UwB97XD) =  -3070.95747783     A.U. after   35 cycles
            NFock= 35  Conv=0.62D-08     -V/T= 2.0024
 <Sx>= 0.0000 <Sy>= 0.0000 <Sz>= 0.5000 <S**2>= 0.7611 S= 0.5055
 <L.S>= 0.000000000000E+00
 Annihilation of the first spin contaminant:
 S**2 before annihilation     0.7611,   after     0.7501

 **********************************************************************

            Population analysis using the SCF Density.

 **********************************************************************

 Orbital symmetries:
 Alpha Orbitals:
       Occupied  (A) (A) (A) (A) (A) (A) (A) (A) (A) (A) (A) (A)
                 (A) (A) (A) (A) (A) (A) (A) (A) (A) (A) (A) (A)
                 (A) (A) (A) (A) (A) (A) (A) (A) (A) (A) (A) (A)
                 (A) (A) (A) (A) (A) (A) (A) (A) (A) (A) (A) (A)
                 (A) (A) (A) (A) (A) (A) (A) (A) (A)
       Virtual   (A) (A) (A) (A) (A) (A) (A) (A) (A) (A) (A) (A)
                 (A) (A) (A) (A) (A) (A) (A) (A) (A) (A) (A) (A)
                 (A) (A) (A) (A) (A) (A) (A) (A) (A) (A) (A) (A)
                 (A) (A) (A) (A) (A) (A) (A) (A) (A) (A) (A) (A)
                 (A) (A) (A) (A) (A) (A) (A) (A) (A) (A) (A) (A)
                 (A) (A) (A) (A) (A) (A) (A) (A) (A) (A) (A) (A)
                 (A) (A) (A) (A) (A) (A) (A) (A) (A) (A) (A) (A)
                 (A) (A) (A) (A) (A) (A) (A) (A) (A) (A) (A) (A)
                 (A) (A) (A) (A) (A) (A) (A) (A) (A) (A) (A) (A)
                 (A) (A) (A) (A) (A) (A) (A) (A) (A) (A) (A) (A)
                 (A) (A) (A) (A) (A) (A) (A) (A) (A) (A) (A) (A)
                 (A) (A) (A) (A) (A) (A) (A) (A) (A) (A) (A) (A)
                 (A) (A) (A) (A) (A) (A) (A) (A) (A) (A) (A) (A)
                 (A) (A) (A) (A) (A) (A) (A) (A)
 Beta  Orbitals:
       Occupied  (A) (A) (A) (A) (A) (A) (A) (A) (A) (A) (A) (A)
                 (A) (A) (A) (A) (A) (A) (A) (A) (A) (A) (A) (A)
                 (A) (A) (A) (A) (A) (A) (A) (A) (A) (A) (A) (A)
                 (A) (A) (A) (A) (A) (A) (A) (A) (A) (A) (A) (A)
                 (A) (A) (A) (A) (A) (A) (A) (A)
       Virtual   (A) (A) (A) (A) (A) (A) (A) (A) (A) (A) (A) (A)
                 (A) (A) (A) (A) (A) (A) (A) (A) (A) (A) (A) (A)
                 (A) (A) (A) (A) (A) (A) (A) (A) (A) (A) (A) (A)
                 (A) (A) (A) (A) (A) (A) (A) (A) (A) (A) (A) (A)
                 (A) (A) (A) (A) (A) (A) (A) (A) (A) (A) (A) (A)
                 (A) (A) (A) (A) (A) (A) (A) (A) (A) (A) (A) (A)
                 (A) (A) (A) (A) (A) (A) (A) (A) (A) (A) (A) (A)
                 (A) (A) (A) (A) (A) (A) (A) (A) (A) (A) (A) (A)
                 (A) (A) (A) (A) (A) (A) (A) (A) (A) (A) (A) (A)
                 (A) (A) (A) (A) (A) (A) (A) (A) (A) (A) (A) (A)
                 (A) (A) (A) (A) (A) (A) (A) (A) (A) (A) (A) (A)
                 (A) (A) (A) (A) (A) (A) (A) (A) (A) (A) (A) (A)
                 (A) (A) (A) (A) (A) (A) (A) (A) (A) (A) (A) (A)
                 (A) (A) (A) (A) (A) (A) (A) (A) (A)
 The electronic state is 2-A.
 Alpha  occ. eigenvalues -- -482.91963 -62.50174 -56.30917 -56.30597 -56.30596
 Alpha  occ. eigenvalues --  -19.13877 -19.08680 -10.22136 -10.21742 -10.19655
 Alpha  occ. eigenvalues --  -10.18987 -10.15764 -10.13554 -10.13270 -10.12818
 Alpha  occ. eigenvalues --  -10.12418  -8.67128  -6.49592  -6.48401  -6.48400
 Alpha  occ. eigenvalues --   -2.59986  -2.59629  -2.59629  -2.58680  -2.58680
 Alpha  occ. eigenvalues --   -1.01977  -0.98246  -0.80596  -0.75496  -0.72835
 Alpha  occ. eigenvalues --   -0.68811  -0.65977  -0.61434  -0.54657  -0.53756
 Alpha  occ. eigenvalues --   -0.47656  -0.46608  -0.44143  -0.42260  -0.39271
 Alpha  occ. eigenvalues --   -0.38288  -0.36868  -0.36479  -0.35528  -0.33962
 Alpha  occ. eigenvalues --   -0.32985  -0.31605  -0.29934  -0.29535  -0.27358
 Alpha  occ. eigenvalues --   -0.25701  -0.23256  -0.23029  -0.18836  -0.17061
 Alpha  occ. eigenvalues --   -0.14902   0.03345
 Alpha virt. eigenvalues --    0.18570   0.22185   0.23090   0.27860   0.30331
 Alpha virt. eigenvalues --    0.31241   0.32321   0.33938   0.35056   0.35913
 Alpha virt. eigenvalues --    0.36313   0.39110   0.43336   0.45470   0.47418
 Alpha virt. eigenvalues --    0.49732   0.50147   0.51688   0.53637   0.54468
 Alpha virt. eigenvalues --    0.55484   0.57863   0.58651   0.63497   0.64135
 Alpha virt. eigenvalues --    0.66467   0.69315   0.69493   0.69881   0.71124
 Alpha virt. eigenvalues --    0.71348   0.72860   0.73214   0.73495   0.74206
 Alpha virt. eigenvalues --    0.75275   0.76247   0.77488   0.78337   0.79477
 Alpha virt. eigenvalues --    0.81879   0.83276   0.84536   0.85671   0.86019
 Alpha virt. eigenvalues --    0.86750   0.87633   0.88084   0.88712   0.89103
 Alpha virt. eigenvalues --    0.90179   0.92314   0.92857   0.93689   0.93723
 Alpha virt. eigenvalues --    0.95127   0.97020   0.98476   0.99486   0.99751
 Alpha virt. eigenvalues --    1.01930   1.02221   1.05307   1.08276   1.09536
 Alpha virt. eigenvalues --    1.13793   1.17102   1.18181   1.20662   1.24170
 Alpha virt. eigenvalues --    1.27648   1.30991   1.32953   1.37618   1.39493
 Alpha virt. eigenvalues --    1.41626   1.46066   1.46470   1.48715   1.50472
 Alpha virt. eigenvalues --    1.51236   1.53614   1.54700   1.62603   1.64007
 Alpha virt. eigenvalues --    1.66980   1.71975   1.73320   1.75934   1.81648
 Alpha virt. eigenvalues --    1.83133   1.86580   1.88330   1.89806   1.91672
 Alpha virt. eigenvalues --    1.93685   1.96987   1.97578   1.97983   1.99243
 Alpha virt. eigenvalues --    1.99969   2.03451   2.04285   2.04584   2.06315
 Alpha virt. eigenvalues --    2.08752   2.10512   2.11058   2.13255   2.13477
 Alpha virt. eigenvalues --    2.14395   2.16321   2.20736   2.23486   2.27291
 Alpha virt. eigenvalues --    2.30731   2.32323   2.34729   2.37107   2.39321
 Alpha virt. eigenvalues --    2.43502   2.46411   2.50136   2.51826   2.53340
 Alpha virt. eigenvalues --    2.54349   2.55386   2.57070   2.59976   2.64592
 Alpha virt. eigenvalues --    2.65494   2.68284   2.71975   2.81593   2.83733
 Alpha virt. eigenvalues --    2.84659   2.87923   2.88765   2.92013   2.93781
 Alpha virt. eigenvalues --    2.96529   2.99441   3.04889   3.06446   3.09232
 Alpha virt. eigenvalues --    3.12874   3.15091   3.17871   3.22237   3.26198
 Alpha virt. eigenvalues --    3.29804   3.35860   3.41929   3.45072   3.60135
 Alpha virt. eigenvalues --    3.61416   3.66439   3.70130   3.72630   3.74707
 Alpha virt. eigenvalues --    3.86908   3.88173   3.91745   4.06500
  Beta  occ. eigenvalues -- -482.91964 -62.50174 -56.30917 -56.30599 -56.30597
  Beta  occ. eigenvalues --  -19.13889 -19.08483 -10.21945 -10.21767 -10.19747
  Beta  occ. eigenvalues --  -10.19096 -10.15821 -10.13331 -10.13051 -10.12492
  Beta  occ. eigenvalues --  -10.12148  -8.67129  -6.49591  -6.48404  -6.48401
  Beta  occ. eigenvalues --   -2.59986  -2.59631  -2.59629  -2.58682  -2.58681
  Beta  occ. eigenvalues --   -1.01980  -0.97795  -0.80256  -0.75307  -0.72381
  Beta  occ. eigenvalues --   -0.68585  -0.65275  -0.61165  -0.54118  -0.53201
  Beta  occ. eigenvalues --   -0.47351  -0.46309  -0.43837  -0.41924  -0.38964
  Beta  occ. eigenvalues --   -0.37973  -0.36420  -0.36025  -0.35227  -0.33594
  Beta  occ. eigenvalues --   -0.32497  -0.31201  -0.29530  -0.29142  -0.26712
  Beta  occ. eigenvalues --   -0.25395  -0.23194  -0.22557  -0.17867  -0.14970
  Beta  occ. eigenvalues --   -0.13864
  Beta virt. eigenvalues --    0.21132   0.22295   0.22928   0.23883   0.27862
  Beta virt. eigenvalues --    0.30398   0.31375   0.32739   0.34164   0.35211
  Beta virt. eigenvalues --    0.36232   0.36519   0.40929   0.43616   0.45723
  Beta virt. eigenvalues --    0.47631   0.49911   0.50323   0.51909   0.53831
  Beta virt. eigenvalues --    0.54582   0.55606   0.58126   0.58799   0.63913
  Beta virt. eigenvalues --    0.64368   0.66816   0.69513   0.69746   0.70135
  Beta virt. eigenvalues --    0.71330   0.71829   0.73108   0.73417   0.73544
  Beta virt. eigenvalues --    0.74496   0.75636   0.76399   0.77667   0.78848
  Beta virt. eigenvalues --    0.79861   0.82214   0.83675   0.84725   0.85900
  Beta virt. eigenvalues --    0.86368   0.86962   0.87799   0.88480   0.89075
  Beta virt. eigenvalues --    0.89444   0.90338   0.92580   0.93144   0.93893
  Beta virt. eigenvalues --    0.94032   0.95398   0.97388   0.98729   0.99652
  Beta virt. eigenvalues --    1.00054   1.02060   1.02574   1.05478   1.08472
  Beta virt. eigenvalues --    1.09789   1.13956   1.17306   1.18360   1.20949
  Beta virt. eigenvalues --    1.24287   1.27927   1.31029   1.33251   1.37751
  Beta virt. eigenvalues --    1.39714   1.41755   1.46328   1.47207   1.48966
  Beta virt. eigenvalues --    1.50923   1.51571   1.54045   1.55136   1.62830
  Beta virt. eigenvalues --    1.64194   1.67141   1.72192   1.73528   1.76199
  Beta virt. eigenvalues --    1.82103   1.83585   1.87012   1.88546   1.90133
  Beta virt. eigenvalues --    1.91723   1.93840   1.97219   1.97977   1.98464
  Beta virt. eigenvalues --    1.99639   2.00489   2.03632   2.04617   2.04724
  Beta virt. eigenvalues --    2.06565   2.08872   2.10840   2.11340   2.13480
  Beta virt. eigenvalues --    2.13823   2.14695   2.16622   2.21161   2.23895
  Beta virt. eigenvalues --    2.27794   2.31066   2.32594   2.35194   2.37696
  Beta virt. eigenvalues --    2.39493   2.43904   2.46956   2.50327   2.52419
  Beta virt. eigenvalues --    2.53696   2.55139   2.55743   2.57662   2.60341
  Beta virt. eigenvalues --    2.64995   2.65884   2.68695   2.72514   2.82015
  Beta virt. eigenvalues --    2.84137   2.84938   2.88486   2.89402   2.92498
  Beta virt. eigenvalues --    2.94216   2.97063   2.99628   3.05197   3.06546
  Beta virt. eigenvalues --    3.09661   3.13053   3.15385   3.18082   3.22333
  Beta virt. eigenvalues --    3.26361   3.29872   3.36127   3.42507   3.45389
  Beta virt. eigenvalues --    3.60286   3.61525   3.66436   3.70127   3.72732
  Beta virt. eigenvalues --    3.74699   3.86977   3.88424   3.91867   4.06498
          Condensed to atoms (all electrons):
               1          2          3          4          5          6
     1  O    7.764725   0.671730  -0.084009   0.001436   0.000623   0.000006
     2  C    0.671730   4.923090   0.343568  -0.037265  -0.031398  -0.003299
     3  C   -0.084009   0.343568   4.785080   0.299770  -0.071319  -0.003989
     4  O    0.001436  -0.037265   0.299770   7.924973   0.362873  -0.060450
     5  C    0.000623  -0.031398  -0.071319   0.362873   5.052909   0.358598
     6  C    0.000006  -0.003299  -0.003989  -0.060450   0.358598   5.283312
     7  C   -0.000000   0.000318   0.000564   0.004575   0.110530   0.184061
     8  C    0.000000  -0.001182  -0.000089   0.000148  -0.165116   0.088121
     9  Br  -0.000000   0.000001  -0.000000   0.000001   0.001425   0.002234
    10  C   -0.000082   0.006200   0.001086   0.004530   0.062495  -0.094348
    11  C    0.003531   0.086171   0.039689  -0.098395   0.186279  -0.018564
    12  C   -0.093462   0.248169  -0.232847   0.009501  -0.028957   0.019578
    13  H    0.009810  -0.011523   0.325426  -0.017764  -0.000530  -0.001496
    14  H    0.007027  -0.049039   0.328029  -0.034272   0.020023   0.009632
    15  H   -0.000000   0.000142  -0.000212   0.000707  -0.083559   0.445845
    16  H    0.000000   0.000002   0.000002  -0.000098   0.016080  -0.064381
    17  H   -0.000007   0.000585  -0.000107  -0.000117   0.017493  -0.001754
    18  H    0.009507  -0.037681   0.013261  -0.000228   0.013901  -0.000042
    19  H    0.006736   0.007531   0.003295   0.003235  -0.021401  -0.000248
               7          8          9         10         11         12
     1  O   -0.000000   0.000000  -0.000000  -0.000082   0.003531  -0.093462
     2  C    0.000318  -0.001182   0.000001   0.006200   0.086171   0.248169
     3  C    0.000564  -0.000089  -0.000000   0.001086   0.039689  -0.232847
     4  O    0.004575   0.000148   0.000001   0.004530  -0.098395   0.009501
     5  C    0.110530  -0.165116   0.001425   0.062495   0.186279  -0.028957
     6  C    0.184061   0.088121   0.002234  -0.094348  -0.018564   0.019578
     7  C    5.209219   0.329294  -0.056154   0.039530  -0.117265  -0.001783
     8  C    0.329294   5.308531   0.177789   0.282618   0.100427   0.019421
     9  Br  -0.056154   0.177789  35.100578  -0.055548   0.002726  -0.000147
    10  C    0.039530   0.282618  -0.055548   5.273020   0.246021  -0.085282
    11  C   -0.117265   0.100427   0.002726   0.246021   5.760198   0.068170
    12  C   -0.001783   0.019421  -0.000147  -0.085282   0.068170   5.387097
    13  H    0.000027  -0.000013   0.000000   0.000178   0.008168  -0.004519
    14  H   -0.000624   0.000066   0.000000  -0.000329  -0.027602   0.025106
    15  H   -0.087994   0.017838  -0.000199  -0.003074   0.022853  -0.000428
    16  H    0.435949  -0.078655  -0.002511   0.014529  -0.001851   0.000008
    17  H    0.014652  -0.081794  -0.002279   0.434158  -0.057068  -0.021978
    18  H   -0.000020   0.000767  -0.000023  -0.011974  -0.036255   0.369566
    19  H   -0.000069  -0.001841   0.000006   0.017620   0.014759   0.142475
              13         14         15         16         17         18
     1  O    0.009810   0.007027  -0.000000   0.000000  -0.000007   0.009507
     2  C   -0.011523  -0.049039   0.000142   0.000002   0.000585  -0.037681
     3  C    0.325426   0.328029  -0.000212   0.000002  -0.000107   0.013261
     4  O   -0.017764  -0.034272   0.000707  -0.000098  -0.000117  -0.000228
     5  C   -0.000530   0.020023  -0.083559   0.016080   0.017493   0.013901
     6  C   -0.001496   0.009632   0.445845  -0.064381  -0.001754  -0.000042
     7  C    0.000027  -0.000624  -0.087994   0.435949   0.014652  -0.000020
     8  C   -0.000013   0.000066   0.017838  -0.078655  -0.081794   0.000767
     9  Br   0.000000   0.000000  -0.000199  -0.002511  -0.002279  -0.000023
    10  C    0.000178  -0.000329  -0.003074   0.014529   0.434158  -0.011974
    11  C    0.008168  -0.027602   0.022853  -0.001851  -0.057068  -0.036255
    12  C   -0.004519   0.025106  -0.000428   0.000008  -0.021978   0.369566
    13  H    0.731771  -0.049312  -0.000093  -0.000000  -0.000003  -0.001299
    14  H   -0.049312   0.765495  -0.000056   0.000003   0.000002   0.000754
    15  H   -0.000093  -0.000056   0.758595  -0.015279   0.000035   0.000013
    16  H   -0.000000   0.000003  -0.015279   0.743726  -0.000366  -0.000001
    17  H   -0.000003   0.000002   0.000035  -0.000366   0.750452   0.006914
    18  H   -0.001299   0.000754   0.000013  -0.000001   0.006914   0.745623
    19  H    0.004220  -0.002444  -0.000007   0.000001   0.000477  -0.064470
              19
     1  O    0.006736
     2  C    0.007531
     3  C    0.003295
     4  O    0.003235
     5  C   -0.021401
     6  C   -0.000248
     7  C   -0.000069
     8  C   -0.001841
     9  Br   0.000006
    10  C    0.017620
    11  C    0.014759
    12  C    0.142475
    13  H    0.004220
    14  H   -0.002444
    15  H   -0.000007
    16  H    0.000001
    17  H    0.000477
    18  H   -0.064470
    19  H    0.904840
          Atomic-Atomic Spin Densities.
               1          2          3          4          5          6
     1  O    0.129489  -0.056630  -0.002778   0.000028   0.000023   0.000006
     2  C   -0.056630   0.233040   0.026100  -0.000473  -0.017094  -0.003389
     3  C   -0.002778   0.026100  -0.002025  -0.001922   0.000472  -0.003084
     4  O    0.000028  -0.000473  -0.001922  -0.005720   0.004852  -0.000733
     5  C    0.000023  -0.017094   0.000472   0.004852  -0.041675  -0.016503
     6  C    0.000006  -0.003389  -0.003084  -0.000733  -0.016503   0.437391
     7  C   -0.000000   0.000295   0.000225   0.000105   0.003938  -0.157504
     8  C    0.000000  -0.000470  -0.000095  -0.000032   0.002482   0.001851
     9  Br   0.000000   0.000000  -0.000000  -0.000000  -0.000055   0.000250
    10  C    0.000029   0.001085  -0.000114   0.000252  -0.010014   0.007901
    11  C   -0.001380   0.089106   0.014882   0.001808  -0.056231  -0.041732
    12  C   -0.002776  -0.068730  -0.005110  -0.004659   0.064304   0.006726
    13  H    0.002619  -0.005153  -0.020263   0.003447  -0.004592  -0.001060
    14  H    0.002490  -0.024077  -0.011392  -0.000485   0.004893   0.006053
    15  H    0.000000  -0.000014  -0.000014   0.000254  -0.001935   0.007680
    16  H   -0.000000   0.000001   0.000001   0.000002   0.000059  -0.001871
    17  H    0.000001  -0.000100   0.000004   0.000002  -0.000281   0.000001
    18  H    0.000718  -0.028907  -0.001208  -0.000124   0.006246   0.000503
    19  H    0.005212   0.009953  -0.001685   0.001714  -0.022815  -0.000374
               7          8          9         10         11         12
     1  O   -0.000000   0.000000   0.000000   0.000029  -0.001380  -0.002776
     2  C    0.000295  -0.000470   0.000000   0.001085   0.089106  -0.068730
     3  C    0.000225  -0.000095  -0.000000  -0.000114   0.014882  -0.005110
     4  O    0.000105  -0.000032  -0.000000   0.000252   0.001808  -0.004659
     5  C    0.003938   0.002482  -0.000055  -0.010014  -0.056231   0.064304
     6  C   -0.157504   0.001851   0.000250   0.007901  -0.041732   0.006726
     7  C    0.336163   0.018555  -0.002618  -0.021124   0.013501  -0.000739
     8  C    0.018555  -0.081039   0.007952  -0.060071   0.011248   0.003993
     9  Br  -0.002618   0.007952  -0.005987  -0.000700   0.000148   0.000000
    10  C   -0.021124  -0.060071  -0.000700   0.557885  -0.158515  -0.034462
    11  C    0.013501   0.011248   0.000148  -0.158515   0.478175  -0.141450
    12  C   -0.000739   0.003993   0.000000  -0.034462  -0.141450   0.251484
    13  H    0.000022  -0.000016  -0.000000   0.000115   0.007696  -0.014959
    14  H   -0.000390   0.000108   0.000000   0.000125  -0.021629   0.017306
    15  H   -0.001106  -0.000107   0.000004  -0.000115  -0.000441   0.000052
    16  H    0.006471  -0.001396   0.000317   0.000071  -0.000086  -0.000006
    17  H   -0.000325  -0.001009   0.000420   0.008706  -0.002429   0.000957
    18  H   -0.000134   0.000890  -0.000001  -0.005446  -0.033858   0.056066
    19  H   -0.000150  -0.001446   0.000001   0.025019   0.023925  -0.182388
              13         14         15         16         17         18
     1  O    0.002619   0.002490   0.000000  -0.000000   0.000001   0.000718
     2  C   -0.005153  -0.024077  -0.000014   0.000001  -0.000100  -0.028907
     3  C   -0.020263  -0.011392  -0.000014   0.000001   0.000004  -0.001208
     4  O    0.003447  -0.000485   0.000254   0.000002   0.000002  -0.000124
     5  C   -0.004592   0.004893  -0.001935   0.000059  -0.000281   0.006246
     6  C   -0.001060   0.006053   0.007680  -0.001871   0.000001   0.000503
     7  C    0.000022  -0.000390  -0.001106   0.006471  -0.000325  -0.000134
     8  C   -0.000016   0.000108  -0.000107  -0.001396  -0.001009   0.000890
     9  Br  -0.000000   0.000000   0.000004   0.000317   0.000420  -0.000001
    10  C    0.000115   0.000125  -0.000115   0.000071   0.008706  -0.005446
    11  C    0.007696  -0.021629  -0.000441  -0.000086  -0.002429  -0.033858
    12  C   -0.014959   0.017306   0.000052  -0.000006   0.000957   0.056066
    13  H    0.071561  -0.028167  -0.000018   0.000000  -0.000001  -0.000860
    14  H   -0.028167   0.069306   0.000056  -0.000001   0.000003   0.001522
    15  H   -0.000018   0.000056  -0.017668   0.000371  -0.000000   0.000002
    16  H    0.000000  -0.000001   0.000371  -0.014581   0.000006  -0.000000
    17  H   -0.000001   0.000003  -0.000000   0.000006  -0.021913   0.000147
    18  H   -0.000860   0.001522   0.000002  -0.000000   0.000147   0.076302
    19  H    0.005131  -0.002813  -0.000010   0.000001  -0.000097  -0.054611
              19
     1  O    0.005212
     2  C    0.009953
     3  C   -0.001685
     4  O    0.001714
     5  C   -0.022815
     6  C   -0.000374
     7  C   -0.000150
     8  C   -0.001446
     9  Br   0.000001
    10  C    0.025019
    11  C    0.023925
    12  C   -0.182388
    13  H    0.005131
    14  H   -0.002813
    15  H   -0.000010
    16  H    0.000001
    17  H   -0.000097
    18  H   -0.054611
    19  H    0.273956
 Mulliken charges and spin densities:
               1          2
     1  O   -0.297571   0.077052
     2  C   -0.116120   0.154543
     3  C    0.252804  -0.008007
     4  O   -0.363159  -0.001684
     5  C    0.199052  -0.083926
     6  C   -0.142817   0.242111
     7  C   -0.064809   0.195185
     8  C    0.003668  -0.098601
     9  Br  -0.167899  -0.000269
    10  C   -0.131348   0.310627
    11  C   -0.181993   0.182738
    12  C    0.180310  -0.054390
    13  H    0.006952   0.015502
    14  H    0.007543   0.012908
    15  H   -0.055128  -0.013010
    16  H   -0.047158  -0.010641
    17  H   -0.059298  -0.015909
    18  H   -0.008312   0.017248
    19  H   -0.014717   0.078522
 Sum of Mulliken charges =  -1.00000   1.00000
 Mulliken charges and spin densities with hydrogens summed into heavy atoms:
               1          2
     1  O   -0.297571   0.077052
     2  C   -0.116120   0.154543
     3  C    0.267298   0.020404
     4  O   -0.363159  -0.001684
     5  C    0.199052  -0.083926
     6  C   -0.197944   0.229101
     7  C   -0.111967   0.184544
     8  C    0.003668  -0.098601
     9  Br  -0.167899  -0.000269
    10  C   -0.190645   0.294719
    11  C   -0.181993   0.182738
    12  C    0.157281   0.041380
 Electronic spatial extent (au):  <R**2>=           3595.0092
 Charge=             -1.0000 electrons
 Dipole moment (field-independent basis, Debye):
    X=             -3.4845    Y=              0.6744    Z=              0.0334  Tot=              3.5494
 Quadrupole moment (field-independent basis, Debye-Ang):
   XX=           -124.0297   YY=            -94.5533   ZZ=            -87.7787
   XY=              9.0960   XZ=              2.0500   YZ=             -2.4090
 Traceless Quadrupole moment (field-independent basis, Debye-Ang):
   XX=            -21.9091   YY=              7.5673   ZZ=             14.3418
   XY=              9.0960   XZ=              2.0500   YZ=             -2.4090
 Octapole moment (field-independent basis, Debye-Ang**2):
  XXX=           -180.8866  YYY=            -15.1942  ZZZ=             -6.7697  XYY=            -58.0606
  XXY=             47.9974  XXZ=             11.6468  XZZ=            -26.2466  YZZ=             -6.2353
  YYZ=             -1.6102  XYZ=             -8.5194
 Hexadecapole moment (field-independent basis, Debye-Ang**3):
 XXXX=          -3893.2960 YYYY=           -754.9963 ZZZZ=           -152.2053 XXXY=            288.8589
 XXXZ=             78.4802 YYYX=             59.8355 YYYZ=             -0.6976 ZZZX=              2.1077
 ZZZY=              8.4358 XXYY=           -792.7467 XXZZ=           -586.7752 YYZZ=           -158.5154
 XXYZ=            -34.0755 YYXZ=              9.1557 ZZXY=             16.5814
 N-N= 9.056181081783D+02 E-N=-9.139177682760D+03  KE= 3.063709193989D+03
 There are a total of      435278 grid points.
 ElSum from          density=      112.9999979652
 ElSum from atomic densities=      111.9999738723
 Hirshfeld populations at iteration   1 (CA, CB, DipXYZ):
               1          2          3          4          5
     1  O    4.209066   4.130543  -0.106835   0.092274   0.040068
     2  C    3.001200   2.888650  -0.012706   0.024382   0.012954
     3  C    3.001185   2.986704  -0.050831   0.032771   0.047746
     4  O    4.085687   4.087077  -0.041890  -0.146556  -0.085845
     5  C    2.980724   2.974075   0.128401   0.032377   0.020014
     6  C    3.150829   2.988503  -0.014988   0.014141   0.007265
     7  C    3.133425   2.993209   0.017018   0.038416  -0.001940
     8  C    3.014235   3.015457  -0.082312  -0.033099  -0.006738
     9  Br  17.569494  17.570311   0.148141   0.043304   0.010135
    10  C    3.164312   2.973788   0.039219  -0.008671   0.000522
    11  C    3.105034   2.971192   0.022346  -0.044567   0.033165
    12  C    3.054669   3.024452  -0.006174   0.006505  -0.009442
    13  H    0.492345   0.481965   0.122480   0.040446   0.038391
    14  H    0.497274   0.483862   0.000601   0.012775  -0.125848
    15  H    0.504012   0.489905   0.024904   0.139547  -0.007531
    16  H    0.503004   0.491669  -0.087948   0.108843  -0.016689
    17  H    0.507411   0.489944  -0.012686  -0.136592   0.010450
    18  H    0.497727   0.483377  -0.027195  -0.122741  -0.030689
    19  H    0.528366   0.475316   0.023581   0.010117   0.098571
       Tot  56.999999  55.999999   0.083126   0.103674   0.034558

 Dip from Atomic Chgs             -1.454047   0.161613  -0.021411
         Total Dipole             -1.370920   0.265287   0.013147

 Hirshfeld charges, spin densities, dipoles, and CM5 charges using IRadAn=      5:
              Q-H        S-H        Dx         Dy         Dz        Q-CM5   
     1  O   -0.339609   0.078523  -0.106835   0.092274   0.040068  -0.390158
     2  C    0.110150   0.112550  -0.012706   0.024382   0.012954   0.134440
     3  C    0.012111   0.014481  -0.050831   0.032771   0.047746  -0.056737
     4  O   -0.172764  -0.001391  -0.041890  -0.146556  -0.085845  -0.253286
     5  C    0.045201   0.006648   0.128401   0.032377   0.020014   0.064915
     6  C   -0.139332   0.162327  -0.014988   0.014141   0.007265  -0.188579
     7  C   -0.126634   0.140216   0.017018   0.038416  -0.001940  -0.179032
     8  C   -0.029692  -0.001222  -0.082312  -0.033099  -0.006738  -0.050874
     9  Br  -0.139805  -0.000818   0.148141   0.043304   0.010135  -0.124728
    10  C   -0.138101   0.190524   0.039219  -0.008671   0.000522  -0.188244
    11  C   -0.076225   0.133842   0.022346  -0.044567   0.033165  -0.084812
    12  C   -0.079121   0.030217  -0.006174   0.006505  -0.009442  -0.170258
    13  H    0.025690   0.010380   0.122480   0.040446   0.038391   0.090974
    14  H    0.018865   0.013412   0.000601   0.012775  -0.125848   0.082382
    15  H    0.006083   0.014106   0.024904   0.139547  -0.007531   0.063913
    16  H    0.005327   0.011335  -0.087948   0.108843  -0.016689   0.061126
    17  H    0.002645   0.017467  -0.012686  -0.136592   0.010450   0.059127
    18  H    0.018895   0.014350  -0.027195  -0.122741  -0.030689   0.076688
    19  H   -0.003683   0.053050   0.023581   0.010117   0.098571   0.053147
       Tot  -0.999998   0.999999   0.083126   0.103674   0.034558  -0.999998
 Hirshfeld charges and spin densities with hydrogens summed into heavy atoms:
              Q-H        S-H       Q-CM5   
     1  O   -0.339609   0.078523  -0.390158
     2  C    0.110150   0.112550   0.134440
     3  C    0.056666   0.038274   0.116618
     4  O   -0.172764  -0.001391  -0.253286
     5  C    0.045201   0.006648   0.064915
     6  C   -0.133249   0.176433  -0.124666
     7  C   -0.121308   0.151550  -0.117906
     8  C   -0.029692  -0.001222  -0.050874
     9  Br  -0.139805  -0.000818  -0.124728
    10  C   -0.135455   0.207992  -0.129117
    11  C   -0.076225   0.133842  -0.084812
    12  C   -0.063908   0.097617  -0.040423
 
 EQQ= 0.896782821147E-01 EQD=-0.297172910223E-01 EDD=-0.179959389593E-02
 EQQ+QD+DD= 0.581613971965E-01
 
                          Isotropic Fermi Contact Couplings
        Atom                 a.u.       MegaHertz       Gauss      10(-4) cm-1
     1  O(17)              0.03162     -19.16906      -6.84000      -6.39411
     2  C(13)              0.03643      40.95222      14.61277      13.66019
     3  C(13)             -0.01253     -14.09028      -5.02776      -4.70001
     4  O(17)             -0.00408       2.47349       0.88260       0.82507
     5  C(13)             -0.02753     -30.95179     -11.04437     -10.32440
     6  C(13)              0.03185      35.80213      12.77509      11.94231
     7  C(13)              0.02488      27.97526       9.98227       9.33154
     8  C(13)             -0.03347     -37.62757     -13.42645     -12.55121
     9  Br(79)            -0.00376      -4.22675      -1.50821      -1.40989
    10  C(13)              0.04043      45.45661      16.22005      15.16269
    11  C(13)              0.02530      28.44532      10.15000       9.48834
    12  C(13)             -0.02343     -26.34299      -9.39983      -8.78708
    13  H(1)               0.00429      19.19692       6.84994       6.40340
    14  H(1)               0.00466      20.81568       7.42755       6.94337
    15  H(1)              -0.00356     -15.91424      -5.67860      -5.30842
    16  H(1)              -0.00297     -13.26549      -4.73346      -4.42489
    17  H(1)              -0.00428     -19.14609      -6.83180      -6.38645
    18  H(1)               0.00645      28.84611      10.29301       9.62203
    19  H(1)               0.02366     105.76548      37.73975      35.27957
 --------------------------------------------------------
       Center         ----  Spin Dipole Couplings  ----
                      3XX-RR        3YY-RR        3ZZ-RR
 --------------------------------------------------------
     1   Atom       -0.126469     -0.169038      0.295507
     2   Atom       -0.071284     -0.087565      0.158848
     3   Atom        0.001769      0.001236     -0.003004
     4   Atom        0.014341      0.008900     -0.023241
     5   Atom        0.027395      0.033522     -0.060917
     6   Atom       -0.125590     -0.121152      0.246742
     7   Atom       -0.101282     -0.105760      0.207043
     8   Atom        0.031974      0.039631     -0.071605
     9   Atom        0.038507      0.007013     -0.045519
    10   Atom       -0.149917     -0.147072      0.296988
    11   Atom       -0.101828     -0.109221      0.211049
    12   Atom        0.005935      0.003506     -0.009441
    13   Atom        0.000283      0.002216     -0.002499
    14   Atom       -0.000110      0.001966     -0.001856
    15   Atom       -0.017295      0.017184      0.000112
    16   Atom        0.001557     -0.001077     -0.000480
    17   Atom       -0.019532      0.019255      0.000278
    18   Atom        0.001485      0.001785     -0.003270
    19   Atom        0.001153     -0.001515      0.000362
 --------------------------------------------------------
                        XY            XZ            YZ
 --------------------------------------------------------
     1   Atom        0.002499      0.154058      0.012518
     2   Atom        0.003472      0.067626      0.032070
     3   Atom        0.002046     -0.001283     -0.001175
     4   Atom        0.000259     -0.004104      0.001666
     5   Atom       -0.004839      0.005035     -0.009833
     6   Atom       -0.000697     -0.030078      0.033554
     7   Atom       -0.003652     -0.025851      0.023963
     8   Atom       -0.003859      0.010841     -0.009030
     9   Atom        0.011632      0.005308     -0.003676
    10   Atom        0.000222     -0.039969      0.029830
    11   Atom        0.001004      0.001037      0.017411
    12   Atom       -0.003094     -0.001795     -0.002476
    13   Atom        0.002977     -0.000326     -0.000207
    14   Atom        0.001410     -0.001717     -0.003205
    15   Atom        0.007849     -0.002530     -0.001159
    16   Atom       -0.016553      0.001587     -0.001437
    17   Atom        0.009416     -0.003045      0.001324
    18   Atom       -0.001476     -0.000092     -0.000387
    19   Atom       -0.001150      0.000764     -0.002605
 --------------------------------------------------------


 ---------------------------------------------------------------------------------
              Anisotropic Spin Dipole Couplings in Principal Axis System
 ---------------------------------------------------------------------------------

       Atom             a.u.   MegaHertz   Gauss  10(-4) cm-1        Axes

              Baa    -0.1770    12.809     4.571     4.273  0.9314  0.1926 -0.3088
     1 O(17)  Bbb    -0.1691    12.233     4.365     4.080 -0.1906  0.9810  0.0368
              Bcc     0.3461   -25.042    -8.936    -8.353  0.3100  0.0246  0.9504
 
              Baa    -0.0956   -12.831    -4.578    -4.280  0.6012  0.7572 -0.2552
     2 C(13)  Bbb    -0.0854   -11.461    -4.090    -3.823  0.7561 -0.6425 -0.1250
              Bcc     0.1810    24.292     8.668     8.103  0.2586  0.1178  0.9588
 
              Baa    -0.0034    -0.461    -0.165    -0.154  0.1729  0.1684  0.9704
     3 C(13)  Bbb    -0.0006    -0.075    -0.027    -0.025 -0.6635  0.7481 -0.0116
              Bcc     0.0040     0.536     0.191     0.179  0.7279  0.6419 -0.2411
 
              Baa    -0.0238     1.720     0.614     0.574  0.1073 -0.0515  0.9929
     4 O(17)  Bbb     0.0090    -0.650    -0.232    -0.217 -0.0080  0.9986  0.0526
              Bcc     0.0148    -1.070    -0.382    -0.357  0.9942  0.0135 -0.1067
 
              Baa    -0.0622    -8.341    -2.976    -2.782 -0.0505  0.0996  0.9937
     5 C(13)  Bbb     0.0247     3.319     1.184     1.107  0.8776  0.4793 -0.0034
              Bcc     0.0374     5.022     1.792     1.675 -0.4767  0.8720 -0.1116
 
              Baa    -0.1288   -17.289    -6.169    -5.767  0.9153 -0.3881  0.1080
     6 C(13)  Bbb    -0.1233   -16.548    -5.905    -5.520  0.3950  0.9173 -0.0511
              Bcc     0.2522    33.838    12.074    11.287 -0.0792  0.0894  0.9928
 
              Baa    -0.1082   -14.516    -5.180    -4.842  0.3328  0.9420 -0.0443
     7 C(13)  Bbb    -0.1029   -13.803    -4.925    -4.604  0.9393 -0.3270  0.1036
              Bcc     0.2110    28.320    10.105     9.446 -0.0831  0.0761  0.9936
 
              Baa    -0.0734    -9.847    -3.514    -3.285 -0.0993  0.0759  0.9922
     8 C(13)  Bbb     0.0307     4.124     1.471     1.376  0.8942  0.4441  0.0555
              Bcc     0.0426     5.723     2.042     1.909 -0.4364  0.8927 -0.1120
 
              Baa    -0.0462    -6.201    -2.213    -2.068 -0.0739  0.0847  0.9937
     9 Br(79) Bbb     0.0037     0.499     0.178     0.166 -0.3012  0.9480 -0.1032
              Bcc     0.0425     5.702     2.035     1.902  0.9507  0.3069  0.0445
 
              Baa    -0.1549   -20.781    -7.415    -6.932  0.8922 -0.4387  0.1079
    10 C(13)  Bbb    -0.1476   -19.812    -7.069    -6.608  0.4431  0.8962 -0.0203
              Bcc     0.3025    40.592    14.484    13.540 -0.0878  0.0659  0.9940
 
              Baa    -0.1103   -14.797    -5.280    -4.936 -0.1114  0.9923 -0.0534
    11 C(13)  Bbb    -0.1017   -13.651    -4.871    -4.553  0.9938  0.1111 -0.0095
              Bcc     0.2120    28.448    10.151     9.489  0.0035  0.0541  0.9985
 
              Baa    -0.0102    -1.375    -0.491    -0.459  0.1470  0.2073  0.9672
    12 C(13)  Bbb     0.0022     0.295     0.105     0.098  0.5416  0.8013 -0.2540
              Bcc     0.0080     1.080     0.385     0.360  0.8277 -0.5612 -0.0055
 
              Baa    -0.0025    -1.359    -0.485    -0.453  0.1976 -0.0811  0.9769
    13 H(1)   Bbb    -0.0019    -0.987    -0.352    -0.329  0.7843 -0.5848 -0.2071
              Bcc     0.0044     2.347     0.837     0.783  0.5881  0.8071 -0.0520
 
              Baa    -0.0039    -2.067    -0.738    -0.690  0.2407  0.4217  0.8742
    14 H(1)   Bbb    -0.0008    -0.438    -0.156    -0.146  0.8838 -0.4675 -0.0178
              Bcc     0.0047     2.505     0.894     0.836  0.4012  0.7769 -0.4852
 
              Baa    -0.0193   -10.274    -3.666    -3.427  0.9719 -0.2057  0.1146
    15 H(1)   Bbb     0.0002     0.118     0.042     0.039 -0.0933  0.1108  0.9895
              Bcc     0.0190    10.156     3.624     3.388  0.2162  0.9723 -0.0885
 
              Baa    -0.0164    -8.732    -3.116    -2.913  0.6785  0.7346 -0.0014
    16 H(1)   Bbb    -0.0007    -0.395    -0.141    -0.132 -0.0878  0.0830  0.9927
              Bcc     0.0171     9.127     3.257     3.044  0.7293 -0.6735  0.1208
 
              Baa    -0.0222   -11.830    -4.221    -3.946  0.9640 -0.2237  0.1439
    17 H(1)   Bbb     0.0007     0.392     0.140     0.131 -0.1468  0.0039  0.9892
              Bcc     0.0214    11.438     4.081     3.815  0.2219  0.9746  0.0291
 
              Baa    -0.0033    -1.765    -0.630    -0.589  0.0465  0.0891  0.9949
    18 H(1)   Bbb     0.0002     0.097     0.035     0.032  0.7436  0.6620 -0.0940
              Bcc     0.0031     1.668     0.595     0.557 -0.6671  0.7442 -0.0355
 
              Baa    -0.0034    -1.816    -0.648    -0.606  0.1168  0.8278  0.5488
    19 H(1)   Bbb     0.0003     0.177     0.063     0.059  0.8173  0.2338 -0.5266
              Bcc     0.0031     1.639     0.585     0.547  0.5642 -0.5100  0.6493
 

 ---------------------------------------------------------------------------------

 Running external command "gaunbo6 R"
         input file       "/home/rpaton/arbr500/dzvp/fukui/Gau-1921563.EIn"
         output file      "/home/rpaton/arbr500/dzvp/fukui/Gau-1921563.EOu"
         message file     "/home/rpaton/arbr500/dzvp/fukui/Gau-1921563.EMs"
         fchk file        "/home/rpaton/arbr500/dzvp/fukui/Gau-1921563.EFC"
         mat. el file     "/home/rpaton/arbr500/dzvp/fukui/Gau-1921563.EUF"

 Writing WrtUnf unformatted file "/home/rpaton/arbr500/dzvp/fukui/Gau-1921563.EUF"
 Gaussian matrix elements                                         Version   2 NLab=11 Len12L=8 Len4L=8
 Write SHELL TO ATOM MAP                   from file      0 offset           0 length                  99 to matrix element file.
 Write SHELL TYPES                         from file      0 offset           0 length                  99 to matrix element file.
 Write NUMBER OF PRIMITIVES PER SHELL      from file      0 offset           0 length                  99 to matrix element file.
 Write PRIMITIVE EXPONENTS                 from file      0 offset           0 length                 197 to matrix element file.
 Write CONTRACTION COEFFICIENTS            from file      0 offset           0 length                 197 to matrix element file.
 Write P(S=P) CONTRACTION COEFFICIENTS     from file      0 offset           0 length                 197 to matrix element file.
 Write COORDINATES OF EACH SHELL           from file      0 offset           0 length                 297 to matrix element file.
 Write BONDS PER ATOM                      from file      0 offset           0 length                  19 to matrix element file.
 Write BONDED ATOMS                        from file      0 offset           0 length                  40 to matrix element file.
 Write BOND TYPES                          from file      0 offset           0 length                  40 to matrix element file.
 Write ONIOM CHARGE/MULT                   from file      0 offset           0 length                  32 to matrix element file.
 Write ONIOM ATOM LAYERS                   from file      0 offset           0 length                  19 to matrix element file.
 Write ONIOM ATOM MODIFIERS                from file      0 offset           0 length                  19 to matrix element file.
 Write ONIOM ATOM TYPES                    from file      0 offset           0 length                  19 to matrix element file.
 Write ONIOM LINK ATOMS                    from file      0 offset           0 length                  19 to matrix element file.
 Write ONIOM LINK CHARGES                  from file      0 offset           0 length                  19 to matrix element file.
 Write ONIOM LINK DISTANCES                from file      0 offset           0 length                  76 to matrix element file.
 Write SYMINF INTS                         from file      0 offset           0 length                  26 to matrix element file.
 Write ROTTR TO SO                         from file      0 offset           0 length                  12 to matrix element file.
 Write GAUSSIAN SCALARS                    from file    501 offset           0 to matrix element file.
 Write OPTIMIZATION FLAGS                  from file      0 offset           0 length                  19 to matrix element file.
 Write INTEGER ISO                         from file      0 offset           0 length                  19 to matrix element file.
 Write INTEGER SPIN                        from file      0 offset           0 length                  19 to matrix element file.
 Write REAL ZEFFECTIVE                     from file      0 offset           0 length                  19 to matrix element file.
 Write REAL QUADRUPOLEMOMENT               from file      0 offset           0 length                  19 to matrix element file.
 Write REAL GFACTOR                        from file      0 offset           0 length                  19 to matrix element file.
 Write REAL ZNUCLEAR                       from file      0 offset           0 length                  19 to matrix element file.
 Write MULLIKEN CHARGES                    from file      0 offset           0 length                  19 to matrix element file.
 Write TYPE 6 CHARGES                      from file      0 offset           0 length                  19 to matrix element file.
 Write TYPE 7 CHARGES                      from file      0 offset           0 length                  19 to matrix element file.
 Write NUCLEAR GRADIENT                    from file  10584 offset           0 length                  57 to matrix element file.
 Array NUCLEAR FORCE CONSTANTS              on  file  10585 does not exist.
 Write ELECTRIC DIPOLE MOMENT              from file      0 offset           0 length                   3 to matrix element file.
 Write NON-ADIABATIC COUPLING              from file  10810 offset           0 length                  57 to matrix element file.
 Write FINITE EM FIELD                     from file  10521 offset           0 length                  35 to matrix element file.
 Write OVERLAP                             from file  10514 offset           0 length               24531 to matrix element file.
 Write CORE HAMILTONIAN ALPHA              from file  10515 offset           0 length               24531 to matrix element file.
 Write CORE HAMILTONIAN BETA               from file  10515 offset       24531 length               24531 to matrix element file.
 Write KINETIC ENERGY                      from file  10516 offset           0 length               24531 to matrix element file.
 Write ORTHOGONAL BASIS                    from file  10685 offset           0 length               48841 to matrix element file.
 Write DIPOLE INTEGRALS                    from file  10518 offset           0 length               73593 to matrix element file.
 Array DIP VEL INTEGRALS                    on  file  10572 does not exist.
 Array R X DEL INTEGRALS                    on  file  10572 does not exist.
 Write ALPHA ORBITAL ENERGIES              from file      0 offset           0 length                 221 to matrix element file.
 Write BETA ORBITAL ENERGIES               from file      0 offset           0 length                 221 to matrix element file.
 Write ALPHA MO COEFFICIENTS               from file  10524 offset           0 length               48841 to matrix element file.
 Write BETA MO COEFFICIENTS                from file  10526 offset           0 length               48841 to matrix element file.
 Write ALPHA DENSITY MATRIX                from file      0 offset           0 length               24531 to matrix element file.
 Write BETA DENSITY MATRIX                 from file      0 offset           0 length               24531 to matrix element file.
 Write ALPHA FOCK MATRIX                   from file  10536 offset           0 length               24531 to matrix element file.
 Write BETA FOCK MATRIX                    from file  10538 offset           0 length               24531 to matrix element file.
 Write ENERGY-WEIGHTED DENSITY             from file  10571 offset           0 length               24531 to matrix element file.
 Write ALPHA SCF DENSITY MATRIX            from file      0 offset           0 length               24531 to matrix element file.
 Write BETA SCF DENSITY MATRIX             from file      0 offset           0 length               24531 to matrix element file.
 No 2e integrals to process.
 Perform NBO analysis...

 *********************************** NBO 7.0 ***********************************
             N A T U R A L   A T O M I C   O R B I T A L   A N D
          N A T U R A L   B O N D   O R B I T A L   A N A L Y S I S
 **************************** Robert Paton (I101709) ***************************
  (c) Copyright 1996-2019 Board of Regents of the University of Wisconsin System
      on behalf of the Theoretical Chemistry Institute.  All rights reserved.

          Cite this program [NBO 7.0.5 (4-Jun-2019)] as:

          NBO 7.0.  E. D. Glendening, J. K. Badenhoop, A. E. Reed,
          J. E. Carpenter, J. A. Bohmann, C. M. Morales, P. Karafiloglou,
          C. R. Landis, and F. Weinhold, Theoretical Chemistry Institute,
          University of Wisconsin, Madison, WI (2018)

 Filename set to /home/rpaton/arbr500/dzvp/fukui/Gau-1921563

 Job title:  arbr47_wb97xd_redcreated by GaussianPrep


 NATURAL POPULATIONS:  Natural atomic orbital occupancies

  NAO Atom No lang   Type(AO)    Occupancy     Spin
 -----------------------------------------------------
   1    O  1  s      Cor( 1s)     1.99996     0.00000
   2    O  1  s      Val( 2s)     1.67445     0.00146
   3    O  1  s      Ryd( 3s)     0.00110     0.00001
   4    O  1  px     Val( 2p)     1.66845     0.00750
   5    O  1  px     Ryd( 3p)     0.00194     0.00038
   6    O  1  py     Val( 2p)     1.77823    -0.00035
   7    O  1  py     Ryd( 3p)     0.00274     0.00001
   8    O  1  pz     Val( 2p)     1.51725     0.06990
   9    O  1  pz     Ryd( 3p)     0.00224     0.00148
  10    O  1  dxy    Ryd( 3d)     0.00233    -0.00001
  11    O  1  dxz    Ryd( 3d)     0.00139    -0.00003
  12    O  1  dyz    Ryd( 3d)     0.00117    -0.00003
  13    O  1  dx2y2  Ryd( 3d)     0.00196    -0.00002
  14    O  1  dz2    Ryd( 3d)     0.00099    -0.00001

  15    C  2  s      Cor( 1s)     1.99995     0.00000
  16    C  2  s      Val( 2s)     0.81776     0.00698
  17    C  2  s      Ryd( 3s)     0.00583     0.00025
  18    C  2  px     Val( 2p)     0.84883     0.01539
  19    C  2  px     Ryd( 3p)     0.01317     0.00065
  20    C  2  py     Val( 2p)     0.91315     0.00335
  21    C  2  py     Ryd( 3p)     0.01021    -0.00004
  22    C  2  pz     Val( 2p)     0.85051     0.10949
  23    C  2  pz     Ryd( 3p)     0.00503     0.00085
  24    C  2  dxy    Ryd( 3d)     0.00184     0.00002
  25    C  2  dxz    Ryd( 3d)     0.00194     0.00010
  26    C  2  dyz    Ryd( 3d)     0.00139     0.00005
  27    C  2  dx2y2  Ryd( 3d)     0.00399     0.00007
  28    C  2  dz2    Ryd( 3d)     0.00127    -0.00005

  29    C  3  s      Cor( 1s)     1.99994     0.00000
  30    C  3  s      Val( 2s)     1.02187    -0.00203
  31    C  3  s      Ryd( 3s)     0.00225    -0.00002
  32    C  3  px     Val( 2p)     0.98608    -0.00106
  33    C  3  px     Ryd( 3p)     0.00589     0.00010
  34    C  3  py     Val( 2p)     0.99980    -0.00390
  35    C  3  py     Ryd( 3p)     0.00485     0.00021
  36    C  3  pz     Val( 2p)     1.10269    -0.00232
  37    C  3  pz     Ryd( 3p)     0.00300    -0.00001
  38    C  3  dxy    Ryd( 3d)     0.00141     0.00004
  39    C  3  dxz    Ryd( 3d)     0.00122     0.00000
  40    C  3  dyz    Ryd( 3d)     0.00097     0.00020
  41    C  3  dx2y2  Ryd( 3d)     0.00150     0.00000
  42    C  3  dz2    Ryd( 3d)     0.00161     0.00003

  43    O  4  s      Cor( 1s)     1.99995     0.00000
  44    O  4  s      Val( 2s)     1.56475    -0.00027
  45    O  4  s      Ryd( 3s)     0.00046    -0.00001
  46    O  4  px     Val( 2p)     1.42321     0.00068
  47    O  4  px     Ryd( 3p)     0.00093    -0.00001
  48    O  4  py     Val( 2p)     1.79772    -0.00033
  49    O  4  py     Ryd( 3p)     0.00298     0.00004
  50    O  4  pz     Val( 2p)     1.79558    -0.00301
  51    O  4  pz     Ryd( 3p)     0.00186    -0.00007
  52    O  4  dxy    Ryd( 3d)     0.00125     0.00000
  53    O  4  dxz    Ryd( 3d)     0.00074    -0.00001
  54    O  4  dyz    Ryd( 3d)     0.00124     0.00002
  55    O  4  dx2y2  Ryd( 3d)     0.00103     0.00000
  56    O  4  dz2    Ryd( 3d)     0.00088     0.00000

  57    C  5  s      Cor( 1s)     1.99995     0.00000
  58    C  5  s      Val( 2s)     0.79539    -0.00465
  59    C  5  s      Ryd( 3s)     0.00208    -0.00004
  60    C  5  px     Val( 2p)     0.78450    -0.00243
  61    C  5  px     Ryd( 3p)     0.00704     0.00003
  62    C  5  py     Val( 2p)     1.06226    -0.00554
  63    C  5  py     Ryd( 3p)     0.00643     0.00005
  64    C  5  pz     Val( 2p)     0.98709    -0.03978
  65    C  5  pz     Ryd( 3p)     0.00212    -0.00004
  66    C  5  dxy    Ryd( 3d)     0.00185     0.00000
  67    C  5  dxz    Ryd( 3d)     0.00181     0.00010
  68    C  5  dyz    Ryd( 3d)     0.00154     0.00077
  69    C  5  dx2y2  Ryd( 3d)     0.00188    -0.00001
  70    C  5  dz2    Ryd( 3d)     0.00088     0.00004

  71    C  6  s      Cor( 1s)     1.99995     0.00000
  72    C  6  s      Val( 2s)     0.92193     0.00743
  73    C  6  s      Ryd( 3s)     0.00114     0.00007
  74    C  6  px     Val( 2p)     1.07361     0.00364
  75    C  6  px     Ryd( 3p)     0.00540     0.00010
  76    C  6  py     Val( 2p)     1.17497     0.00612
  77    C  6  py     Ryd( 3p)     0.00539     0.00012
  78    C  6  pz     Val( 2p)     1.18921     0.19658
  79    C  6  pz     Ryd( 3p)     0.00808     0.00688
  80    C  6  dxy    Ryd( 3d)     0.00087     0.00000
  81    C  6  dxz    Ryd( 3d)     0.00071     0.00014
  82    C  6  dyz    Ryd( 3d)     0.00039    -0.00005
  83    C  6  dx2y2  Ryd( 3d)     0.00065     0.00000
  84    C  6  dz2    Ryd( 3d)     0.00063    -0.00011

  85    C  7  s      Cor( 1s)     1.99995     0.00000
  86    C  7  s      Val( 2s)     0.91917     0.00591
  87    C  7  s      Ryd( 3s)     0.00104     0.00002
  88    C  7  px     Val( 2p)     1.13652     0.00266
  89    C  7  px     Ryd( 3p)     0.00600    -0.00002
  90    C  7  py     Val( 2p)     1.11965     0.00460
  91    C  7  py     Ryd( 3p)     0.00488     0.00009
  92    C  7  pz     Val( 2p)     1.13792     0.16049
  93    C  7  pz     Ryd( 3p)     0.00591     0.00456
  94    C  7  dxy    Ryd( 3d)     0.00074     0.00000
  95    C  7  dxz    Ryd( 3d)     0.00065     0.00010
  96    C  7  dyz    Ryd( 3d)     0.00056     0.00008
  97    C  7  dx2y2  Ryd( 3d)     0.00088     0.00000
  98    C  7  dz2    Ryd( 3d)     0.00067    -0.00010

  99    C  8  s      Cor( 1s)     1.99997     0.00000
 100    C  8  s      Val( 2s)     0.91612    -0.00576
 101    C  8  s      Ryd( 3s)     0.00081     0.00001
 102    C  8  px     Val( 2p)     0.94925    -0.00346
 103    C  8  px     Ryd( 3p)     0.00651     0.00008
 104    C  8  py     Val( 2p)     1.10334    -0.00648
 105    C  8  py     Ryd( 3p)     0.00586    -0.00001
 106    C  8  pz     Val( 2p)     1.11684    -0.04958
 107    C  8  pz     Ryd( 3p)     0.00122     0.00016
 108    C  8  dxy    Ryd( 3d)     0.00139     0.00000
 109    C  8  dxz    Ryd( 3d)     0.00079     0.00009
 110    C  8  dyz    Ryd( 3d)     0.00142     0.00065
 111    C  8  dx2y2  Ryd( 3d)     0.00168     0.00000
 112    C  8  dz2    Ryd( 3d)     0.00095     0.00005

 113   Br  9  s      Cor( 1s)     2.00000     0.00000
 114   Br  9  s      Cor( 2s)     2.00000     0.00000
 115   Br  9  s      Cor( 3s)     2.00000     0.00000
 116   Br  9  s      Val( 4s)     1.84012    -0.00010
 117   Br  9  s      Ryd( 5s)     0.00306    -0.00002
 118   Br  9  px     Cor( 2p)     2.00000     0.00000
 119   Br  9  px     Cor( 3p)     2.00000     0.00000
 120   Br  9  px     Val( 4p)     1.30789     0.00174
 121   Br  9  px     Ryd( 5p)     0.00263    -0.00001
 122   Br  9  py     Cor( 2p)     2.00000     0.00000
 123   Br  9  py     Cor( 3p)     2.00000     0.00000
 124   Br  9  py     Val( 4p)     1.90849    -0.00009
 125   Br  9  py     Ryd( 5p)     0.00132    -0.00001
 126   Br  9  pz     Cor( 2p)     2.00000     0.00000
 127   Br  9  pz     Cor( 3p)     2.00000     0.00000
 128   Br  9  pz     Val( 4p)     1.95523    -0.00303
 129   Br  9  pz     Ryd( 5p)     0.00114    -0.00008
 130   Br  9  dxy    Cor( 3d)     2.00000     0.00000
 131   Br  9  dxy    Ryd( 4d)     0.00237     0.00000
 132   Br  9  dxy    Ryd( 5d)     0.00000     0.00000
 133   Br  9  dxz    Cor( 3d)     2.00000     0.00000
 134   Br  9  dxz    Ryd( 4d)     0.00272    -0.00018
 135   Br  9  dxz    Ryd( 5d)     0.00000     0.00000
 136   Br  9  dyz    Cor( 3d)     2.00000     0.00000
 137   Br  9  dyz    Ryd( 4d)     0.00062     0.00024
 138   Br  9  dyz    Ryd( 5d)     0.00001     0.00000
 139   Br  9  dx2y2  Cor( 3d)     1.99999     0.00000
 140   Br  9  dx2y2  Ryd( 4d)     0.00363     0.00000
 141   Br  9  dx2y2  Ryd( 5d)     0.00000     0.00000
 142   Br  9  dz2    Cor( 3d)     2.00000     0.00000
 143   Br  9  dz2    Ryd( 4d)     0.00167     0.00000
 144   Br  9  dz2    Ryd( 5d)     0.00000     0.00000

 145    C 10  s      Cor( 1s)     1.99995     0.00000
 146    C 10  s      Val( 2s)     0.90550     0.00912
 147    C 10  s      Ryd( 3s)     0.00159     0.00021
 148    C 10  px     Val( 2p)     1.07456     0.00568
 149    C 10  px     Ryd( 3p)     0.00509     0.00014
 150    C 10  py     Val( 2p)     1.18385     0.00731
 151    C 10  py     Ryd( 3p)     0.00636     0.00030
 152    C 10  pz     Val( 2p)     1.17975     0.23998
 153    C 10  pz     Ryd( 3p)     0.01089     0.00965
 154    C 10  dxy    Ryd( 3d)     0.00088     0.00000
 155    C 10  dxz    Ryd( 3d)     0.00063     0.00004
 156    C 10  dyz    Ryd( 3d)     0.00037    -0.00005
 157    C 10  dx2y2  Ryd( 3d)     0.00069     0.00000
 158    C 10  dz2    Ryd( 3d)     0.00069    -0.00014

 159    C 11  s      Cor( 1s)     1.99996     0.00000
 160    C 11  s      Val( 2s)     0.83944     0.00503
 161    C 11  s      Ryd( 3s)     0.00254     0.00105
 162    C 11  px     Val( 2p)     1.07991     0.00071
 163    C 11  px     Ryd( 3p)     0.00475     0.00053
 164    C 11  py     Val( 2p)     1.08164     0.00356
 165    C 11  py     Ryd( 3p)     0.00404     0.00006
 166    C 11  pz     Val( 2p)     1.14547     0.14544
 167    C 11  pz     Ryd( 3p)     0.00606     0.00345
 168    C 11  dxy    Ryd( 3d)     0.00069     0.00000
 169    C 11  dxz    Ryd( 3d)     0.00096     0.00033
 170    C 11  dyz    Ryd( 3d)     0.00065     0.00005
 171    C 11  dx2y2  Ryd( 3d)     0.00094     0.00002
 172    C 11  dz2    Ryd( 3d)     0.00064    -0.00009

 173    C 12  s      Cor( 1s)     1.99993     0.00000
 174    C 12  s      Val( 2s)     1.02415    -0.00416
 175    C 12  s      Ryd( 3s)     0.00162    -0.00001
 176    C 12  px     Val( 2p)     1.08937    -0.00751
 177    C 12  px     Ryd( 3p)     0.00335     0.00004
 178    C 12  py     Val( 2p)     1.18893    -0.00353
 179    C 12  py     Ryd( 3p)     0.00737     0.00030
 180    C 12  pz     Val( 2p)     1.19945    -0.01048
 181    C 12  pz     Ryd( 3p)     0.00212     0.00049
 182    C 12  dxy    Ryd( 3d)     0.00069     0.00000
 183    C 12  dxz    Ryd( 3d)     0.00066    -0.00002
 184    C 12  dyz    Ryd( 3d)     0.00056     0.00020
 185    C 12  dx2y2  Ryd( 3d)     0.00069     0.00002
 186    C 12  dz2    Ryd( 3d)     0.00111     0.00041

 187    H 13  s      Val( 1s)     0.79573     0.01197
 188    H 13  s      Ryd( 2s)     0.00580     0.00361
 189    H 13  px     Ryd( 2p)     0.00081     0.00001
 190    H 13  py     Ryd( 2p)     0.00019     0.00000
 191    H 13  pz     Ryd( 2p)     0.00017     0.00000

 192    H 14  s      Val( 1s)     0.80446     0.01201
 193    H 14  s      Ryd( 2s)     0.00621     0.00303
 194    H 14  px     Ryd( 2p)     0.00008     0.00000
 195    H 14  py     Ryd( 2p)     0.00021     0.00002
 196    H 14  pz     Ryd( 2p)     0.00095     0.00001

 197    H 15  s      Val( 1s)     0.78588    -0.00729
 198    H 15  s      Ryd( 2s)     0.00214     0.00001
 199    H 15  px     Ryd( 2p)     0.00011     0.00000
 200    H 15  py     Ryd( 2p)     0.00081    -0.00001
 201    H 15  pz     Ryd( 2p)     0.00030     0.00013

 202    H 16  s      Val( 1s)     0.78541    -0.00615
 203    H 16  s      Ryd( 2s)     0.00176    -0.00002
 204    H 16  px     Ryd( 2p)     0.00056     0.00000
 205    H 16  py     Ryd( 2p)     0.00039    -0.00001
 206    H 16  pz     Ryd( 2p)     0.00031     0.00011

 207    H 17  s      Val( 1s)     0.78254    -0.00887
 208    H 17  s      Ryd( 2s)     0.00184     0.00001
 209    H 17  px     Ryd( 2p)     0.00010     0.00000
 210    H 17  py     Ryd( 2p)     0.00085    -0.00001
 211    H 17  pz     Ryd( 2p)     0.00032     0.00014

 212    H 18  s      Val( 1s)     0.77294     0.01630
 213    H 18  s      Ryd( 2s)     0.00594     0.00288
 214    H 18  px     Ryd( 2p)     0.00010     0.00000
 215    H 18  py     Ryd( 2p)     0.00080     0.00001
 216    H 18  pz     Ryd( 2p)     0.00017     0.00000

 217    H 19  s      Val( 1s)     0.80432     0.06567
 218    H 19  s      Ryd( 2s)     0.01412     0.01057
 219    H 19  px     Ryd( 2p)     0.00014     0.00000
 220    H 19  py     Ryd( 2p)     0.00012     0.00002
 221    H 19  pz     Ryd( 2p)     0.00088    -0.00002


 Summary of Natural Population Analysis:

                                     Natural Population                 Natural
             Natural    ---------------------------------------------    Spin
  Atom No    Charge        Core      Valence    Rydberg      Total      Density
 -------------------------------------------------------------------------------
    O  1   -0.65420      1.99996     6.63838    0.01586     8.65420     0.08028
    C  2    0.52514      1.99995     3.43024    0.04467     5.47486     0.13711
    C  3   -0.13309      1.99994     4.11045    0.02270     6.13309    -0.00874
    O  4   -0.59257      1.99995     6.58125    0.01137     8.59257    -0.00295
    C  5    0.34517      1.99995     3.62924    0.02563     5.65483    -0.05149
    C  6   -0.38293      1.99995     4.35972    0.02326     6.38293     0.22093
    C  7   -0.33455      1.99995     4.31325    0.02135     6.33455     0.17839
    C  8   -0.10615      1.99997     4.08555    0.02064     6.10615    -0.06425
   Br  9   -0.03088     27.99997     7.01173    0.01918    35.03088    -0.00152
    C 10   -0.37081      1.99995     4.34366    0.02720     6.37081     0.27224
    C 11   -0.16769      1.99996     4.14646    0.02127     6.16769     0.16014
    C 12   -0.51999      1.99993     4.50190    0.01816     6.51999    -0.02426
    H 13    0.19730      0.00000     0.79573    0.00697     0.80270     0.01559
    H 14    0.18810      0.00000     0.80446    0.00744     0.81190     0.01507
    H 15    0.21075      0.00000     0.78588    0.00337     0.78925    -0.00717
    H 16    0.21157      0.00000     0.78541    0.00302     0.78843    -0.00608
    H 17    0.21435      0.00000     0.78254    0.00311     0.78565    -0.00873
    H 18    0.22005      0.00000     0.77294    0.00701     0.77995     0.01918
    H 19    0.18042      0.00000     0.80432    0.01526     0.81958     0.07625
 ===============================================================================
 * Total * -1.00000     49.99944    62.68311    0.31745   113.00000     1.00000

                                 Natural Population
 ---------------------------------------------------------
   Core                      49.99944 ( 99.9989% of   50)
   Valence                   62.68311 ( 99.4970% of   63)
   Natural Minimal Basis    112.68255 ( 99.7191% of  113)
   Natural Rydberg Basis      0.31745 (  0.2809% of  113)
 ---------------------------------------------------------

    Atom No         Natural Electron Configuration
 ----------------------------------------------------------------------------
      O  1      [core]2s( 1.67)2p( 4.96)3p( 0.01)3d( 0.01)
      C  2      [core]2s( 0.82)2p( 2.61)3s( 0.01)3p( 0.03)3d( 0.01)
      C  3      [core]2s( 1.02)2p( 3.09)3p( 0.01)3d( 0.01)
      O  4      [core]2s( 1.56)2p( 5.02)3p( 0.01)3d( 0.01)
      C  5      [core]2s( 0.80)2p( 2.83)3p( 0.02)3d( 0.01)
      C  6      [core]2s( 0.92)2p( 3.44)3p( 0.02)
      C  7      [core]2s( 0.92)2p( 3.39)3p( 0.02)
      C  8      [core]2s( 0.92)2p( 3.17)3p( 0.01)3d( 0.01)
     Br  9      [core]4s( 1.84)4p( 5.17)4d( 0.01)5p( 0.01)
      C 10      [core]2s( 0.91)2p( 3.44)3p( 0.02)
      C 11      [core]2s( 0.84)2p( 3.31)3p( 0.01)
      C 12      [core]2s( 1.02)2p( 3.48)3p( 0.01)
      H 13            1s( 0.80)2s( 0.01)
      H 14            1s( 0.80)2s( 0.01)
      H 15            1s( 0.79)
      H 16            1s( 0.79)
      H 17            1s( 0.78)
      H 18            1s( 0.77)2s( 0.01)
      H 19            1s( 0.80)2s( 0.01)


 ***************************************************
 *******         Alpha spin orbitals         *******
 ***************************************************


 NATURAL POPULATIONS:  Natural atomic orbital occupancies

  NAO Atom No lang   Type(AO)    Occupancy      Energy
 -------------------------------------------------------
   1    O  1  s      Cor( 1s)     0.99998     -19.08542
   2    O  1  s      Val( 2s)     0.83795      -0.56114
   3    O  1  s      Ryd( 3s)     0.00056       1.71920
   4    O  1  px     Val( 2p)     0.83797      -0.19120
   5    O  1  px     Ryd( 3p)     0.00116       1.33879
   6    O  1  py     Val( 2p)     0.88894      -0.19522
   7    O  1  py     Ryd( 3p)     0.00137       1.38844
   8    O  1  pz     Val( 2p)     0.79358      -0.16394
   9    O  1  pz     Ryd( 3p)     0.00186       1.34156
  10    O  1  dxy    Ryd( 3d)     0.00116       3.36213
  11    O  1  dxz    Ryd( 3d)     0.00068       3.07843
  12    O  1  dyz    Ryd( 3d)     0.00057       3.02041
  13    O  1  dx2y2  Ryd( 3d)     0.00097       3.12503
  14    O  1  dz2    Ryd( 3d)     0.00049       3.03735

  15    C  2  s      Cor( 1s)     0.99998     -10.22052
  16    C  2  s      Val( 2s)     0.41237       0.07950
  17    C  2  s      Ryd( 3s)     0.00304       0.78002
  18    C  2  px     Val( 2p)     0.43211       0.16147
  19    C  2  px     Ryd( 3p)     0.00691       0.89968
  20    C  2  py     Val( 2p)     0.45825       0.15186
  21    C  2  py     Ryd( 3p)     0.00508       0.95345
  22    C  2  pz     Val( 2p)     0.48000       0.05085
  23    C  2  pz     Ryd( 3p)     0.00294       0.82260
  24    C  2  dxy    Ryd( 3d)     0.00093       2.55251
  25    C  2  dxz    Ryd( 3d)     0.00102       2.35831
  26    C  2  dyz    Ryd( 3d)     0.00072       2.26186
  27    C  2  dx2y2  Ryd( 3d)     0.00203       2.53249
  28    C  2  dz2    Ryd( 3d)     0.00061       2.29456

  29    C  3  s      Cor( 1s)     0.99997     -10.21619
  30    C  3  s      Val( 2s)     0.50992      -0.03644
  31    C  3  s      Ryd( 3s)     0.00111       1.09311
  32    C  3  px     Val( 2p)     0.49251       0.06883
  33    C  3  px     Ryd( 3p)     0.00300       0.91157
  34    C  3  py     Val( 2p)     0.49795       0.07208
  35    C  3  py     Ryd( 3p)     0.00253       0.73418
  36    C  3  pz     Val( 2p)     0.55019       0.04790
  37    C  3  pz     Ryd( 3p)     0.00149       0.84042
  38    C  3  dxy    Ryd( 3d)     0.00073       2.38947
  39    C  3  dxz    Ryd( 3d)     0.00061       2.36332
  40    C  3  dyz    Ryd( 3d)     0.00059       2.30540
  41    C  3  dx2y2  Ryd( 3d)     0.00075       2.49012
  42    C  3  dz2    Ryd( 3d)     0.00082       2.60360

  43    O  4  s      Cor( 1s)     0.99998     -19.13822
  44    O  4  s      Val( 2s)     0.78224      -0.58943
  45    O  4  s      Ryd( 3s)     0.00023       1.83844
  46    O  4  px     Val( 2p)     0.71195      -0.18723
  47    O  4  px     Ryd( 3p)     0.00046       1.71735
  48    O  4  py     Val( 2p)     0.89869      -0.24908
  49    O  4  py     Ryd( 3p)     0.00151       1.48312
  50    O  4  pz     Val( 2p)     0.89629      -0.23831
  51    O  4  pz     Ryd( 3p)     0.00089       1.42315
  52    O  4  dxy    Ryd( 3d)     0.00063       3.29294
  53    O  4  dxz    Ryd( 3d)     0.00037       3.10760
  54    O  4  dyz    Ryd( 3d)     0.00063       3.01443
  55    O  4  dx2y2  Ryd( 3d)     0.00052       3.21725
  56    O  4  dz2    Ryd( 3d)     0.00044       3.06817

  57    C  5  s      Cor( 1s)     0.99998     -10.19552
  58    C  5  s      Val( 2s)     0.39537       0.15052
  59    C  5  s      Ryd( 3s)     0.00102       0.90916
  60    C  5  px     Val( 2p)     0.39103       0.19043
  61    C  5  px     Ryd( 3p)     0.00354       1.14590
  62    C  5  py     Val( 2p)     0.52836       0.14802
  63    C  5  py     Ryd( 3p)     0.00324       1.12425
  64    C  5  pz     Val( 2p)     0.47366       0.05848
  65    C  5  pz     Ryd( 3p)     0.00104       0.85539
  66    C  5  dxy    Ryd( 3d)     0.00093       2.69156
  67    C  5  dxz    Ryd( 3d)     0.00096       2.17726
  68    C  5  dyz    Ryd( 3d)     0.00116       2.19095
  69    C  5  dx2y2  Ryd( 3d)     0.00093       2.65483
  70    C  5  dz2    Ryd( 3d)     0.00046       2.41924

  71    C  6  s      Cor( 1s)     0.99998     -10.12317
  72    C  6  s      Val( 2s)     0.46468       0.10637
  73    C  6  s      Ryd( 3s)     0.00061       0.78822
  74    C  6  px     Val( 2p)     0.53862       0.14654
  75    C  6  px     Ryd( 3p)     0.00275       0.94940
  76    C  6  py     Val( 2p)     0.59054       0.10315
  77    C  6  py     Ryd( 3p)     0.00275       1.24076
  78    C  6  pz     Val( 2p)     0.69290       0.00566
  79    C  6  pz     Ryd( 3p)     0.00748       0.80616
  80    C  6  dxy    Ryd( 3d)     0.00044       2.70014
  81    C  6  dxz    Ryd( 3d)     0.00043       2.21527
  82    C  6  dyz    Ryd( 3d)     0.00017       2.17444
  83    C  6  dx2y2  Ryd( 3d)     0.00033       2.74188
  84    C  6  dz2    Ryd( 3d)     0.00026       2.45427

  85    C  7  s      Cor( 1s)     0.99998     -10.13456
[...]
   54. BD ( 1) C 11- C 12      92. RY ( 3) C  2            0.32    1.63   0.029
   54. BD ( 1) C 11- C 12      93. RY ( 4) C  2            0.38    2.07   0.036
   54. BD ( 1) C 11- C 12     117. RY ( 1) C  5            0.56    1.62   0.038
   54. BD ( 1) C 11- C 12     167. RY ( 1) C 10            0.56    1.82   0.040
   54. BD ( 1) C 11- C 12     168. RY ( 2) C 10            0.36    1.43   0.029
   54. BD ( 1) C 11- C 12     218. RY ( 1) H 19            0.25    1.04   0.020
   55. BD ( 1) C 12- H 18      57. BD*( 1) O  1- C  2      0.35    1.28   0.027
   55. BD ( 1) C 12- H 18      58. BD*( 2) O  1- C  2      1.06    0.67   0.034
   55. BD ( 1) C 12- H 18      59. BD*( 1) C  2- C  3      1.81    1.02   0.054
   55. BD ( 1) C 12- H 18      66. BD*( 1) C  5- C 11      1.70    1.23   0.058
   55. BD ( 1) C 12- H 18      67. BD*( 2) C  5- C 11      0.38    0.66   0.020
   55. BD ( 1) C 12- H 18      78. BD*( 1) C 11- C 12      0.31    1.09   0.023
   55. BD ( 1) C 12- H 18      90. RY ( 1) C  2            0.27    1.19   0.023
   55. BD ( 1) C 12- H 18     178. RY ( 3) C 11            0.36    1.67   0.031
   56. BD ( 1) C 12- H 19      58. BD*( 2) O  1- C  2      5.71    0.66   0.077
   56. BD ( 1) C 12- H 19      67. BD*( 2) C  5- C 11      3.59    0.65   0.061
   56. BD ( 1) C 12- H 19      76. BD*( 1) C 10- C 11      0.30    1.24   0.024
   56. BD ( 1) C 12- H 19      78. BD*( 1) C 11- C 12      0.29    1.07   0.022
   56. BD ( 1) C 12- H 19      92. RY ( 3) C  2            0.53    1.56   0.036
   56. BD ( 1) C 12- H 19     178. RY ( 3) C 11            0.28    1.65   0.027


 NATURAL BOND ORBITALS (Summary):

                                                     Principal Delocalizations
           NBO                 Occupancy    Energy   (geminal,vicinal,remote)
 ===============================================================================
 Molecular unit  1  (C9H7O2Br)
 ------ Lewis --------------------------------------
    1. CR ( 1) O  1             0.99998   -19.08344
    2. CR ( 1) C  2             0.99998   -10.21860
    3. CR ( 1) C  3             0.99997   -10.21645
    4. CR ( 1) O  4             0.99998   -19.13834
    5. CR ( 1) C  5             0.99998   -10.19646
    6. CR ( 1) C  6             0.99998   -10.12043
    7. CR ( 1) C  7             0.99998   -10.13230
    8. CR ( 1) C  8             0.99998   -10.19031
    9. CR ( 1)Br  9             1.00000  -400.75096
   10. CR ( 2)Br  9             1.00000  -128.73542
   11. CR ( 3)Br  9             1.00000   -24.60613
   12. CR ( 4)Br  9             1.00000   -37.09257
   13. CR ( 5)Br  9             1.00000   -25.71096
   14. CR ( 6)Br  9             1.00000   -37.08619
   15. CR ( 7)Br  9             1.00000   -25.70520
   16. CR ( 8)Br  9             1.00000   -37.08551
   17. CR ( 9)Br  9             1.00000   -25.70456
   18. CR (10)Br  9             1.00000    -2.59634
   19. CR (11)Br  9             1.00000    -2.59541
   20. CR (12)Br  9             1.00000    -2.58777
   21. CR (13)Br  9             1.00000    -2.59642
   22. CR (14)Br  9             1.00000    -2.59013
   23. CR ( 1) C 10             0.99998   -10.12391
   24. CR ( 1) C 11             0.99998   -10.12952
   25. CR ( 1) C 12             0.99997   -10.15665
   26. LP ( 1) O  1             0.98813    -0.45742  90(v),60(v),59(v)
   27. LP ( 2) O  1             0.93960    -0.18567  59(v),60(v),91(v),61(r)
                                                     93(v),94(v),78(r)
   28. LP ( 1) O  4             0.98008    -0.38700  66(v),59(v),99(v),117(v)
                                                     62(v),65(v),67(v)
   29. LP ( 2) O  4             0.94365    -0.26072  67(v),63(v),59(v),65(v)
                                                     120(v),66(v),102(v),62(v)
                                                     119(v),121(v)
   30. LP ( 1)Br  9             0.99737    -0.60533  144(v),71(v),74(v)
   31. LP ( 2)Br  9             0.99091    -0.23232  71(v),74(v),145(v)
   32. LP ( 3)Br  9             0.98092    -0.23050  75(v)
   33. BD ( 1) O  1- C  2       0.99745    -0.86572  60(g),61(v),59(g),78(v)
   34. BD ( 2) O  1- C  2       0.99414    -0.30842  80(v),63(v),62(v)
   35. BD ( 1) C  2- C  3       0.99409    -0.51170  81(v),79(v),185(v),108(v)
                                                     62(g),186(v)
   36. BD ( 1) C  2- C 12       0.98960    -0.48835  76(v),177(v),81(v),67(v)
                                                     78(g),99(v),62(v),57(g)
                                                     61(v),80(g),79(g),218(v)
                                                     214(v)
   37. BD ( 1) C  3- O  4       0.99351    -0.69079  65(v),67(v),118(v),57(v)
   38. BD ( 1) C  3- H 13       0.98711    -0.43956  58(v),64(v),60(v),109(v)
   39. BD ( 1) C  3- H 14       0.98583    -0.43369  58(v),60(v),92(v),64(v)
   40. BD ( 1) O  4- C  5       0.99486    -0.73708  76(v),68(v),62(v),65(g)
                                                     101(v),66(g)
   41. BD ( 1) C  5- C  6       0.98553    -0.51624  66(g),68(g),78(v),72(v)
                                                     61(v),70(g),176(v),136(v)
                                                     135(v),108(v),202(v),64(g)
                                                     178(v)
   42. BD ( 1) C  5- C 11       0.98391    -0.51443  65(g),76(g),77(v),78(g)
                                                     70(v),126(v),79(v),185(v)
                                                     167(v),108(v),168(v)
   43. BD ( 2) C  5- C 11       0.82183    -0.13929  75(v),69(v),80(v),128(v)
                                                     171(v),60(v),79(v),109(v)
                                                     188(v),62(r),61(v),67(g)
   44. BD ( 1) C  6- C  7       0.98171    -0.50217  73(v),64(v),71(g),65(g)
                                                     70(g),72(g),117(v),144(v)
                                                     145(v),202(v),118(v),206(v)
   45. BD ( 2) C  6- C  7       0.83029    -0.12788  67(v),75(v),146(v),122(v)
                                                     128(g),147(v),137(g)
   46. BD ( 1) C  6- H 15       0.98834    -0.39608  66(v),71(v),64(v),68(g)
                                                     65(g),117(v),135(v),72(v)
   47. BD ( 1) C  7- C  8       0.98812    -0.52988  74(g),68(g),77(v),70(v)
                                                     72(g),127(v),167(v),126(v)
                                                     206(v)
   48. BD ( 1) C  7- H 16       0.98914    -0.40294  74(v),65(v),144(v),73(v)
                                                     68(g),71(g),126(v),70(v)
   49. BD ( 1) C  8-Br  9       0.99319    -0.50064  76(v),68(v),135(v),167(v)
   50. BD ( 1) C  8- C 10       0.98755    -0.52806  71(g),76(g),78(v),72(v)
                                                     77(g),176(v),135(v),210(v)
                                                     177(v)
   51. BD ( 2) C  8- C 10       0.85535    -0.15586  69(v),67(v),137(v),153(v)
                                                     180(v)
   52. BD ( 1) C 10- C 11       0.97888    -0.49712  73(v),66(g),64(v),74(g)
                                                     78(g),77(g),144(v),145(v)
                                                     60(v),186(v),185(v),118(v)
   53. BD ( 1) C 10- H 17       0.98876    -0.39402  66(v),71(v),76(g),144(v)
                                                     73(v),74(g),176(v)
   54. BD ( 1) C 11- C 12       0.98253    -0.46173  57(v),76(g),65(v),66(g)
                                                     74(v),167(v),117(v),58(v)
                                                     60(g),80(g),79(g),64(v)
                                                     93(v),168(v),92(v),218(v)
   55. BD ( 1) C 12- H 18       0.98788    -0.40258  59(v),66(v),58(v),67(v)
                                                     178(v),57(v),78(g),90(v)
   56. BD ( 1) C 12- H 19       0.97186    -0.38734  58(v),67(v),92(v),76(v)
                                                     78(g),178(v)
 ------ non-Lewis ----------------------------------
   57. BD*( 1) O  1- C  2       0.00579     0.87964
   58. BD*( 2) O  1- C  2       0.03854     0.26878
   59. BD*( 1) C  2- C  3       0.03748     0.61884
   60. BD*( 1) C  2- C 12       0.03096     0.64586
   61. BD*( 1) C  3- O  4       0.00873     0.53910
   62. BD*( 1) C  3- H 13       0.00648     0.67242
   63. BD*( 1) C  3- H 14       0.01299     0.64999
   64. BD*( 1) O  4- C  5       0.01446     0.61983
   65. BD*( 1) C  5- C  6       0.01312     0.83794
   66. BD*( 1) C  5- C 11       0.01895     0.82931
   67. BD*( 2) C  5- C 11       0.19356     0.25968
   68. BD*( 1) C  6- C  7       0.00806     0.84980
   69. BD*( 2) C  6- C  7       0.15390     0.27365
   70. BD*( 1) C  6- H 15       0.00695     0.71591
   71. BD*( 1) C  7- C  8       0.01319     0.82270
   72. BD*( 1) C  7- H 16       0.00749     0.71371
   73. BD*( 1) C  8-Br  9       0.01672     0.34214
   74. BD*( 1) C  8- C 10       0.01244     0.82967
   75. BD*( 2) C  8- C 10       0.19713     0.24645
   76. BD*( 1) C 10- C 11       0.01219     0.85410
   77. BD*( 1) C 10- H 17       0.00792     0.71206
   78. BD*( 1) C 11- C 12       0.01107     0.68588
   79. BD*( 1) C 12- H 18       0.00496     0.68710
   80. BD*( 1) C 12- H 19       0.00824     0.67413
   81. RY ( 1) O  1             0.00187     1.43154
   82. RY ( 2) O  1             0.00012     1.73488
   83. RY ( 3) O  1             0.00005     1.39000
   84. RY ( 4) O  1             0.00002     1.25836
   85. RY ( 5) O  1             0.00000     3.40546
   86. RY ( 6) O  1             0.00000     2.99897
   87. RY ( 7) O  1             0.00000     3.09767
   88. RY ( 8) O  1             0.00000     3.12172
   89. RY ( 9) O  1             0.00000     3.00209
   90. RY ( 1) C  2             0.00945     0.78625
   91. RY ( 2) C  2             0.00335     1.93678
   92. RY ( 3) C  2             0.00193     1.16795
   93. RY ( 4) C  2             0.00075     1.61231
   94. RY ( 5) C  2             0.00044     1.45368
   95. RY ( 6) C  2             0.00029     2.32898
   96. RY ( 7) C  2             0.00011     1.95535
   97. RY ( 8) C  2             0.00002     1.88381
   98. RY ( 9) C  2             0.00001     2.33593
   99. RY ( 1) C  3             0.00337     0.87181
  100. RY ( 2) C  3             0.00131     1.37899
  101. RY ( 3) C  3             0.00085     1.26198
  102. RY ( 4) C  3             0.00061     1.64997
  103. RY ( 5) C  3             0.00041     1.66050
  104. RY ( 6) C  3             0.00023     2.04977
  105. RY ( 7) C  3             0.00006     2.17871
  106. RY ( 8) C  3             0.00002     2.28006
  107. RY ( 9) C  3             0.00000     2.36908
  108. RY ( 1) O  4             0.00161     1.50548
  109. RY ( 2) O  4             0.00102     1.54153
  110. RY ( 3) O  4             0.00015     2.38773
  111. RY ( 4) O  4             0.00009     2.57492
  112. RY ( 5) O  4             0.00009     2.56811
  113. RY ( 6) O  4             0.00003     2.58252
  114. RY ( 7) O  4             0.00001     3.05045
  115. RY ( 8) O  4             0.00000     3.02461
  116. RY ( 9) O  4             0.00000     2.92108
  117. RY ( 1) C  5             0.00328     1.16035
  118. RY ( 2) C  5             0.00197     1.31389
  119. RY ( 3) C  5             0.00103     1.20158
  120. RY ( 4) C  5             0.00101     2.04627
  121. RY ( 5) C  5             0.00079     1.44991
  122. RY ( 6) C  5             0.00041     2.14585
  123. RY ( 7) C  5             0.00033     2.04373
  124. RY ( 8) C  5             0.00008     2.33363
  125. RY ( 9) C  5             0.00001     2.44777
  126. RY ( 1) C  6             0.00265     1.36121
  127. RY ( 2) C  6             0.00138     0.97130
  128. RY ( 3) C  6             0.00056     0.93126
  129. RY ( 4) C  6             0.00036     1.53040
  130. RY ( 5) C  6             0.00024     1.40200
  131. RY ( 6) C  6             0.00005     2.63272
  132. RY ( 7) C  6             0.00002     2.58046
  133. RY ( 8) C  6             0.00001     2.23088
  134. RY ( 9) C  6             0.00000     2.47969
  135. RY ( 1) C  7             0.00290     1.34676
  136. RY ( 2) C  7             0.00129     0.95123
  137. RY ( 3) C  7             0.00076     1.18152
  138. RY ( 4) C  7             0.00028     0.87355
  139. RY ( 5) C  7             0.00022     1.79757
  140. RY ( 6) C  7             0.00006     2.59109
  141. RY ( 7) C  7             0.00002     2.60350
  142. RY ( 8) C  7             0.00001     2.12428
  143. RY ( 9) C  7             0.00000     2.46472
  144. RY ( 1) C  8             0.00322     1.34345
  145. RY ( 2) C  8             0.00258     0.98025
  146. RY ( 3) C  8             0.00076     1.27081
  147. RY ( 4) C  8             0.00045     2.12994
  148. RY ( 5) C  8             0.00038     0.89863
  149. RY ( 6) C  8             0.00028     2.61511
  150. RY ( 7) C  8             0.00015     2.22764
  151. RY ( 8) C  8             0.00007     1.59465
  152. RY ( 9) C  8             0.00000     2.42158
  153. RY ( 1)Br  9             0.00194     0.81781
  154. RY ( 2)Br  9             0.00077     0.91957
  155. RY ( 3)Br  9             0.00025     0.75252
  156. RY ( 4)Br  9             0.00005     1.16695
  157. RY ( 5)Br  9             0.00003     0.76055
  158. RY ( 6)Br  9             0.00000     1.17068
  159. RY ( 7)Br  9             0.00000     1.06547
  160. RY ( 8)Br  9             0.00000     0.98320
  161. RY ( 9)Br  9             0.00000     1.02375
  162. RY (10)Br  9             0.00000     3.71297
  163. RY (11)Br  9             0.00000     3.58316
  164. RY (12)Br  9             0.00000     3.65937
  165. RY (13)Br  9             0.00000     3.81279
  166. RY (14)Br  9             0.00000     3.57030
  167. RY ( 1) C 10             0.00307     1.35736
  168. RY ( 2) C 10             0.00151     0.97067
  169. RY ( 3) C 10             0.00076     1.14744
  170. RY ( 4) C 10             0.00032     0.87907
  171. RY ( 5) C 10             0.00024     1.82183
  172. RY ( 6) C 10             0.00004     2.62546
  173. RY ( 7) C 10             0.00001     2.48895
  174. RY ( 8) C 10             0.00001     2.27629
  175. RY ( 9) C 10             0.00000     2.48722
  176. RY ( 1) C 11             0.00242     1.40686
  177. RY ( 2) C 11             0.00174     1.07866
  178. RY ( 3) C 11             0.00117     1.26243
  179. RY ( 4) C 11             0.00038     1.55216
  180. RY ( 5) C 11             0.00030     1.65110
  181. RY ( 6) C 11             0.00011     2.33487
  182. RY ( 7) C 11             0.00009     2.35334
  183. RY ( 8) C 11             0.00004     2.46446
  184. RY ( 9) C 11             0.00001     2.43340
  185. RY ( 1) C 12             0.00332     1.02676
  186. RY ( 2) C 12             0.00141     0.84338
  187. RY ( 3) C 12             0.00080     1.20226
  188. RY ( 4) C 12             0.00067     1.29015
  189. RY ( 5) C 12             0.00012     2.18708
  190. RY ( 6) C 12             0.00004     2.43011
  191. RY ( 7) C 12             0.00002     2.55365
  192. RY ( 8) C 12             0.00001     2.27634
  193. RY ( 9) C 12             0.00000     2.42563
  194. RY ( 1) H 13             0.00107     0.53923
  195. RY ( 2) H 13             0.00007     1.99684
  196. RY ( 3) H 13             0.00003     2.17814
  197. RY ( 4) H 13             0.00001     2.36278
  198. RY ( 1) H 14             0.00159     0.56066
  199. RY ( 2) H 14             0.00008     1.97825
  200. RY ( 3) H 14             0.00004     2.19321
  201. RY ( 4) H 14             0.00000     2.42627
  202. RY ( 1) H 15             0.00108     0.59379
  203. RY ( 2) H 15             0.00009     1.92157
  204. RY ( 3) H 15             0.00003     2.28847
  205. RY ( 4) H 15             0.00002     2.54003
  206. RY ( 1) H 16             0.00090     0.59610
  207. RY ( 2) H 16             0.00010     1.91139
  208. RY ( 3) H 16             0.00003     2.35434
  209. RY ( 4) H 16             0.00002     2.46336
  210. RY ( 1) H 17             0.00093     0.61438
  211. RY ( 2) H 17             0.00009     1.93023
  212. RY ( 3) H 17             0.00003     2.44645
  213. RY ( 4) H 17             0.00002     2.40398
  214. RY ( 1) H 18             0.00151     0.58984
  215. RY ( 2) H 18             0.00005     2.04385
  216. RY ( 3) H 18             0.00003     2.04234
  217. RY ( 4) H 18             0.00001     2.54839
  218. RY ( 1) H 19             0.00135     0.57986
  219. RY ( 2) H 19             0.00006     2.06809
  220. RY ( 3) H 19             0.00005     2.13734
  221. RY ( 4) H 19             0.00001     2.53755
          -------------------------------
                 Total Lewis   55.07182  ( 98.3425%)
           Valence non-Lewis    0.84133  (  1.5024%)
           Rydberg non-Lewis    0.08685  (  0.1551%)
          -------------------------------
               Total unit  1   56.00000  (100.0000%)
              Charge unit  1    0.00000

 $CHOOSE
  ALPHA
   LONE 1 2 4 2 9 3 10 1 11 1 END
   BOND D 1 2 S 2 3 S 2 12 S 3 4 S 3 13 S 3 14 S 4 5 D 5 6 S 5 11 S 6 7 S 6 15
        D 7 8 S 7 16 S 8 9 S 8 10 S 10 11 S 10 17 S 11 12 S 12 18 S 12 19 END
  END
  BETA
   LONE 1 2 4 2 9 3 END
   BOND D 1 2 S 2 3 S 2 12 S 3 4 S 3 13 S 3 14 S 4 5 S 5 6 D 5 11 D 6 7 S 6 15
        S 7 8 S 7 16 S 8 9 D 8 10 S 10 11 S 10 17 S 11 12 S 12 18 S 12 19 END
  END
 $END

 NBO analysis completed in 2.72 CPU seconds (2 wall seconds)
 Maximum scratch memory used by NBO was 920717 words (7.02 MB)
 Maximum scratch memory used by G16NBO was 107253 words (0.82 MB)

 Opening RunExU unformatted file "/home/rpaton/arbr500/dzvp/fukui/Gau-1921563.EUF"
 Read unf file /home/rpaton/arbr500/dzvp/fukui/Gau-1921563.EUF:
 Label Gaussian matrix elements                                         IVers= 2 NLab= 2 Version=ES64L-G16RevC.01
 Title arbr47_wb97xd_redcreated by GaussianPrep                        
 NAtoms=    19 NBasis=   221 NBsUse=   221 ICharg=    -1 Multip=     2 NE=   113 Len12L=8 Len4L=8 IOpCl= 1 ICGU=112
 GAUSSIAN SCALARS                    NI= 1 NR= 1 NTot=       1 LenBuf=    2 NRI=1 N=    1000
 NPA CHARGES                         NI= 0 NR= 1 NTot=      19 LenBuf= 2048 NRI=1 N=      19
 Recovered energy= -3070.95747783     dipole=     -1.370924243224      0.265330369586      0.013146897597
 Unable to Open any file for archive entry.
 1\1\GINC-DYNAMO\SP\UwB97XD\def2SVP\C9H7Br1O2(1-,2)\RPATON\28-Sep-2024\
 0\\# pop=(nbo6,hirshfeld) wb97xd/def2svp\\arbr47_wb97xd_redcreated by 
 GaussianPrep\\-1,2\O,0,-4.214079,-1.571068,0.462829\C,0,-3.339651,-0.8
 19305,0.122165\C,0,-3.450031,0.678828,0.381654\O,0,-2.49273,1.465787,-
 0.287494\C,0,-1.20614,1.034543,-0.192015\C,0,-0.185399,1.969375,-0.029
 165\C,0,1.136934,1.543098,0.047813\C,0,1.424586,0.180135,-0.025604\Br,
 0,3.218892,-0.407989,0.100823\C,0,0.406098,-0.755372,-0.194771\C,0,-0.
 919009,-0.332063,-0.293756\C,0,-2.065406,-1.269092,-0.565298\H,0,-4.44
 3476,1.021002,0.062862\H,0,-3.377863,0.824485,1.476475\H,0,-0.442753,3
 .027341,0.038304\H,0,1.941726,2.268037,0.177189\H,0,0.643339,-1.818878
 ,-0.264164\H,0,-1.852509,-2.307973,-0.278787\H,0,-2.287101,-1.273037,-
 1.649485\\Version=ES64L-G16RevC.01\State=2-A\HF=-3070.9574778\S2=0.761
 113\S2-1=0.\S2A=0.750085\RMSD=6.190e-09\Dipole=1.3709242,0.2653303,-0.
 0131469\Quadrupole=-16.2889036,5.6261041,10.6627995,-6.7626494,1.52414
 09,1.7910091\PG=C01 [X(C9H7Br1O2)]\\@
 The archive entry for this job was punched.


 A politician is a person who can make waves and then
 make you think he's the only one who can save the ship.
 -- Ivern Ball
 Job cpu time:       0 days  0 hours 21 minutes 55.8 seconds.
 Elapsed time:       0 days  0 hours  0 minutes 55.4 seconds.
 File lengths (MBytes):  RWF=     51 Int=      0 D2E=      0 Chk=      5 Scr=      1
 Normal termination of Gaussian 16 at Sat Sep 28 11:50:17 2024.
