 Entering Gaussian System, Link 0=/usr/local/Gaussian/G16C/g16/g16
 Input=arbr35_wb97xd_red.com
 Output=arbr35_wb97xd_red.log
 Initial command:
 /usr/local/Gaussian/G16C/g16/l1.exe "/home/rpaton/arbr500/dzvp/fukui/Gau-1913388.inp" -scrdir="/home/rpaton/arbr500/dzvp/fukui/"
 Entering Link 1 = /usr/local/Gaussian/G16C/g16/l1.exe PID=   1913389.
  
 Copyright (c) 1988-2019, Gaussian, Inc.  All Rights Reserved.
  
 This is part of the Gaussian(R) 16 program.  It is based on
 the Gaussian(R) 09 system (copyright 2009, Gaussian, Inc.),
 the Gaussian(R) 03 system (copyright 2003, Gaussian, Inc.),
 the Gaussian(R) 98 system (copyright 1998, Gaussian, Inc.),
 the Gaussian(R) 94 system (copyright 1995, Gaussian, Inc.),
 the Gaussian 92(TM) system (copyright 1992, Gaussian, Inc.),
 the Gaussian 90(TM) system (copyright 1990, Gaussian, Inc.),
 the Gaussian 88(TM) system (copyright 1988, Gaussian, Inc.),
 the Gaussian 86(TM) system (copyright 1986, Carnegie Mellon
 University), and the Gaussian 82(TM) system (copyright 1983,
 Carnegie Mellon University). Gaussian is a federally registered
 trademark of Gaussian, Inc.
  
 This software contains proprietary and confidential information,
 including trade secrets, belonging to Gaussian, Inc.
  
 This software is provided under written license and may be
 used, copied, transmitted, or stored only in accord with that
 written license.
  
 The following legend is applicable only to US Government
 contracts under FAR:
  
                    RESTRICTED RIGHTS LEGEND
  
 Use, reproduction and disclosure by the US Government is
 subject to restrictions as set forth in subparagraphs (a)
 and (c) of the Commercial Computer Software - Restricted
 Rights clause in FAR 52.227-19.
  
 Gaussian, Inc.
 340 Quinnipiac St., Bldg. 40, Wallingford CT 06492
  
  
 ---------------------------------------------------------------
 Warning -- This program may not be used in any manner that
 competes with the business of Gaussian, Inc. or will provide
 assistance to any competitor of Gaussian, Inc.  The licensee
 of this program is prohibited from giving any competitor of
 Gaussian, Inc. access to this program.  By using this program,
 the user acknowledges that Gaussian, Inc. is engaged in the
 business of creating and licensing software in the field of
 computational chemistry and represents and warrants to the
 licensee that it is not a competitor of Gaussian, Inc. and that
 it will not use this program in any manner prohibited above.
 ---------------------------------------------------------------
  

 Cite this work as:
 Gaussian 16, Revision C.01,
 M. J. Frisch, G. W. Trucks, H. B. Schlegel, G. E. Scuseria, 
 M. A. Robb, J. R. Cheeseman, G. Scalmani, V. Barone, 
 G. A. Petersson, H. Nakatsuji, X. Li, M. Caricato, A. V. Marenich, 
 J. Bloino, B. G. Janesko, R. Gomperts, B. Mennucci, H. P. Hratchian, 
 J. V. Ortiz, A. F. Izmaylov, J. L. Sonnenberg, D. Williams-Young, 
 F. Ding, F. Lipparini, F. Egidi, J. Goings, B. Peng, A. Petrone, 
 T. Henderson, D. Ranasinghe, V. G. Zakrzewski, J. Gao, N. Rega, 
 G. Zheng, W. Liang, M. Hada, M. Ehara, K. Toyota, R. Fukuda, 
 J. Hasegawa, M. Ishida, T. Nakajima, Y. Honda, O. Kitao, H. Nakai, 
 T. Vreven, K. Throssell, J. A. Montgomery, Jr., J. E. Peralta, 
 F. Ogliaro, M. J. Bearpark, J. J. Heyd, E. N. Brothers, K. N. Kudin, 
 V. N. Staroverov, T. A. Keith, R. Kobayashi, J. Normand, 
 K. Raghavachari, A. P. Rendell, J. C. Burant, S. S. Iyengar, 
 J. Tomasi, M. Cossi, J. M. Millam, M. Klene, C. Adamo, R. Cammi, 
 J. W. Ochterski, R. L. Martin, K. Morokuma, O. Farkas, 
 J. B. Foresman, and D. J. Fox, Gaussian, Inc., Wallingford CT, 2019.
 
 ******************************************
 Gaussian 16:  ES64L-G16RevC.01  3-Jul-2019
                28-Sep-2024 
 ******************************************
 %chk=arbr35_wb97xd_red.chk
 %mem=48GB
 %nprocshared=24
 Will use up to   24 processors via shared memory.
 -------------------------------------
 # pop=(nbo6,hirshfeld) wb97xd/def2svp
 -------------------------------------
 1/38=1,172=1/1;
 2/12=2,17=6,18=5,40=1/2;
 3/5=43,7=101,11=2,25=1,30=1,74=-58/1,2,3;
 4//1;
 5/5=2,38=5/2;
 6/7=2,8=2,9=2,10=2,28=1,40=1,79=1,113=1,114=1,124=3103,126=1/1,12;
 99/5=1,9=1/99;
 ----------------------------------------
 arbr35_wb97xd_redcreated by GaussianPrep
 ----------------------------------------
 Symbolic Z-matrix:
 Charge = -1 Multiplicity = 2
 Br                    5.90859  -0.31178  0. 
 C                     4.05765   0.08574  0. 
 C                     3.64763   1.42166   0. 
 C                     2.28841   1.72873   0. 
 C                     1.3574    0.69188   0. 
 C                     1.7833   -0.64767   0. 
 C                     3.13611  -0.96321   0. 
 C                     0.5921   -1.57538   0.00001 
 C                    -0.57387  -0.6158    0. 
 C                    -1.93492  -0.89503   0. 
 C                    -2.83167   0.17677   0. 
 I                    -4.90234  -0.21088  0. 
 C                    -2.38231   1.50116   0. 
 C                    -1.01492   1.77237   0. 
 C                    -0.11189   0.71151   0. 
 H                     4.39384   2.21733   0. 
 H                     1.96771   2.77271   0. 
 H                     3.47798  -1.9997   0. 
 H                     0.58347  -2.23157   0.88589 
 H                     0.58347  -2.23158  -0.88587 
 H                    -2.29469  -1.92574   0. 
 H                    -3.09967   2.32327  0. 
 H                    -0.66702   2.80768  0. 
 
                          Input orientation:                          
 ---------------------------------------------------------------------
 Center     Atomic      Atomic             Coordinates (Angstroms)
 Number     Number       Type             X           Y           Z
 ---------------------------------------------------------------------
      1         35           0        5.908593   -0.311782   -0.000002
      2          6           0        4.057653    0.085737   -0.000001
      3          6           0        3.647629    1.421661    0.000001
      4          6           0        2.288411    1.728729    0.000003
      5          6           0        1.357396    0.691882    0.000003
      6          6           0        1.783297   -0.647672    0.000002
      7          6           0        3.136106   -0.963207    0.000000
      8          6           0        0.592098   -1.575381    0.000005
      9          6           0       -0.573873   -0.615802    0.000003
     10          6           0       -1.934921   -0.895026    0.000002
     11          6           0       -2.831669    0.176772    0.000001
     12         53           0       -4.902338   -0.210877   -0.000001
     13          6           0       -2.382312    1.501162    0.000000
     14          6           0       -1.014918    1.772373    0.000000
     15          6           0       -0.111888    0.711509    0.000003
     16          1           0        4.393845    2.217330    0.000000
     17          1           0        1.967709    2.772705    0.000004
     18          1           0        3.477983   -1.999701   -0.000002
     19          1           0        0.583474   -2.231571    0.885890
     20          1           0        0.583472   -2.231579   -0.885874
     21          1           0       -2.294690   -1.925742    0.000001
     22          1           0       -3.099666    2.323267   -0.000001
     23          1           0       -0.667015    2.807678   -0.000002
 ---------------------------------------------------------------------
                    Distance matrix (angstroms):
                    1          2          3          4          5
     1  Br   0.000000
     2  C    1.893146   0.000000
     3  C    2.848997   1.397431   0.000000
     4  C    4.155647   2.414465   1.393472   0.000000
     5  C    4.660551   2.767454   2.403694   1.393499   0.000000
     6  C    4.138948   2.389683   2.785296   2.429490   1.405630
     7  C    2.847989   1.396257   2.439109   2.822252   2.429636
     8  C    5.464595   3.843096   4.280015   3.714111   2.392940
     9  C    6.489591   4.684356   4.687466   3.699932   2.332346
    10  C    7.865169   6.072301   6.044163   4.971984   3.654809
    11  C    8.753906   6.889923   6.597807   5.350121   4.220617
    12  I   10.811402   8.964899   8.704431   7.447747   6.324496
    13  C    8.486806   6.593677   6.030465   4.676263   3.826271
    14  C    7.230402   5.345626   4.675718   3.303617   2.606786
    15  C    6.106825   4.216238   3.826001   2.606947   1.469415
    16  H    2.948028   2.157942   1.090838   2.161385   3.398090
    17  H    5.004461   3.404066   2.155795   1.092124   2.168480
    18  H    2.959212   2.164502   3.425565   3.913601   3.426588
    19  H    5.729510   4.269033   4.849737   4.401770   3.151242
    20  H    5.729512   4.269035   4.849742   4.401776   3.151247
    21  H    8.360545   6.663206   6.820283   5.861738   4.493294
    22  H    9.385745   7.498917   6.807267   5.420779   4.746243
    23  H    7.278025   5.452655   4.531798   3.146216   2.928282
                    6          7          8          9         10
     6  C    0.000000
     7  C    1.389120   0.000000
     8  C    1.509834   2.616626   0.000000
     9  C    2.357385   3.726209   1.510060   0.000000
    10  C    3.726437   5.071485   2.617004   1.389395   0.000000
    11  C    4.688029   6.075680   3.846066   2.392868   1.397465
    12  I    6.699888   8.073573   5.661334   4.347364   3.045262
    13  C    4.687194   6.043679   4.279279   2.784239   2.437596
    14  C    3.699544   4.971358   3.713483   2.428559   2.821599
    15  C    2.332188   3.654331   2.392794   1.405413   2.429898
    16  H    3.875977   3.420193   5.370097   5.718816   7.052662
    17  H    3.425345   3.914357   4.560500   4.235755   5.355630
    18  H    2.167935   1.091421   2.916913   4.281672   5.524476
    19  H    2.175571   2.984875   1.102475   2.175996   2.985542
    20  H    2.175573   2.984875   1.102475   2.175997   2.985541
    21  H    4.273575   5.515435   2.907971   2.162673   1.091700
    22  H    5.715751   7.048813   5.369225   3.875275   3.422578
    23  H    4.235974   5.355680   4.560326   3.424747   3.913771
                   11         12         13         14         15
    11  C    0.000000
    12  I    2.106642   0.000000
    13  C    1.398546   3.046573   0.000000
    14  C    2.417959   4.364094   1.394031   0.000000
    15  C    2.771850   4.878443   2.403825   1.393160   0.000000
    16  H    7.508124   9.608080   6.813898   5.427035   4.750698
    17  H    5.456455   7.489947   4.532053   3.145907   2.928012
    18  H    6.674484   8.569111   6.826353   5.866404   4.498648
    19  H    4.271781   5.912879   4.849122   4.401275   3.151197
    20  H    4.271781   5.912877   4.849124   4.401279   3.151201
    21  H    2.170003   3.120992   3.428024   3.913294   3.423407
    22  H    2.163160   3.109905   1.091079   2.156307   3.394787
    23  H    3.406962   5.200926   2.156207   1.092196   2.168430
                   16         17         18         19         20
    16  H    0.000000
    17  H    2.488891   0.000000
    18  H    4.315339   5.005675   0.000000
    19  H    5.924226   5.267227   3.035910   0.000000
    20  H    5.924230   5.267234   3.035907   1.771764   0.000000
    21  H    7.867754   6.343772   5.773147   3.026906   3.026901
    22  H    7.494260   5.087267   7.871056   5.924261   5.924264
    23  H    5.095176   2.634956   6.347590   5.267120   5.267124
                   21         22         23
    21  H    0.000000
    22  H    4.324588   0.000000
    23  H    5.005456   2.480412   0.000000
 Stoichiometry    C13H8BrI(1-,2)
 Framework group  C1[X(C13H8BrI)]
 Deg. of freedom    63
 Full point group                 C1      NOp   1
 Largest Abelian subgroup         C1      NOp   1
 Largest concise Abelian subgroup C1      NOp   1
                         Standard orientation:                         
 ---------------------------------------------------------------------
 Center     Atomic      Atomic             Coordinates (Angstroms)
 Number     Number       Type             X           Y           Z
 ---------------------------------------------------------------------
      1         35           0        5.908593   -0.311782   -0.000002
      2          6           0        4.057653    0.085737   -0.000001
      3          6           0        3.647629    1.421661    0.000001
      4          6           0        2.288411    1.728729    0.000003
      5          6           0        1.357396    0.691882    0.000003
      6          6           0        1.783297   -0.647672    0.000002
      7          6           0        3.136106   -0.963207   -0.000000
      8          6           0        0.592098   -1.575381    0.000005
      9          6           0       -0.573873   -0.615802    0.000003
     10          6           0       -1.934921   -0.895026    0.000002
     11          6           0       -2.831669    0.176772    0.000001
     12         53           0       -4.902338   -0.210877   -0.000001
     13          6           0       -2.382312    1.501162   -0.000000
     14          6           0       -1.014918    1.772373   -0.000000
     15          6           0       -0.111888    0.711509    0.000003
     16          1           0        4.393845    2.217330   -0.000000
     17          1           0        1.967709    2.772705    0.000004
     18          1           0        3.477983   -1.999701   -0.000002
     19          1           0        0.583474   -2.231571    0.885890
     20          1           0        0.583472   -2.231579   -0.885874
     21          1           0       -2.294690   -1.925742    0.000001
     22          1           0       -3.099666    2.323267   -0.000001
     23          1           0       -0.667015    2.807678   -0.000002
 ---------------------------------------------------------------------
 Rotational constants (GHZ):           1.9755139           0.0756735           0.0729150
 Standard basis: def2SVP (5D, 7F)
 There are   298 symmetry adapted cartesian basis functions of A   symmetry.
 There are   280 symmetry adapted basis functions of A   symmetry.
   280 basis functions,   528 primitive gaussians,   298 cartesian basis functions
    74 alpha electrons       73 beta electrons
       nuclear repulsion energy      1306.3981882178 Hartrees.
 NAtoms=   23 NActive=   23 NUniq=   23 SFac= 1.00D+00 NAtFMM=   60 NAOKFM=F Big=F
 Integral buffers will be    131072 words long.
 Raffenetti 2 integral format.
 Two-electron integral symmetry is turned on.
 Nuclear repulsion after empirical dispersion term =     1306.3823307879 Hartrees.
 One-electron integrals computed using PRISM.
   1 Symmetry operations used in ECPInt.
 ECPInt:  NShTT=    7750 NPrTT=   31390 LenC2=    7109 LenP2D=   20416.
 LDataN:  DoStor=T MaxTD1= 6 Len=  172
 NBasis=   280 RedAO= T EigKep=  2.42D-04  NBF=   280
 NBsUse=   280 1.00D-06 EigRej= -1.00D+00 NBFU=   280
 Defaulting to unpruned grid for atomic number  53.
 ExpMin= 1.11D-01 ExpMax= 1.13D+05 ExpMxC= 1.70D+04 IAcc=3 IRadAn=         5 AccDes= 0.00D+00
 Harris functional with IExCor= 4639 and IRadAn=       5 diagonalized for initial guess.
 HarFok:  IExCor= 4639 AccDes= 0.00D+00 IRadAn=         5 IDoV= 1 UseB2=F ITyADJ=14
 ICtDFT=  3500011 ScaDFX=  1.000000  1.000000  1.000000  1.000000
 Defaulting to unpruned grid for atomic number  53.
 FoFCou: FMM=F IPFlag=           0 FMFlag=      100000 FMFlg1=           0
         NFxFlg=           0 DoJE=T BraDBF=F KetDBF=T FulRan=T
         wScrn=  0.000000 ICntrl=       500 IOpCl=  0 I1Cent=   200000004 NGrid=           0
         NMat0=    1 NMatS0=      1 NMatT0=    0 NMatD0=    1 NMtDS0=    0 NMtDT0=    0
 Petite list used in FoFCou.
 Initial guess <Sx>= 0.0000 <Sy>= 0.0000 <Sz>= 0.5000 <S**2>= 0.7500 S= 0.5000
 Requested convergence on RMS density matrix=1.00D-08 within 128 cycles.
 Requested convergence on MAX density matrix=1.00D-06.
 Requested convergence on             energy=1.00D-06.
 No special actions if energy rises.
 Integral accuracy reduced to 1.0D-05 until final iterations.
 Defaulting to unpruned grid for atomic number  53.
 Defaulting to unpruned grid for atomic number  53.
 Defaulting to unpruned grid for atomic number  53.
 Defaulting to unpruned grid for atomic number  53.
 Defaulting to unpruned grid for atomic number  53.
 Defaulting to unpruned grid for atomic number  53.
 Defaulting to unpruned grid for atomic number  53.
 Defaulting to unpruned grid for atomic number  53.
 Defaulting to unpruned grid for atomic number  53.
 Defaulting to unpruned grid for atomic number  53.
 Defaulting to unpruned grid for atomic number  53.
 Defaulting to unpruned grid for atomic number  53.
 Defaulting to unpruned grid for atomic number  53.
 Defaulting to unpruned grid for atomic number  53.
 Defaulting to unpruned grid for atomic number  53.
 Defaulting to unpruned grid for atomic number  53.
 Defaulting to unpruned grid for atomic number  53.
 Defaulting to unpruned grid for atomic number  53.
 Defaulting to unpruned grid for atomic number  53.
 Defaulting to unpruned grid for atomic number  53.
 Defaulting to unpruned grid for atomic number  53.
 Defaulting to unpruned grid for atomic number  53.
 Defaulting to unpruned grid for atomic number  53.
 Defaulting to unpruned grid for atomic number  53.
 Initial convergence to 1.0D-05 achieved.  Increase integral accuracy.
 SCF Done:  E(UwB97XD) =  -3371.36890594     A.U. after   31 cycles
            NFock= 31  Conv=0.93D-08     -V/T= 2.0605
 <Sx>= 0.0000 <Sy>= 0.0000 <Sz>= 0.5000 <S**2>= 0.7772 S= 0.5135
 <L.S>= 0.000000000000E+00
 Annihilation of the first spin contaminant:
 S**2 before annihilation     0.7772,   after     0.7505

 **********************************************************************

            Population analysis using the SCF Density.

 **********************************************************************

 Orbital symmetries:
 Alpha Orbitals:
       Occupied  (A) (A) (A) (A) (A) (A) (A) (A) (A) (A) (A) (A)
                 (A) (A) (A) (A) (A) (A) (A) (A) (A) (A) (A) (A)
                 (A) (A) (A) (A) (A) (A) (A) (A) (A) (A) (A) (A)
                 (A) (A) (A) (A) (A) (A) (A) (A) (A) (A) (A) (A)
                 (A) (A) (A) (A) (A) (A) (A) (A) (A) (A) (A) (A)
                 (A) (A) (A) (A) (A) (A) (A) (A) (A) (A) (A) (A)
                 (A) (A)
       Virtual   (A) (A) (A) (A) (A) (A) (A) (A) (A) (A) (A) (A)
                 (A) (A) (A) (A) (A) (A) (A) (A) (A) (A) (A) (A)
                 (A) (A) (A) (A) (A) (A) (A) (A) (A) (A) (A) (A)
                 (A) (A) (A) (A) (A) (A) (A) (A) (A) (A) (A) (A)
                 (A) (A) (A) (A) (A) (A) (A) (A) (A) (A) (A) (A)
                 (A) (A) (A) (A) (A) (A) (A) (A) (A) (A) (A) (A)
                 (A) (A) (A) (A) (A) (A) (A) (A) (A) (A) (A) (A)
                 (A) (A) (A) (A) (A) (A) (A) (A) (A) (A) (A) (A)
                 (A) (A) (A) (A) (A) (A) (A) (A) (A) (A) (A) (A)
                 (A) (A) (A) (A) (A) (A) (A) (A) (A) (A) (A) (A)
                 (A) (A) (A) (A) (A) (A) (A) (A) (A) (A) (A) (A)
                 (A) (A) (A) (A) (A) (A) (A) (A) (A) (A) (A) (A)
                 (A) (A) (A) (A) (A) (A) (A) (A) (A) (A) (A) (A)
                 (A) (A) (A) (A) (A) (A) (A) (A) (A) (A) (A) (A)
                 (A) (A) (A) (A) (A) (A) (A) (A) (A) (A) (A) (A)
                 (A) (A) (A) (A) (A) (A) (A) (A) (A) (A) (A) (A)
                 (A) (A) (A) (A) (A) (A) (A) (A) (A) (A) (A) (A)
                 (A) (A)
 Beta  Orbitals:
       Occupied  (A) (A) (A) (A) (A) (A) (A) (A) (A) (A) (A) (A)
                 (A) (A) (A) (A) (A) (A) (A) (A) (A) (A) (A) (A)
                 (A) (A) (A) (A) (A) (A) (A) (A) (A) (A) (A) (A)
                 (A) (A) (A) (A) (A) (A) (A) (A) (A) (A) (A) (A)
                 (A) (A) (A) (A) (A) (A) (A) (A) (A) (A) (A) (A)
                 (A) (A) (A) (A) (A) (A) (A) (A) (A) (A) (A) (A)
                 (A)
       Virtual   (A) (A) (A) (A) (A) (A) (A) (A) (A) (A) (A) (A)
                 (A) (A) (A) (A) (A) (A) (A) (A) (A) (A) (A) (A)
                 (A) (A) (A) (A) (A) (A) (A) (A) (A) (A) (A) (A)
                 (A) (A) (A) (A) (A) (A) (A) (A) (A) (A) (A) (A)
                 (A) (A) (A) (A) (A) (A) (A) (A) (A) (A) (A) (A)
                 (A) (A) (A) (A) (A) (A) (A) (A) (A) (A) (A) (A)
                 (A) (A) (A) (A) (A) (A) (A) (A) (A) (A) (A) (A)
                 (A) (A) (A) (A) (A) (A) (A) (A) (A) (A) (A) (A)
                 (A) (A) (A) (A) (A) (A) (A) (A) (A) (A) (A) (A)
                 (A) (A) (A) (A) (A) (A) (A) (A) (A) (A) (A) (A)
                 (A) (A) (A) (A) (A) (A) (A) (A) (A) (A) (A) (A)
                 (A) (A) (A) (A) (A) (A) (A) (A) (A) (A) (A) (A)
                 (A) (A) (A) (A) (A) (A) (A) (A) (A) (A) (A) (A)
                 (A) (A) (A) (A) (A) (A) (A) (A) (A) (A) (A) (A)
                 (A) (A) (A) (A) (A) (A) (A) (A) (A) (A) (A) (A)
                 (A) (A) (A) (A) (A) (A) (A) (A) (A) (A) (A) (A)
                 (A) (A) (A) (A) (A) (A) (A) (A) (A) (A) (A) (A)
                 (A) (A) (A)
 The electronic state is 2-A.
 Alpha  occ. eigenvalues -- -482.93161 -62.51365 -56.32106 -56.31792 -56.31789
 Alpha  occ. eigenvalues --  -10.19669 -10.19169 -10.18127 -10.17349 -10.17320
 Alpha  occ. eigenvalues --  -10.16712 -10.16662 -10.16544 -10.16437 -10.15540
 Alpha  occ. eigenvalues --  -10.15428 -10.14905 -10.14748  -8.68319  -6.83688
 Alpha  occ. eigenvalues --   -6.50776  -6.49607  -6.49584  -4.85813  -4.84494
 Alpha  occ. eigenvalues --   -4.84448  -2.61172  -2.60829  -2.60811  -2.59874
 Alpha  occ. eigenvalues --   -2.59874  -1.89238  -1.88814  -1.88763  -1.87641
 Alpha  occ. eigenvalues --   -1.87641  -0.84740  -0.81735  -0.78317  -0.74531
 Alpha  occ. eigenvalues --   -0.72188  -0.70104  -0.67983  -0.64882  -0.63340
 Alpha  occ. eigenvalues --   -0.58022  -0.54243  -0.52604  -0.52293  -0.47359
 Alpha  occ. eigenvalues --   -0.43788  -0.42071  -0.40838  -0.39850  -0.39204
 Alpha  occ. eigenvalues --   -0.38533  -0.36634  -0.35955  -0.34302  -0.33624
 Alpha  occ. eigenvalues --   -0.32932  -0.30369  -0.29169  -0.28278  -0.27808
 Alpha  occ. eigenvalues --   -0.27373  -0.24606  -0.24552  -0.22119  -0.20633
 Alpha  occ. eigenvalues --   -0.20396  -0.19712  -0.15521  -0.00175
 Alpha virt. eigenvalues --    0.16937   0.18256   0.20399   0.21039   0.21451
 Alpha virt. eigenvalues --    0.27086   0.28111   0.29469   0.30352   0.30979
 Alpha virt. eigenvalues --    0.31906   0.32746   0.36997   0.37211   0.40332
 Alpha virt. eigenvalues --    0.41670   0.41764   0.43655   0.44155   0.45494
 Alpha virt. eigenvalues --    0.46937   0.48080   0.48711   0.50891   0.52366
 Alpha virt. eigenvalues --    0.53785   0.54707   0.55209   0.55988   0.56565
 Alpha virt. eigenvalues --    0.57993   0.58656   0.58901   0.59475   0.61447
 Alpha virt. eigenvalues --    0.62153   0.62341   0.62528   0.64078   0.65252
 Alpha virt. eigenvalues --    0.66175   0.67262   0.67779   0.68030   0.68801
 Alpha virt. eigenvalues --    0.69234   0.70336   0.70545   0.71038   0.72176
 Alpha virt. eigenvalues --    0.72382   0.72937   0.73809   0.74718   0.76541
 Alpha virt. eigenvalues --    0.77268   0.78308   0.81183   0.81316   0.82232
 Alpha virt. eigenvalues --    0.83618   0.84661   0.84881   0.85259   0.86763
 Alpha virt. eigenvalues --    0.86966   0.87139   0.88697   0.89445   0.89459
 Alpha virt. eigenvalues --    0.89688   0.90130   0.90507   0.91297   0.92655
 Alpha virt. eigenvalues --    0.93339   0.94353   0.95024   0.95905   0.96992
 Alpha virt. eigenvalues --    0.98366   0.98832   0.99898   1.00382   1.00658
 Alpha virt. eigenvalues --    1.04671   1.05045   1.07106   1.11016   1.13159
 Alpha virt. eigenvalues --    1.14585   1.17504   1.21558   1.21765   1.25013
 Alpha virt. eigenvalues --    1.28129   1.31732   1.35041   1.38218   1.40732
 Alpha virt. eigenvalues --    1.41812   1.42652   1.42988   1.45286   1.45600
 Alpha virt. eigenvalues --    1.46477   1.47398   1.49086   1.49363   1.51107
 Alpha virt. eigenvalues --    1.53068   1.53201   1.60129   1.61280   1.66885
 Alpha virt. eigenvalues --    1.69589   1.70061   1.70565   1.76174   1.77469
 Alpha virt. eigenvalues --    1.84983   1.90606   1.91471   1.91959   1.93481
 Alpha virt. eigenvalues --    1.94305   1.94713   1.94804   1.96035   1.97237
 Alpha virt. eigenvalues --    1.98251   2.00595   2.02624   2.03542   2.04149
 Alpha virt. eigenvalues --    2.04735   2.06174   2.07504   2.08032   2.09239
 Alpha virt. eigenvalues --    2.10166   2.12870   2.17099   2.17664   2.18205
 Alpha virt. eigenvalues --    2.20593   2.21532   2.24803   2.27019   2.30798
 Alpha virt. eigenvalues --    2.31860   2.34786   2.35909   2.37031   2.37898
 Alpha virt. eigenvalues --    2.38121   2.40398   2.40826   2.46020   2.49728
 Alpha virt. eigenvalues --    2.50005   2.51067   2.51697   2.54383   2.56631
 Alpha virt. eigenvalues --    2.57439   2.58189   2.59401   2.61167   2.67615
 Alpha virt. eigenvalues --    2.68204   2.68778   2.81027   2.81444   2.82683
 Alpha virt. eigenvalues --    2.83370   2.85962   2.86402   2.88568   2.92693
 Alpha virt. eigenvalues --    2.93008   2.93532   2.99588   3.07870   3.08201
 Alpha virt. eigenvalues --    3.10205   3.11241   3.13637   3.18475   3.18748
 Alpha virt. eigenvalues --    3.19504   3.24949   3.35990   3.38498   3.55235
 Alpha virt. eigenvalues --    3.65213   3.67454   3.69098   3.73409   3.83953
 Alpha virt. eigenvalues --    3.86032   4.05650  18.90105  19.10179  19.49656
 Alpha virt. eigenvalues --   56.67033
  Beta  occ. eigenvalues -- -482.93161 -62.51363 -56.32110 -56.31792 -56.31779
  Beta  occ. eigenvalues --  -10.19330 -10.18822 -10.18136 -10.17462 -10.17439
  Beta  occ. eigenvalues --  -10.16703 -10.16635 -10.16486 -10.16390 -10.15318
  Beta  occ. eigenvalues --  -10.15215 -10.14799 -10.14612  -8.68317  -6.83688
  Beta  occ. eigenvalues --   -6.50785  -6.49606  -6.49569  -4.85822  -4.84494
  Beta  occ. eigenvalues --   -4.84440  -2.61176  -2.60833  -2.60802  -2.59867
  Beta  occ. eigenvalues --   -2.59867  -1.89244  -1.88821  -1.88761  -1.87638
  Beta  occ. eigenvalues --   -1.87637  -0.84383  -0.81349  -0.77971  -0.74308
  Beta  occ. eigenvalues --   -0.71716  -0.69794  -0.67709  -0.64750  -0.63106
  Beta  occ. eigenvalues --   -0.57523  -0.54044  -0.52227  -0.51808  -0.47239
  Beta  occ. eigenvalues --   -0.43505  -0.41796  -0.40527  -0.39584  -0.38996
  Beta  occ. eigenvalues --   -0.38358  -0.36472  -0.35830  -0.34055  -0.32674
  Beta  occ. eigenvalues --   -0.31898  -0.30185  -0.28983  -0.28132  -0.27145
  Beta  occ. eigenvalues --   -0.26783  -0.24585  -0.23799  -0.22116  -0.19518
  Beta  occ. eigenvalues --   -0.19401  -0.18465  -0.13510
  Beta virt. eigenvalues --    0.17409   0.17527   0.18414   0.20855   0.21891
  Beta virt. eigenvalues --    0.24570   0.27090   0.28231   0.29562   0.30989
  Beta virt. eigenvalues --    0.31422   0.31948   0.32794   0.37092   0.38248
  Beta virt. eigenvalues --    0.41772   0.41825   0.41892   0.43798   0.44321
  Beta virt. eigenvalues --    0.45600   0.47136   0.48215   0.48895   0.51030
  Beta virt. eigenvalues --    0.52503   0.53911   0.54850   0.55407   0.56142
  Beta virt. eigenvalues --    0.56732   0.58157   0.58776   0.58939   0.59601
  Beta virt. eigenvalues --    0.61568   0.62438   0.62568   0.62888   0.64219
  Beta virt. eigenvalues --    0.65358   0.66381   0.67406   0.68221   0.68326
  Beta virt. eigenvalues --    0.69032   0.69786   0.70464   0.70859   0.71124
  Beta virt. eigenvalues --    0.72504   0.72544   0.73309   0.74019   0.74948
  Beta virt. eigenvalues --    0.76689   0.77394   0.78461   0.81350   0.81553
  Beta virt. eigenvalues --    0.82527   0.83773   0.84927   0.85190   0.85541
  Beta virt. eigenvalues --    0.86860   0.87246   0.87280   0.88895   0.89591
  Beta virt. eigenvalues --    0.89834   0.90122   0.90492   0.90639   0.91477
  Beta virt. eigenvalues --    0.92781   0.93463   0.94565   0.95214   0.96406
  Beta virt. eigenvalues --    0.97303   0.98604   0.99311   1.00119   1.00770
  Beta virt. eigenvalues --    1.00900   1.04820   1.05255   1.07298   1.11134
  Beta virt. eigenvalues --    1.13326   1.14749   1.17629   1.21720   1.21909
  Beta virt. eigenvalues --    1.25138   1.28255   1.31890   1.35211   1.38332
  Beta virt. eigenvalues --    1.40842   1.41976   1.42773   1.43592   1.45779
  Beta virt. eigenvalues --    1.45831   1.46591   1.47998   1.49217   1.49748
  Beta virt. eigenvalues --    1.51210   1.53514   1.53638   1.60335   1.61431
  Beta virt. eigenvalues --    1.67467   1.69686   1.70633   1.70877   1.76455
  Beta virt. eigenvalues --    1.77886   1.85223   1.90983   1.91625   1.92103
  Beta virt. eigenvalues --    1.93798   1.94453   1.94799   1.95225   1.96148
  Beta virt. eigenvalues --    1.97730   1.98522   2.01067   2.03048   2.03779
  Beta virt. eigenvalues --    2.04756   2.04895   2.06537   2.07755   2.08346
  Beta virt. eigenvalues --    2.09482   2.10464   2.12969   2.17230   2.17918
  Beta virt. eigenvalues --    2.18633   2.20714   2.21687   2.25380   2.27281
  Beta virt. eigenvalues --    2.31227   2.32310   2.35250   2.36317   2.37272
  Beta virt. eigenvalues --    2.38298   2.38507   2.40501   2.41168   2.46905
  Beta virt. eigenvalues --    2.50219   2.50236   2.51569   2.51897   2.54885
  Beta virt. eigenvalues --    2.57170   2.57703   2.58429   2.59562   2.61277
  Beta virt. eigenvalues --    2.67957   2.68426   2.69159   2.81187   2.81912
  Beta virt. eigenvalues --    2.83320   2.83884   2.86144   2.86834   2.88726
  Beta virt. eigenvalues --    2.92833   2.93716   2.93769   2.99741   3.08078
  Beta virt. eigenvalues --    3.08436   3.10501   3.11327   3.13829   3.18594
  Beta virt. eigenvalues --    3.18799   3.19640   3.25066   3.36089   3.38627
  Beta virt. eigenvalues --    3.55468   3.65233   3.67601   3.69124   3.73450
  Beta virt. eigenvalues --    3.84117   3.86050   4.05668  18.90127  19.10179
  Beta virt. eigenvalues --   19.49645  56.67038
          Condensed to atoms (all electrons):
               1          2          3          4          5          6
     1  Br  35.102026   0.168550  -0.053858   0.003123   0.001085   0.002784
     2  C    0.168550   5.450800   0.327424   0.040053  -0.132035   0.066866
     3  C   -0.053858   0.327424   4.954030   0.391260   0.073435  -0.122835
     4  C    0.003123   0.040053   0.391260   5.187332   0.286678  -0.009041
     5  C    0.001085  -0.132035   0.073435   0.286678   5.319943   0.311185
     6  C    0.002784   0.066866  -0.122835  -0.009041   0.311185   5.281798
     7  C   -0.052982   0.280085   0.054130  -0.087357   0.014862   0.433186
     8  C   -0.000159   0.013869  -0.001114   0.022910  -0.107026   0.288866
     9  C    0.000002  -0.001778   0.000316   0.012140  -0.032384  -0.080656
    10  C   -0.000000   0.000001   0.000007  -0.000560   0.015130   0.014191
    11  C    0.000000  -0.000000   0.000001   0.000044   0.002936  -0.001812
    12  I   -0.000000   0.000000   0.000000  -0.000000   0.000034   0.000004
    13  C    0.000000   0.000001  -0.000007  -0.000165   0.012979   0.000277
    14  C   -0.000000   0.000047  -0.000191  -0.008116  -0.104150   0.012063
    15  C    0.000016   0.003211   0.012506  -0.103898   0.331163  -0.031816
    16  H   -0.001244  -0.074195   0.427931  -0.055662   0.014275  -0.000994
    17  H   -0.000203   0.015615  -0.081641   0.440426  -0.056986   0.018180
    18  H   -0.000714  -0.077379   0.013336  -0.001579   0.016461  -0.054771
    19  H    0.000002  -0.000206   0.000071  -0.000576   0.001911   0.005458
    20  H    0.000002  -0.000206   0.000071  -0.000576   0.001912   0.005457
    21  H    0.000000  -0.000000  -0.000000   0.000002  -0.000992   0.001123
    22  H    0.000000   0.000000  -0.000000   0.000007  -0.000453   0.000013
    23  H   -0.000000  -0.000019   0.000129   0.004187  -0.025356  -0.000317
               7          8          9         10         11         12
     1  Br  -0.052982  -0.000159   0.000002  -0.000000   0.000000  -0.000000
     2  C    0.280085   0.013869  -0.001778   0.000001  -0.000000   0.000000
     3  C    0.054130  -0.001114   0.000316   0.000007   0.000001   0.000000
     4  C   -0.087357   0.022910   0.012140  -0.000560   0.000044  -0.000000
     5  C    0.014862  -0.107026  -0.032384   0.015130   0.002936   0.000034
     6  C    0.433186   0.288866  -0.080656   0.014191  -0.001812   0.000004
     7  C    5.053834  -0.099179   0.014260  -0.000382   0.000001  -0.000000
     8  C   -0.099179   4.941705   0.290203  -0.099002   0.014176  -0.000241
     9  C    0.014260   0.290203   5.259800   0.458542   0.052281   0.004187
    10  C   -0.000382  -0.099002   0.458542   5.043231   0.264688  -0.062395
    11  C    0.000001   0.014176   0.052281   0.264688   5.584187   0.217399
    12  I   -0.000000  -0.000241   0.004187  -0.062395   0.217399  25.005986
    13  C    0.000008  -0.001060  -0.114545   0.049050   0.314484  -0.062622
    14  C   -0.000567   0.023137  -0.016603  -0.080380   0.027096   0.004088
    15  C    0.014565  -0.108787   0.313760   0.009998  -0.128330   0.001154
    16  H    0.012897   0.000028   0.000011  -0.000000   0.000000  -0.000000
    17  H   -0.002045  -0.000712  -0.000289   0.000040  -0.000019  -0.000000
    18  H    0.432646  -0.019047   0.001075   0.000019  -0.000000  -0.000000
    19  H   -0.002324   0.315250   0.005404  -0.002414  -0.000246   0.000002
    20  H   -0.002323   0.315250   0.005403  -0.002414  -0.000246   0.000002
    21  H    0.000020  -0.019454  -0.053009   0.435734  -0.079938  -0.005166
    22  H   -0.000000   0.000018  -0.000939   0.012436  -0.076407  -0.005304
    23  H    0.000040  -0.000717   0.018337  -0.002091   0.015849  -0.000297
              13         14         15         16         17         18
     1  Br   0.000000  -0.000000   0.000016  -0.001244  -0.000203  -0.000714
     2  C    0.000001   0.000047   0.003211  -0.074195   0.015615  -0.077379
     3  C   -0.000007  -0.000191   0.012506   0.427931  -0.081641   0.013336
     4  C   -0.000165  -0.008116  -0.103898  -0.055662   0.440426  -0.001579
     5  C    0.012979  -0.104150   0.331163   0.014275  -0.056986   0.016461
     6  C    0.000277   0.012063  -0.031816  -0.000994   0.018180  -0.054771
     7  C    0.000008  -0.000567   0.014565   0.012897  -0.002045   0.432646
     8  C   -0.001060   0.023137  -0.108787   0.000028  -0.000712  -0.019047
     9  C   -0.114545  -0.016603   0.313760   0.000011  -0.000289   0.001075
    10  C    0.049050  -0.080380   0.009998  -0.000000   0.000040   0.000019
    11  C    0.314484   0.027096  -0.128330   0.000000  -0.000019  -0.000000
    12  I   -0.062622   0.004088   0.001154  -0.000000  -0.000000  -0.000000
    13  C    4.939663   0.414928   0.068481  -0.000000   0.000126  -0.000000
    14  C    0.414928   5.172592   0.287212   0.000008   0.004154   0.000002
    15  C    0.068481   0.287212   5.326682  -0.000441  -0.025289  -0.000950
    16  H   -0.000000   0.000008  -0.000441   0.718963  -0.013190  -0.000279
    17  H    0.000126   0.004154  -0.025289  -0.013190   0.743512   0.000034
    18  H   -0.000000   0.000002  -0.000950  -0.000279   0.000034   0.730097
    19  H    0.000076  -0.000582   0.002083  -0.000001   0.000016   0.002207
    20  H    0.000076  -0.000582   0.002083  -0.000001   0.000016   0.002207
    21  H    0.012795  -0.001444   0.016612   0.000000   0.000001   0.000000
    22  H    0.430785  -0.054293   0.014425  -0.000000   0.000009   0.000000
    23  H   -0.082224   0.440682  -0.057146   0.000009   0.000402   0.000001
              19         20         21         22         23
     1  Br   0.000002   0.000002   0.000000   0.000000  -0.000000
     2  C   -0.000206  -0.000206  -0.000000   0.000000  -0.000019
     3  C    0.000071   0.000071  -0.000000  -0.000000   0.000129
     4  C   -0.000576  -0.000576   0.000002   0.000007   0.004187
     5  C    0.001911   0.001912  -0.000992  -0.000453  -0.025356
     6  C    0.005458   0.005457   0.001123   0.000013  -0.000317
     7  C   -0.002324  -0.002323   0.000020  -0.000000   0.000040
     8  C    0.315250   0.315250  -0.019454   0.000018  -0.000717
     9  C    0.005404   0.005403  -0.053009  -0.000939   0.018337
    10  C   -0.002414  -0.002414   0.435734   0.012436  -0.002091
    11  C   -0.000246  -0.000246  -0.079938  -0.076407   0.015849
    12  I    0.000002   0.000002  -0.005166  -0.005304  -0.000297
    13  C    0.000076   0.000076   0.012795   0.430785  -0.082224
    14  C   -0.000582  -0.000582  -0.001444  -0.054293   0.440682
    15  C    0.002083   0.002083   0.016612   0.014425  -0.057146
    16  H   -0.000001  -0.000001   0.000000  -0.000000   0.000009
    17  H    0.000016   0.000016   0.000001   0.000009   0.000402
    18  H    0.002207   0.002207   0.000000   0.000000   0.000001
    19  H    0.669647  -0.020680   0.002295  -0.000000   0.000016
    20  H   -0.020680   0.669647   0.002295  -0.000000   0.000016
    21  H    0.002295   0.002295   0.730901  -0.000240   0.000031
    22  H   -0.000000  -0.000000  -0.000240   0.718052  -0.013213
    23  H    0.000016   0.000016   0.000031  -0.013213   0.744476
          Atomic-Atomic Spin Densities.
               1          2          3          4          5          6
     1  Br   0.016623  -0.022874   0.001096   0.000348  -0.000123   0.000234
     2  C   -0.022874   0.416193  -0.017884  -0.024196   0.011358  -0.016724
     3  C    0.001096  -0.017884  -0.116553   0.019320  -0.002628   0.003768
     4  C    0.000348  -0.024196   0.019320   0.295511  -0.093000   0.011298
     5  C   -0.000123   0.011358  -0.002628  -0.093000   0.162254  -0.061320
     6  C    0.000234  -0.016724   0.003768   0.011298  -0.061320   0.073203
     7  C    0.003381  -0.081510   0.001047   0.007875  -0.009779   0.046541
     8  C   -0.000001   0.000516  -0.000005  -0.000569   0.005664  -0.001679
     9  C    0.000000  -0.000102  -0.000020   0.001479  -0.015416   0.005636
    10  C    0.000000  -0.000002  -0.000000   0.000071  -0.001977   0.000381
    11  C   -0.000000   0.000000  -0.000000  -0.000035   0.000670  -0.000111
    12  I    0.000000  -0.000000   0.000000   0.000000  -0.000003   0.000000
    13  C    0.000000  -0.000000  -0.000000   0.000042  -0.000548  -0.000012
    14  C    0.000000  -0.000034   0.000033   0.003892  -0.016236   0.001477
    15  C   -0.000001   0.000654  -0.000430  -0.017325   0.101481  -0.016422
    16  H    0.000116  -0.000564   0.000370  -0.000710   0.000189  -0.000014
    17  H    0.000001  -0.000111  -0.000166   0.005134  -0.001484  -0.000242
    18  H    0.000199  -0.000648  -0.000074  -0.000006  -0.000032  -0.000461
    19  H   -0.000000   0.000048  -0.000006  -0.000015   0.000463  -0.001607
    20  H   -0.000000   0.000048  -0.000006  -0.000015   0.000463  -0.001607
    21  H    0.000000   0.000000   0.000000   0.000000   0.000003  -0.000013
    22  H    0.000000  -0.000000   0.000000   0.000000  -0.000002   0.000000
    23  H    0.000000   0.000000  -0.000003  -0.000038   0.000484   0.000037
               7          8          9         10         11         12
     1  Br   0.003381  -0.000001   0.000000   0.000000  -0.000000   0.000000
     2  C   -0.081510   0.000516  -0.000102  -0.000002   0.000000  -0.000000
     3  C    0.001047  -0.000005  -0.000020  -0.000000  -0.000000   0.000000
     4  C    0.007875  -0.000569   0.001479   0.000071  -0.000035   0.000000
     5  C   -0.009779   0.005664  -0.015416  -0.001977   0.000670  -0.000003
     6  C    0.046541  -0.001679   0.005636   0.000381  -0.000111   0.000000
     7  C    0.041657  -0.001831   0.000278   0.000033  -0.000002   0.000000
     8  C   -0.001831  -0.017668  -0.001115  -0.002312   0.000561  -0.000002
     9  C    0.000278  -0.001115   0.061761   0.048456  -0.017073   0.000236
    10  C    0.000033  -0.002312   0.048456   0.065062  -0.091589   0.003109
    11  C   -0.000002   0.000561  -0.017073  -0.091589   0.444319  -0.017662
    12  I    0.000000  -0.000002   0.000236   0.003109  -0.017662   0.005050
    13  C   -0.000000  -0.000021   0.004261   0.001802  -0.025702   0.000954
    14  C    0.000068  -0.000558   0.011272   0.008478  -0.025001   0.000394
    15  C   -0.001889   0.005724  -0.063743  -0.011618   0.012502  -0.000180
    16  H    0.000103  -0.000001   0.000000   0.000000  -0.000000   0.000000
    17  H    0.000010   0.000002   0.000037  -0.000000   0.000000  -0.000000
    18  H    0.001973   0.000170  -0.000009   0.000000   0.000000   0.000000
    19  H   -0.000489   0.002910  -0.001458  -0.000504   0.000049  -0.000001
    20  H   -0.000489   0.002910  -0.001458  -0.000504   0.000049  -0.000001
    21  H    0.000000   0.000216  -0.000614   0.002395  -0.000793   0.000273
    22  H    0.000000  -0.000001  -0.000019   0.000127  -0.000796   0.000181
    23  H   -0.000000   0.000003  -0.000241   0.000010  -0.000099   0.000002
              13         14         15         16         17         18
     1  Br   0.000000   0.000000  -0.000001   0.000116   0.000001   0.000199
     2  C   -0.000000  -0.000034   0.000654  -0.000564  -0.000111  -0.000648
     3  C   -0.000000   0.000033  -0.000430   0.000370  -0.000166  -0.000074
     4  C    0.000042   0.003892  -0.017325  -0.000710   0.005134  -0.000006
     5  C   -0.000548  -0.016236   0.101481   0.000189  -0.001484  -0.000032
     6  C   -0.000012   0.001477  -0.016422  -0.000014  -0.000242  -0.000461
     7  C   -0.000000   0.000068  -0.001889   0.000103   0.000010   0.001973
     8  C   -0.000021  -0.000558   0.005724  -0.000001   0.000002   0.000170
     9  C    0.004261   0.011272  -0.063743   0.000000   0.000037  -0.000009
    10  C    0.001802   0.008478  -0.011618   0.000000  -0.000000   0.000000
    11  C   -0.025702  -0.025001   0.012502  -0.000000   0.000000   0.000000
    12  I    0.000954   0.000394  -0.000180   0.000000  -0.000000   0.000000
    13  C   -0.108861   0.024211  -0.004105   0.000000  -0.000003   0.000000
    14  C    0.024211   0.287063  -0.098066   0.000000  -0.000035   0.000000
    15  C   -0.004105  -0.098066   0.199683  -0.000002   0.000452   0.000000
    16  H    0.000000   0.000000  -0.000002   0.004298   0.000169   0.000002
    17  H   -0.000003  -0.000035   0.000452   0.000169  -0.014110  -0.000000
    18  H    0.000000   0.000000   0.000000   0.000002  -0.000000  -0.002520
    19  H   -0.000006  -0.000014   0.000491   0.000000  -0.000000  -0.000009
    20  H   -0.000006  -0.000014   0.000491   0.000000  -0.000000  -0.000009
    21  H   -0.000050  -0.000010  -0.000045  -0.000000  -0.000000  -0.000000
    22  H    0.000588  -0.000750   0.000205  -0.000000  -0.000000   0.000000
    23  H   -0.000228   0.005152  -0.001549  -0.000000   0.000022  -0.000000
              19         20         21         22         23
     1  Br  -0.000000  -0.000000   0.000000   0.000000   0.000000
     2  C    0.000048   0.000048   0.000000  -0.000000   0.000000
     3  C   -0.000006  -0.000006   0.000000   0.000000  -0.000003
     4  C   -0.000015  -0.000015   0.000000   0.000000  -0.000038
     5  C    0.000463   0.000463   0.000003  -0.000002   0.000484
     6  C   -0.001607  -0.001607  -0.000013   0.000000   0.000037
     7  C   -0.000489  -0.000489   0.000000   0.000000  -0.000000
     8  C    0.002910   0.002910   0.000216  -0.000001   0.000003
     9  C   -0.001458  -0.001458  -0.000614  -0.000019  -0.000241
    10  C   -0.000504  -0.000504   0.002395   0.000127   0.000010
    11  C    0.000049   0.000049  -0.000793  -0.000796  -0.000099
    12  I   -0.000001  -0.000001   0.000273   0.000181   0.000002
    13  C   -0.000006  -0.000006  -0.000050   0.000588  -0.000228
    14  C   -0.000014  -0.000014  -0.000010  -0.000750   0.005152
    15  C    0.000491   0.000491  -0.000045   0.000205  -0.001549
    16  H    0.000000   0.000000  -0.000000  -0.000000  -0.000000
    17  H   -0.000000  -0.000000  -0.000000  -0.000000   0.000022
    18  H   -0.000009  -0.000009  -0.000000   0.000000  -0.000000
    19  H    0.004884  -0.000569  -0.000012   0.000000  -0.000000
    20  H   -0.000569   0.004883  -0.000012   0.000000  -0.000000
    21  H   -0.000012  -0.000012  -0.003530   0.000003  -0.000000
    22  H    0.000000   0.000000   0.000003   0.004007   0.000184
    23  H   -0.000000  -0.000000  -0.000000   0.000184  -0.013754
 Mulliken charges and spin densities:
               1          2
     1  Br  -0.168429  -0.001002
     2  C   -0.080705   0.264169
     3  C    0.004998  -0.112142
     4  C   -0.120629   0.209065
     5  C    0.055391   0.080480
     6  C   -0.139209   0.042362
     7  C   -0.063374   0.006976
     8  C    0.231089  -0.007090
     9  C   -0.135519   0.032149
    10  C   -0.053428   0.021416
    11  C   -0.206145   0.279286
    12  I   -0.096830  -0.007649
    13  C    0.016896  -0.107684
    14  C   -0.119101   0.201323
    15  C    0.052707   0.106308
    16  H   -0.028114   0.003955
    17  H   -0.042159  -0.010323
    18  H   -0.043367  -0.001426
    19  H    0.022593   0.004153
    20  H    0.022592   0.004153
    21  H   -0.041565  -0.002189
    22  H   -0.024896   0.003728
    23  H   -0.042794  -0.010017
 Sum of Mulliken charges =  -1.00000   1.00000
 Mulliken charges and spin densities with hydrogens summed into heavy atoms:
               1          2
     1  Br  -0.168429  -0.001002
     2  C   -0.080705   0.264169
     3  C   -0.023116  -0.108187
     4  C   -0.162788   0.198742
     5  C    0.055391   0.080480
     6  C   -0.139209   0.042362
     7  C   -0.106741   0.005550
     8  C    0.276274   0.001217
     9  C   -0.135519   0.032149
    10  C   -0.094993   0.019227
    11  C   -0.206145   0.279286
    12  I   -0.096830  -0.007649
    13  C   -0.008000  -0.103957
    14  C   -0.161895   0.191306
    15  C    0.052707   0.106308
 Electronic spatial extent (au):  <R**2>=           9032.3089
 Charge=             -1.0000 electrons
 Dipole moment (field-independent basis, Debye):
    X=             -2.2540    Y=             -1.1697    Z=             -0.0000  Tot=              2.5394
 Quadrupole moment (field-independent basis, Debye-Ang):
   XX=           -195.6620   YY=           -121.3372   ZZ=           -129.2142
   XY=              0.1269   XZ=              0.0000   YZ=             -0.0000
 Traceless Quadrupole moment (field-independent basis, Debye-Ang):
   XX=            -46.9242   YY=             27.4006   ZZ=             19.5236
   XY=              0.1269   XZ=              0.0000   YZ=             -0.0000
 Octapole moment (field-independent basis, Debye-Ang**2):
  XXX=           -182.7827  YYY=            -23.6605  ZZZ=             -0.0001  XYY=            -19.8849
  XXY=              0.1710  XXZ=             -0.0000  XZZ=            -23.5423  YZZ=            -12.8391
  YYZ=             -0.0001  XYZ=             -0.0000
 Hexadecapole moment (field-independent basis, Debye-Ang**3):
 XXXX=         -12063.8142 YYYY=           -857.2530 ZZZZ=           -161.3280 XXXY=             38.6964
 XXXZ=              0.0005 YYYX=             -9.4898 YYYZ=              0.0000 ZZZX=              0.0001
 ZZZY=             -0.0000 XXYY=          -1891.5408 XXZZ=          -1850.1551 YYZZ=           -184.2730
 XXYZ=              0.0000 YYXZ=              0.0000 ZZXY=             -5.6013
 N-N= 1.306382330788D+03 E-N=-1.057332819484D+04  KE= 3.179130658357D+03
 StAtR1:  DoIntr=F IAtCor=3 NETot=     146 Failed=F Sum=  2.80D+01 SumC=  0.00D+00
 There are a total of      553078 grid points.
 ElSum from          density=      147.0000192769
 ElSum from atomic densities=      174.0001264328

 Hirshfeld populations at iteration   1 (CX, CA, CB, DipXYZ):
               1          2          3          4          5          6
     1  Br   0.000000  17.586415  17.561381  -0.142525   0.030280   0.000000
     2  C    0.000000   3.110249   2.946509   0.062560  -0.021365   0.000000
     3  C    0.000000   3.028462   3.048753   0.018576   0.036622   0.000000
     4  C    0.000000   3.110918   2.983203  -0.039455   0.023651  -0.000000
     5  C    0.000000   3.071402   2.981455  -0.000954   0.024599  -0.000000
     6  C    0.000000   3.033665   2.987058  -0.056503  -0.045193   0.000000
     7  C    0.000000   3.064384   3.029521   0.003804  -0.036880   0.000000
     8  C    0.000000   3.029630   3.023904   0.000004   0.006290  -0.000000
     9  C    0.000000   3.032832   2.988649   0.056022  -0.046521   0.000000
    10  C    0.000000   3.069726   3.024538  -0.003758  -0.034946  -0.000000
    11  C    0.000000   3.120205   2.945992  -0.070599  -0.021059  -0.000000
    12  I    0.000000  12.590385  12.570050   0.139511   0.024940   0.000000
    13  C    0.000000   3.029846   3.045905  -0.016566   0.036286  -0.000000
    14  C    0.000000   3.110243   2.984768   0.041194   0.021852  -0.000000
    15  C    0.000000   3.078516   2.976496   0.001760   0.024916   0.000000
    16  H    0.000000   0.488807   0.490361   0.083517   0.117724  -0.000000
    17  H    0.000000   0.496251   0.486549  -0.042297   0.135023   0.000000
    18  H    0.000000   0.491960   0.489271   0.027447  -0.139885  -0.000000
    19  H    0.000000   0.488324   0.484111  -0.001201  -0.084480   0.111742
    20  H    0.000000   0.488324   0.484111  -0.001202  -0.084481  -0.111742
    21  H    0.000000   0.493358   0.489802  -0.026566  -0.137197  -0.000000
    22  H    0.000000   0.489715   0.490872  -0.075500   0.119870  -0.000000
    23  H    0.000000   0.496394   0.486752   0.045937   0.133690  -0.000000
       Tot   0.000000  74.000010  73.000010   0.003207   0.083736   0.000000

 Dip from Atomic Chgs             -0.890099  -0.543946  -0.000000
         Total Dipole             -0.886892  -0.460211  -0.000000

 Hirshfeld charges, spin densities, dipoles, and CM5 charges using IRadAn=      5:
              Q-H        S-H        Dx         Dy         Dz        Q-CM5   
     1  Br  -0.147796   0.025034  -0.142525   0.030280   0.000000  -0.132766
     2  C   -0.056758   0.163739   0.062560  -0.021365   0.000000  -0.077915
     3  C   -0.077215  -0.020291   0.018576   0.036622   0.000000  -0.129814
     4  C   -0.094121   0.127715  -0.039455   0.023651  -0.000000  -0.145441
     5  C   -0.052857   0.089948  -0.000954   0.024599  -0.000000  -0.057598
     6  C   -0.020722   0.046607  -0.056503  -0.045193   0.000000  -0.030846
     7  C   -0.093905   0.034862   0.003804  -0.036880   0.000000  -0.143928
     8  C   -0.053534   0.005725   0.000004   0.006290  -0.000000  -0.147261
     9  C   -0.021481   0.044183   0.056022  -0.046521   0.000000  -0.031675
    10  C   -0.094265   0.045188  -0.003758  -0.034946  -0.000000  -0.145149
    11  C   -0.066196   0.174213  -0.070599  -0.021059  -0.000000  -0.095838
    12  I   -0.160435   0.020335   0.139511   0.024940   0.000000  -0.134571
    13  C   -0.075751  -0.016059  -0.016566   0.036286  -0.000000  -0.129210
    14  C   -0.095011   0.125475   0.041194   0.021852  -0.000000  -0.146398
    15  C   -0.055012   0.102020   0.001760   0.024916   0.000000  -0.059765
    16  H    0.020832  -0.001555   0.083517   0.117724  -0.000000   0.076651
    17  H    0.017200   0.009703  -0.042297   0.135023   0.000000   0.072658
    18  H    0.018769   0.002689   0.027447  -0.139885  -0.000000   0.074908
    19  H    0.027566   0.004213  -0.001201  -0.084480   0.111742   0.081936
    20  H    0.027566   0.004213  -0.001202  -0.084481  -0.111742   0.081936
    21  H    0.016840   0.003557  -0.026566  -0.137197  -0.000000   0.072764
    22  H    0.019413  -0.001158  -0.075500   0.119870  -0.000000   0.075005
    23  H    0.016854   0.009643   0.045937   0.133690  -0.000000   0.072297
       Tot  -1.000019   1.000000   0.003207   0.083736   0.000000  -1.000019
 Hirshfeld charges and spin densities with hydrogens summed into heavy atoms:
              Q-H        S-H       Q-CM5   
     1  Br  -0.147796   0.025034  -0.132766
     2  C   -0.056758   0.163739  -0.077915
     3  C   -0.056383  -0.021846  -0.053163
     4  C   -0.076921   0.137418  -0.072783
     5  C   -0.052857   0.089948  -0.057598
     6  C   -0.020722   0.046607  -0.030846
     7  C   -0.075135   0.037551  -0.069020
     8  C    0.001597   0.014152   0.016611
     9  C   -0.021481   0.044183  -0.031675
    10  C   -0.077424   0.048745  -0.072385
    11  C   -0.066196   0.174213  -0.095838
    12  I   -0.160435   0.020335  -0.134571
    13  C   -0.056338  -0.017217  -0.054204
    14  C   -0.078157   0.135118  -0.074101
    15  C   -0.055012   0.102020  -0.059765
 
 EQQ= 0.795976630003E-01 EQD=-0.317720117432E-01 EDD= 0.395400422197E-02
 EQQ+QD+DD= 0.517796554790E-01
 
                          Isotropic Fermi Contact Couplings
        Atom                 a.u.       MegaHertz       Gauss      10(-4) cm-1
     1  Br(79)            -0.00015      -0.16463      -0.05874      -0.05491
     2  C(13)              0.05364      60.30155      21.51709      20.11443
     3  C(13)             -0.02964     -33.31688     -11.88829     -11.11332
     4  C(13)              0.02903      32.64083      11.64706      10.88781
     5  C(13)              0.00176       1.97840       0.70594       0.65992
     6  C(13)              0.00374       4.19916       1.49837       1.40069
     7  C(13)             -0.00842      -9.46698      -3.37806      -3.15785
     8  C(13)             -0.00525      -5.90428      -2.10679      -1.96945
     9  C(13)              0.00131       1.47761       0.52725       0.49288
    10  C(13)             -0.00599      -6.73160      -2.40200      -2.24542
    11  C(13)              0.05617      63.14078      22.53020      21.06150
    12  I(127)            -0.00000      -0.00062      -0.00022      -0.00021
    13  C(13)             -0.02880     -32.37515     -11.55226     -10.79919
    14  C(13)              0.02721      30.58868      10.91480      10.20328
    15  C(13)              0.00677       7.61441       2.71701       2.53989
    16  H(1)               0.00108       4.81277       1.71731       1.60537
    17  H(1)              -0.00291     -13.02490      -4.64761      -4.34464
    18  H(1)              -0.00043      -1.90039      -0.67811      -0.63390
    19  H(1)               0.00283      12.63664       4.50907       4.21513
    20  H(1)               0.00283      12.63646       4.50900       4.21507
    21  H(1)              -0.00064      -2.84218      -1.01416      -0.94805
    22  H(1)               0.00101       4.51148       1.60981       1.50487
    23  H(1)              -0.00282     -12.59428      -4.49395      -4.20100
 --------------------------------------------------------
       Center         ----  Spin Dipole Couplings  ----
                      3XX-RR        3YY-RR        3ZZ-RR
 --------------------------------------------------------
     1   Atom       -0.212161     -0.027223      0.239384
     2   Atom       -0.143279     -0.157021      0.300300
     3   Atom        0.043208      0.041492     -0.084700
     4   Atom       -0.101249     -0.101268      0.202518
     5   Atom       -0.052418     -0.065753      0.118170
     6   Atom       -0.025872     -0.031067      0.056939
     7   Atom       -0.010177     -0.014001      0.024179
     8   Atom       -0.000216      0.000888     -0.000671
     9   Atom       -0.021066     -0.027147      0.048212
    10   Atom       -0.018386     -0.021751      0.040137
    11   Atom       -0.141155     -0.161335      0.302490
    12   Atom       -0.000400     -0.004256      0.004655
    13   Atom        0.040762      0.038904     -0.079666
    14   Atom       -0.097458     -0.097874      0.195332
    15   Atom       -0.065136     -0.078249      0.143385
    16   Atom        0.002746      0.001216     -0.003961
    17   Atom       -0.010477      0.012018     -0.001541
    18   Atom       -0.001076      0.003637     -0.002561
    19   Atom        0.000303      0.002001     -0.002304
    20   Atom        0.000303      0.002001     -0.002304
    21   Atom       -0.001942      0.004463     -0.002521
    22   Atom        0.002945      0.001077     -0.004022
    23   Atom       -0.009779      0.011424     -0.001645
 --------------------------------------------------------
                        XY            XZ            YZ
 --------------------------------------------------------
     1   Atom        0.042920      0.000002     -0.000000
     2   Atom       -0.002085      0.000000     -0.000000
     3   Atom       -0.006310     -0.000000      0.000000
     4   Atom        0.000074      0.000000     -0.000000
     5   Atom        0.001720      0.000000     -0.000000
     6   Atom       -0.004095      0.000000     -0.000000
     7   Atom        0.001990      0.000000     -0.000000
     8   Atom       -0.000161     -0.000000      0.000000
     9   Atom        0.004310      0.000000      0.000000
    10   Atom       -0.002376     -0.000000     -0.000000
    11   Atom        0.002663     -0.000000      0.000000
    12   Atom        0.000733     -0.000000      0.000000
    13   Atom        0.006566      0.000000     -0.000000
    14   Atom       -0.000227     -0.000000      0.000001
    15   Atom       -0.001580     -0.000000      0.000000
    16   Atom       -0.003084     -0.000000      0.000000
    17   Atom       -0.006973      0.000000      0.000000
    18   Atom       -0.003043     -0.000000      0.000000
    19   Atom       -0.000050      0.000005     -0.002026
    20   Atom       -0.000050     -0.000005      0.002026
    21   Atom        0.003831     -0.000000      0.000000
    22   Atom        0.002582     -0.000000     -0.000000
    23   Atom        0.007525     -0.000000     -0.000000
 --------------------------------------------------------


 ---------------------------------------------------------------------------------
              Anisotropic Spin Dipole Couplings in Principal Axis System
 ---------------------------------------------------------------------------------

       Atom             a.u.   MegaHertz   Gauss  10(-4) cm-1        Axes

              Baa    -0.2216   -29.730   -10.608    -9.917  0.9765 -0.2156 -0.0000
     1 Br(79) Bbb    -0.0177    -2.381    -0.849    -0.794  0.2156  0.9765  0.0000
              Bcc     0.2394    32.110    11.458    10.711  0.0000 -0.0000  1.0000
 
              Baa    -0.1573   -21.112    -7.533    -7.042  0.1468  0.9892  0.0000
     2 C(13)  Bbb    -0.1430   -19.185    -6.846    -6.399  0.9892 -0.1468 -0.0000
              Bcc     0.3003    40.297    14.379    13.442  0.0000 -0.0000  1.0000
 
              Baa    -0.0847   -11.366    -4.056    -3.791  0.0000 -0.0000  1.0000
     3 C(13)  Bbb     0.0360     4.828     1.723     1.611  0.6578  0.7532 -0.0000
              Bcc     0.0487     6.538     2.333     2.181  0.7532 -0.6578 -0.0000
 
              Baa    -0.1013   -13.598    -4.852    -4.536 -0.6609  0.7505  0.0000
     4 C(13)  Bbb    -0.1012   -13.578    -4.845    -4.529  0.7505  0.6609 -0.0000
              Bcc     0.2025    27.176     9.697     9.065  0.0000 -0.0000  1.0000
 
              Baa    -0.0660    -8.853    -3.159    -2.953 -0.1259  0.9920  0.0000
     5 C(13)  Bbb    -0.0522    -7.005    -2.499    -2.336  0.9920  0.1259 -0.0000
              Bcc     0.1182    15.857     5.658     5.289  0.0000 -0.0000  1.0000
 
              Baa    -0.0333    -4.471    -1.595    -1.491  0.4819  0.8762  0.0000
     6 C(13)  Bbb    -0.0236    -3.170    -1.131    -1.057  0.8762 -0.4819 -0.0000
              Bcc     0.0569     7.641     2.726     2.549  0.0000 -0.0000  1.0000
 
              Baa    -0.0148    -1.993    -0.711    -0.665 -0.3919  0.9200  0.0000
     7 C(13)  Bbb    -0.0093    -1.252    -0.447    -0.418  0.9200  0.3919  0.0000
              Bcc     0.0242     3.245     1.158     1.082  0.0000 -0.0000  1.0000
 
              Baa    -0.0007    -0.090    -0.032    -0.030  0.0000 -0.0000  1.0000
     8 C(13)  Bbb    -0.0002    -0.032    -0.011    -0.011  0.9899  0.1417 -0.0000
              Bcc     0.0009     0.122     0.044     0.041 -0.1417  0.9899  0.0000
 
              Baa    -0.0294    -3.943    -1.407    -1.315 -0.4602  0.8878 -0.0000
     9 C(13)  Bbb    -0.0188    -2.527    -0.902    -0.843  0.8878  0.4602 -0.0000
              Bcc     0.0482     6.470     2.309     2.158  0.0000  0.0000  1.0000
 
              Baa    -0.0230    -3.084    -1.100    -1.029  0.4593  0.8883  0.0000
    10 C(13)  Bbb    -0.0172    -2.302    -0.822    -0.768  0.8883 -0.4593  0.0000
              Bcc     0.0401     5.386     1.922     1.797 -0.0000 -0.0000  1.0000
 
              Baa    -0.1617   -21.696    -7.742    -7.237 -0.1287  0.9917 -0.0000
    11 C(13)  Bbb    -0.1408   -18.895    -6.742    -6.303  0.9917  0.1287  0.0000
              Bcc     0.3025    40.591    14.484    13.540 -0.0000  0.0000  1.0000
 
              Baa    -0.0044    -0.472    -0.168    -0.157 -0.1807  0.9835 -0.0000
    12 I(127) Bbb    -0.0003    -0.028    -0.010    -0.010  0.9835  0.1807  0.0000
              Bcc     0.0047     0.500     0.179     0.167 -0.0000  0.0000  1.0000
 
              Baa    -0.0797   -10.690    -3.815    -3.566 -0.0000  0.0000  1.0000
    13 C(13)  Bbb     0.0332     4.455     1.590     1.486 -0.6557  0.7550 -0.0000
              Bcc     0.0465     6.235     2.225     2.080  0.7550  0.6557 -0.0000
 
              Baa    -0.0980   -13.147    -4.691    -4.385  0.4028  0.9153 -0.0000
    14 C(13)  Bbb    -0.0974   -13.064    -4.662    -4.358  0.9153 -0.4028  0.0000
              Bcc     0.1953    26.212     9.353     8.743 -0.0000  0.0000  1.0000
 
              Baa    -0.0784   -10.525    -3.756    -3.511  0.1180  0.9930 -0.0000
    15 C(13)  Bbb    -0.0649    -8.715    -3.110    -2.907  0.9930 -0.1180  0.0000
              Bcc     0.1434    19.241     6.866     6.418 -0.0000  0.0000  1.0000
 
              Baa    -0.0040    -2.114    -0.754    -0.705  0.0000 -0.0000  1.0000
    16 H(1)   Bbb    -0.0012    -0.639    -0.228    -0.213  0.6161  0.7876  0.0000
              Bcc     0.0052     2.752     0.982     0.918  0.7876 -0.6161 -0.0000
 
              Baa    -0.0125    -6.650    -2.373    -2.218  0.9617  0.2740 -0.0000
    17 H(1)   Bbb    -0.0015    -0.822    -0.293    -0.274  0.0000 -0.0000  1.0000
              Bcc     0.0140     7.472     2.666     2.492 -0.2740  0.9617  0.0000
 
              Baa    -0.0026    -1.371    -0.489    -0.457  0.8978  0.4403  0.0004
    18 H(1)   Bbb    -0.0026    -1.366    -0.488    -0.456 -0.0004 -0.0002  1.0000
              Bcc     0.0051     2.737     0.977     0.913 -0.4403  0.8978  0.0000
 
              Baa    -0.0031    -1.658    -0.592    -0.553  0.0040  0.3687  0.9295
    19 H(1)   Bbb     0.0003     0.161     0.058     0.054  0.9998  0.0166 -0.0109
              Bcc     0.0028     1.497     0.534     0.499 -0.0194  0.9294 -0.3685
 
              Baa    -0.0031    -1.658    -0.592    -0.553 -0.0040 -0.3687  0.9295
    20 H(1)   Bbb     0.0003     0.161     0.058     0.054  0.9998  0.0166  0.0109
              Bcc     0.0028     1.497     0.534     0.499 -0.0194  0.9294  0.3685
 
              Baa    -0.0037    -1.992    -0.711    -0.664  0.9059 -0.4234  0.0000
    21 H(1)   Bbb    -0.0025    -1.345    -0.480    -0.449 -0.0000  0.0000  1.0000
              Bcc     0.0063     3.336     1.191     1.113  0.4234  0.9059  0.0000
 
              Baa    -0.0040    -2.146    -0.766    -0.716 -0.0000  0.0000  1.0000
    22 H(1)   Bbb    -0.0007    -0.392    -0.140    -0.131 -0.5743  0.8186 -0.0000
              Bcc     0.0048     2.538     0.906     0.847  0.8186  0.5743 -0.0000
 
              Baa    -0.0122    -6.498    -2.319    -2.167  0.9527 -0.3038  0.0000
    23 H(1)   Bbb    -0.0016    -0.878    -0.313    -0.293 -0.0000  0.0000  1.0000
              Bcc     0.0138     7.375     2.632     2.460  0.3038  0.9527 -0.0000
 

 ---------------------------------------------------------------------------------

 Running external command "gaunbo6 R"
         input file       "/home/rpaton/arbr500/dzvp/fukui/Gau-1913389.EIn"
         output file      "/home/rpaton/arbr500/dzvp/fukui/Gau-1913389.EOu"
         message file     "/home/rpaton/arbr500/dzvp/fukui/Gau-1913389.EMs"
         fchk file        "/home/rpaton/arbr500/dzvp/fukui/Gau-1913389.EFC"
         mat. el file     "/home/rpaton/arbr500/dzvp/fukui/Gau-1913389.EUF"

 Writing WrtUnf unformatted file "/home/rpaton/arbr500/dzvp/fukui/Gau-1913389.EUF"
 Gaussian matrix elements                                         Version   2 NLab=11 Len12L=8 Len4L=8
 Write SHELL TO ATOM MAP                   from file      0 offset           0 length                 124 to matrix element file.
 Write SHELL TYPES                         from file      0 offset           0 length                 124 to matrix element file.
 Write NUMBER OF PRIMITIVES PER SHELL      from file      0 offset           0 length                 124 to matrix element file.
 Write PRIMITIVE EXPONENTS                 from file      0 offset           0 length                 249 to matrix element file.
 Write CONTRACTION COEFFICIENTS            from file      0 offset           0 length                 249 to matrix element file.
 Write P(S=P) CONTRACTION COEFFICIENTS     from file      0 offset           0 length                 249 to matrix element file.
 Write COORDINATES OF EACH SHELL           from file      0 offset           0 length                 372 to matrix element file.
 Write BONDS PER ATOM                      from file      0 offset           0 length                  23 to matrix element file.
 Write BONDED ATOMS                        from file      0 offset           0 length                  50 to matrix element file.
 Write BOND TYPES                          from file      0 offset           0 length                  50 to matrix element file.
 Write ONIOM CHARGE/MULT                   from file      0 offset           0 length                  32 to matrix element file.
 Write ONIOM ATOM LAYERS                   from file      0 offset           0 length                  23 to matrix element file.
 Write ONIOM ATOM MODIFIERS                from file      0 offset           0 length                  23 to matrix element file.
 Write ONIOM ATOM TYPES                    from file      0 offset           0 length                  23 to matrix element file.
 Write ONIOM LINK ATOMS                    from file      0 offset           0 length                  23 to matrix element file.
 Write ONIOM LINK CHARGES                  from file      0 offset           0 length                  23 to matrix element file.
 Write ONIOM LINK DISTANCES                from file      0 offset           0 length                  92 to matrix element file.
 Write SYMINF INTS                         from file      0 offset           0 length                  26 to matrix element file.
 Write ROTTR TO SO                         from file      0 offset           0 length                  12 to matrix element file.
 Write GAUSSIAN SCALARS                    from file    501 offset           0 to matrix element file.
 Write OPTIMIZATION FLAGS                  from file      0 offset           0 length                  23 to matrix element file.
 Write INTEGER ISO                         from file      0 offset           0 length                  23 to matrix element file.
 Write INTEGER SPIN                        from file      0 offset           0 length                  23 to matrix element file.
 Write REAL ZEFFECTIVE                     from file      0 offset           0 length                  23 to matrix element file.
 Write REAL QUADRUPOLEMOMENT               from file      0 offset           0 length                  23 to matrix element file.
 Write REAL GFACTOR                        from file      0 offset           0 length                  23 to matrix element file.
 Write REAL ZNUCLEAR                       from file      0 offset           0 length                  23 to matrix element file.
 Write MULLIKEN CHARGES                    from file      0 offset           0 length                  23 to matrix element file.
 Write TYPE 6 CHARGES                      from file      0 offset           0 length                  23 to matrix element file.
 Write TYPE 7 CHARGES                      from file      0 offset           0 length                  23 to matrix element file.
 Write NUCLEAR GRADIENT                    from file  10584 offset           0 length                  69 to matrix element file.
 Array NUCLEAR FORCE CONSTANTS              on  file  10585 does not exist.
 Write ELECTRIC DIPOLE MOMENT              from file      0 offset           0 length                   3 to matrix element file.
 Write NON-ADIABATIC COUPLING              from file  10810 offset           0 length                  69 to matrix element file.
 Write FINITE EM FIELD                     from file  10521 offset           0 length                  35 to matrix element file.
 Write OVERLAP                             from file  10514 offset           0 length               39340 to matrix element file.
 Write CORE HAMILTONIAN ALPHA              from file  10515 offset           0 length               39340 to matrix element file.
 Write CORE HAMILTONIAN BETA               from file  10515 offset       39340 length               39340 to matrix element file.
 Write KINETIC ENERGY                      from file  10516 offset           0 length               39340 to matrix element file.
 Write ORTHOGONAL BASIS                    from file  10685 offset           0 length               78400 to matrix element file.
 Write DIPOLE INTEGRALS                    from file  10518 offset           0 length              118020 to matrix element file.
 Array DIP VEL INTEGRALS                    on  file  10572 does not exist.
 Array R X DEL INTEGRALS                    on  file  10572 does not exist.
 Write ALPHA ORBITAL ENERGIES              from file      0 offset           0 length                 280 to matrix element file.
 Write BETA ORBITAL ENERGIES               from file      0 offset           0 length                 280 to matrix element file.
 Write ALPHA MO COEFFICIENTS               from file  10524 offset           0 length               78400 to matrix element file.
 Write BETA MO COEFFICIENTS                from file  10526 offset           0 length               78400 to matrix element file.
 Write ALPHA DENSITY MATRIX                from file      0 offset           0 length               39340 to matrix element file.
 Write BETA DENSITY MATRIX                 from file      0 offset           0 length               39340 to matrix element file.
 Write ALPHA FOCK MATRIX                   from file  10536 offset           0 length               39340 to matrix element file.
 Write BETA FOCK MATRIX                    from file  10538 offset           0 length               39340 to matrix element file.
 Write ENERGY-WEIGHTED DENSITY             from file  10571 offset           0 length               39340 to matrix element file.
 Write ALPHA SCF DENSITY MATRIX            from file      0 offset           0 length               39340 to matrix element file.
 Write BETA SCF DENSITY MATRIX             from file      0 offset           0 length               39340 to matrix element file.
 No 2e integrals to process.
 Perform NBO analysis...

 *********************************** NBO 7.0 ***********************************
             N A T U R A L   A T O M I C   O R B I T A L   A N D
          N A T U R A L   B O N D   O R B I T A L   A N A L Y S I S
 **************************** Robert Paton (I101709) ***************************
  (c) Copyright 1996-2019 Board of Regents of the University of Wisconsin System
      on behalf of the Theoretical Chemistry Institute.  All rights reserved.

          Cite this program [NBO 7.0.5 (4-Jun-2019)] as:

          NBO 7.0.  E. D. Glendening, J. K. Badenhoop, A. E. Reed,
          J. E. Carpenter, J. A. Bohmann, C. M. Morales, P. Karafiloglou,
          C. R. Landis, and F. Weinhold, Theoretical Chemistry Institute,
          University of Wisconsin, Madison, WI (2018)

 Filename set to /home/rpaton/arbr500/dzvp/fukui/Gau-1913389

 Job title:  arbr35_wb97xd_redcreated by GaussianPrep


 NATURAL POPULATIONS:  Natural atomic orbital occupancies

  NAO Atom No lang   Type(AO)    Occupancy     Spin
 -----------------------------------------------------
   1   Br  1  s      Cor( 1s)     2.00000     0.00000
   2   Br  1  s      Cor( 2s)     2.00000     0.00000
   3   Br  1  s      Cor( 3s)     2.00000     0.00000
   4   Br  1  s      Val( 4s)     1.84144     0.00037
   5   Br  1  s      Ryd( 5s)     0.00302     0.00009
   6   Br  1  px     Cor( 2p)     2.00000     0.00000
   7   Br  1  px     Cor( 3p)     2.00000     0.00000
   8   Br  1  px     Val( 4p)     1.26290    -0.01155
   9   Br  1  px     Ryd( 5p)     0.00275     0.00004
  10   Br  1  py     Cor( 2p)     2.00000     0.00000
  11   Br  1  py     Cor( 3p)     2.00000     0.00000
  12   Br  1  py     Val( 4p)     1.94665    -0.00049
  13   Br  1  py     Ryd( 5p)     0.00118     0.00001
  14   Br  1  pz     Cor( 2p)     2.00000     0.00000
  15   Br  1  pz     Cor( 3p)     2.00000     0.00000
  16   Br  1  pz     Val( 4p)     1.96436     0.01347
  17   Br  1  pz     Ryd( 5p)     0.00152     0.00051
  18   Br  1  dxy    Cor( 3d)     2.00000     0.00000
  19   Br  1  dxy    Ryd( 4d)     0.00158    -0.00002
  20   Br  1  dxy    Ryd( 5d)     0.00000     0.00000
  21   Br  1  dxz    Cor( 3d)     2.00000     0.00000
  22   Br  1  dxz    Ryd( 4d)     0.00384     0.00122
  23   Br  1  dxz    Ryd( 5d)     0.00000     0.00000
  24   Br  1  dyz    Cor( 3d)     2.00000     0.00000
  25   Br  1  dyz    Ryd( 4d)     0.00029     0.00011
  26   Br  1  dyz    Ryd( 5d)     0.00000     0.00000
  27   Br  1  dx2y2  Cor( 3d)     1.99999     0.00000
  28   Br  1  dx2y2  Ryd( 4d)     0.00440    -0.00002
  29   Br  1  dx2y2  Ryd( 5d)     0.00000     0.00000
  30   Br  1  dz2    Cor( 3d)     2.00000     0.00000
  31   Br  1  dz2    Ryd( 4d)     0.00172     0.00001
  32   Br  1  dz2    Ryd( 5d)     0.00000     0.00000

  33    C  2  s      Cor( 1s)     1.99997     0.00000
  34    C  2  s      Val( 2s)     0.90592     0.01082
  35    C  2  s      Ryd( 3s)     0.00091     0.00001
  36    C  2  px     Val( 2p)     0.93529     0.00818
  37    C  2  px     Ryd( 3p)     0.00638     0.00000
  38    C  2  py     Val( 2p)     1.10029     0.00569
  39    C  2  py     Ryd( 3p)     0.00587     0.00000
  40    C  2  pz     Val( 2p)     1.23099     0.20488
  41    C  2  pz     Ryd( 3p)     0.00300     0.00182
  42    C  2  dxy    Ryd( 3d)     0.00120     0.00000
  43    C  2  dxz    Ryd( 3d)     0.00076     0.00001
  44    C  2  dyz    Ryd( 3d)     0.00074    -0.00005
  45    C  2  dx2y2  Ryd( 3d)     0.00178     0.00002
  46    C  2  dz2    Ryd( 3d)     0.00091    -0.00015

  47    C  3  s      Cor( 1s)     1.99995     0.00000
  48    C  3  s      Val( 2s)     0.93299    -0.00537
  49    C  3  s      Ryd( 3s)     0.00113     0.00002
  50    C  3  px     Val( 2p)     1.13486    -0.00517
  51    C  3  px     Ryd( 3p)     0.00607     0.00008
  52    C  3  py     Val( 2p)     1.13664    -0.00564
  53    C  3  py     Ryd( 3p)     0.00508     0.00003
  54    C  3  pz     Val( 2p)     1.01656    -0.06408
  55    C  3  pz     Ryd( 3p)     0.00150     0.00029
  56    C  3  dxy    Ryd( 3d)     0.00084     0.00000
  57    C  3  dxz    Ryd( 3d)     0.00078     0.00029
  58    C  3  dyz    Ryd( 3d)     0.00066     0.00023
  59    C  3  dx2y2  Ryd( 3d)     0.00084    -0.00001
  60    C  3  dz2    Ryd( 3d)     0.00065     0.00003

  61    C  4  s      Cor( 1s)     1.99994     0.00000
  62    C  4  s      Val( 2s)     0.91389     0.00656
  63    C  4  s      Ryd( 3s)     0.00091     0.00000
  64    C  4  px     Val( 2p)     1.07177     0.00368
  65    C  4  px     Ryd( 3p)     0.00371     0.00001
  66    C  4  py     Val( 2p)     1.17410     0.00355
  67    C  4  py     Ryd( 3p)     0.00572     0.00001
  68    C  4  pz     Val( 2p)     1.10219     0.16176
  69    C  4  pz     Ryd( 3p)     0.00460     0.00381
  70    C  4  dxy    Ryd( 3d)     0.00085    -0.00001
  71    C  4  dxz    Ryd( 3d)     0.00066     0.00007
  72    C  4  dyz    Ryd( 3d)     0.00037    -0.00004
  73    C  4  dx2y2  Ryd( 3d)     0.00080     0.00001
  74    C  4  dz2    Ryd( 3d)     0.00060    -0.00009

  75    C  5  s      Cor( 1s)     1.99995     0.00000
  76    C  5  s      Val( 2s)     0.83116     0.00125
  77    C  5  s      Ryd( 3s)     0.00191     0.00004
  78    C  5  px     Val( 2p)     1.08344    -0.00221
  79    C  5  px     Ryd( 3p)     0.00431     0.00006
  80    C  5  py     Val( 2p)     1.09548    -0.00021
  81    C  5  py     Ryd( 3p)     0.00557     0.00004
  82    C  5  pz     Val( 2p)     1.07261     0.08712
  83    C  5  pz     Ryd( 3p)     0.00289     0.00168
  84    C  5  dxy    Ryd( 3d)     0.00088    -0.00002
  85    C  5  dxz    Ryd( 3d)     0.00113     0.00044
  86    C  5  dyz    Ryd( 3d)     0.00055     0.00000
  87    C  5  dx2y2  Ryd( 3d)     0.00086     0.00000
  88    C  5  dz2    Ryd( 3d)     0.00060    -0.00006

  89    C  6  s      Cor( 1s)     1.99996     0.00000
  90    C  6  s      Val( 2s)     0.84221     0.00117
  91    C  6  s      Ryd( 3s)     0.00194    -0.00001
  92    C  6  px     Val( 2p)     1.07691     0.00033
  93    C  6  px     Ryd( 3p)     0.00456     0.00003
  94    C  6  py     Val( 2p)     1.06556     0.00013
  95    C  6  py     Ryd( 3p)     0.00474    -0.00002
  96    C  6  pz     Val( 2p)     1.01324     0.04131
  97    C  6  pz     Ryd( 3p)     0.00250     0.00055
  98    C  6  dxy    Ryd( 3d)     0.00089    -0.00001
  99    C  6  dxz    Ryd( 3d)     0.00085     0.00022
 100    C  6  dyz    Ryd( 3d)     0.00070     0.00005
 101    C  6  dx2y2  Ryd( 3d)     0.00097     0.00000
 102    C  6  dz2    Ryd( 3d)     0.00058    -0.00003

 103    C  7  s      Cor( 1s)     1.99995     0.00000
 104    C  7  s      Val( 2s)     0.91679    -0.00103
 105    C  7  s      Ryd( 3s)     0.00128     0.00004
 106    C  7  px     Val( 2p)     1.09437    -0.00312
 107    C  7  px     Ryd( 3p)     0.00473     0.00008
 108    C  7  py     Val( 2p)     1.18391    -0.00160
 109    C  7  py     Ryd( 3p)     0.00650     0.00002
 110    C  7  pz     Val( 2p)     1.06458     0.02206
 111    C  7  pz     Ryd( 3p)     0.00341     0.00248
 112    C  7  dxy    Ryd( 3d)     0.00092    -0.00002
 113    C  7  dxz    Ryd( 3d)     0.00085     0.00032
 114    C  7  dyz    Ryd( 3d)     0.00041     0.00000
 115    C  7  dx2y2  Ryd( 3d)     0.00073     0.00001
 116    C  7  dz2    Ryd( 3d)     0.00066    -0.00002

 117    C  8  s      Cor( 1s)     1.99993     0.00000
 118    C  8  s      Val( 2s)     1.00146    -0.00084
 119    C  8  s      Ryd( 3s)     0.00089    -0.00001
 120    C  8  px     Val( 2p)     1.05498    -0.00182
 121    C  8  px     Ryd( 3p)     0.00320     0.00002
 122    C  8  py     Val( 2p)     1.15984    -0.00143
 123    C  8  py     Ryd( 3p)     0.00314     0.00001
 124    C  8  pz     Val( 2p)     1.22334    -0.00041
 125    C  8  pz     Ryd( 3p)     0.00174     0.00033
 126    C  8  dxy    Ryd( 3d)     0.00087     0.00000
 127    C  8  dxz    Ryd( 3d)     0.00050    -0.00001
 128    C  8  dyz    Ryd( 3d)     0.00096     0.00003
 129    C  8  dx2y2  Ryd( 3d)     0.00046     0.00000
 130    C  8  dz2    Ryd( 3d)     0.00066     0.00000

 131    C  9  s      Cor( 1s)     1.99996     0.00000
 132    C  9  s      Val( 2s)     0.84207     0.00071
 133    C  9  s      Ryd( 3s)     0.00196    -0.00001
 134    C  9  px     Val( 2p)     1.07761    -0.00004
 135    C  9  px     Ryd( 3p)     0.00465     0.00003
 136    C  9  py     Val( 2p)     1.06393    -0.00033
 137    C  9  py     Ryd( 3p)     0.00483    -0.00001
 138    C  9  pz     Val( 2p)     1.01454     0.03536
 139    C  9  pz     Ryd( 3p)     0.00255     0.00057
 140    C  9  dxy    Ryd( 3d)     0.00090    -0.00001
[...]
                                                     157(v),159(v)
   47. BD ( 1) C  3- C  4       0.98386    -0.52717  74(v),85(v),75(g),81(g)
                                                     146(v),82(g),80(g),119(v)
                                                     120(v),253(v),249(v)
   48. BD ( 2) C  3- C  4       0.84364    -0.16394  77(v),84(v),121(v),122(v)
                                                     150(v),130(g)
   49. BD ( 1) C  3- H 16       0.98965    -0.43673  76(v),81(v),119(v),74(v)
                                                     78(g),75(g),137(v),82(v)
   50. BD ( 1) C  4- C  5       0.98519    -0.52203  85(g),83(g),78(g),80(v)
                                                     87(v),82(g),129(v),128(v)
                                                     240(v),93(v),155(v)
   51. BD ( 1) C  4- H 17       0.98969    -0.42023  83(v),75(v),81(g),78(g)
                                                     128(v),80(v)
   52. BD ( 1) C  5- C  6       0.97961    -0.50300  81(g),86(g),103(v),88(v)
                                                     85(g),82(v),87(g),240(v)
                                                     164(v),137(v),90(v),91(v)
                                                     165(v),241(v),174(v),89(v)
                                                     173(v)
   53. BD ( 2) C  5- C  6       0.79807    -0.13726  79(v),77(v),94(v),90(v)
                                                     91(v),140(v),243(v),166(v)
                                                     167(v),175(v)
   54. BD ( 1) C  5- C 15       0.98093    -0.46432  103(g),81(g),86(v),92(v)
                                                     83(g),93(g),78(v),100(v)
                                                     231(v),137(v),156(v),182(v)
                                                     183(v),155(v),87(v),89(v)
   55. BD ( 1) C  6- C  7       0.98257    -0.53188  74(v),83(g),76(g),87(g)
                                                     88(g),85(v),119(v),147(v)
                                                     120(v),173(v),89(v)
   56. BD ( 1) C  6- C  8       0.98567    -0.48046  92(v),81(v),86(g),76(v)
                                                     83(g),89(g),183(v),164(v)
                                                     90(g),91(g),147(v),165(v)
   57. BD ( 1) C  7- H 18       0.98945    -0.43233  83(v),75(v),86(g),74(v)
                                                     119(v),155(v),76(g)
   58. BD ( 1) C  8- C  9       0.98560    -0.47982  86(v),103(v),92(g),95(v)
                                                     93(g),87(g),156(v),191(v)
                                                     90(g),91(g),241(v),192(v)
   59. BD ( 1) C  8- H 19       0.98169    -0.42155  84(v),94(v),83(v),93(v)
                                                     184(v),157(v)
   60. BD ( 1) C  8- H 20       0.98169    -0.42155  84(v),94(v),83(v),93(v)
                                                     184(v),157(v)
   61. BD ( 1) C  9- C 10       0.98187    -0.53009  98(v),95(g),93(g),89(g)
                                                     85(v),97(g),200(v),241(v)
                                                     201(v),173(v),87(v)
   62. BD ( 1) C  9- C 15       0.97961    -0.50166  103(g),92(g),81(v),85(g)
                                                     97(v),104(v),89(g),146(v)
                                                     231(v),191(v),90(v),91(v)
                                                     192(v),147(v),174(v),87(v)
   63. BD ( 2) C  9- C 15       0.79679    -0.13562  101(v),96(v),84(v),90(v)
                                                     91(v),149(v),234(v),195(v)
                                                     193(v),175(v)
   64. BD ( 1) C 10- C 11       0.98756    -0.54928  89(v),99(g),92(g),182(v)
                                                     102(v),97(g),222(v),269(v)
   65. BD ( 2) C 10- C 11       0.84265    -0.16967  94(v),101(v),224(v),209(v)
                                                     184(v),186(v)
   66. BD ( 1) C 10- H 21       0.98980    -0.43075  93(v),99(v),92(g),200(v)
                                                     182(v),95(g),98(v)
   67. BD ( 1) C 11- I 12       0.99071    -0.42926  100(v),92(v),222(v),191(v)
                                                     97(v),102(v)
   68. BD ( 1) C 11- C 13       0.98863    -0.55229  95(g),100(g),97(v),104(v)
                                                     102(g),232(v),231(v),191(v)
                                                     192(v),273(v)
   69. BD ( 1) C 13- C 14       0.98315    -0.52552  98(v),85(v),99(g),103(g)
                                                     240(v),104(g),102(g),200(v)
                                                     201(v),277(v),273(v)
   70. BD ( 2) C 13- C 14       0.84317    -0.16261  96(v),94(v),202(v),203(v)
                                                     244(v),224(g),245(v)
   71. BD ( 1) C 13- H 22       0.99001    -0.43576  95(v),103(v),200(v),100(g)
                                                     99(g),231(v),98(v),104(v)
   72. BD ( 1) C 14- C 15       0.98520    -0.52084  85(g),93(g),100(g),102(v)
                                                     89(v),104(g),223(v),222(v)
                                                     146(v),83(v),182(v)
   73. BD ( 1) C 14- H 23       0.98954    -0.41929  93(v),99(v),103(g),100(g)
                                                     222(v),102(v),240(v)
 ------ non-Lewis ----------------------------------
   74. BD*( 1)Br  1- C  2       0.01568     0.33429
   75. BD*( 1) C  2- C  3       0.01315     0.79615
   76. BD*( 1) C  2- C  7       0.01254     0.80006
   77. BD*( 2) C  2- C  7       0.19232     0.22052
   78. BD*( 1) C  3- C  4       0.00830     0.81602
   79. BD*( 2) C  3- C  4       0.16723     0.23593
   80. BD*( 1) C  3- H 16       0.00715     0.68757
   81. BD*( 1) C  4- C  5       0.01277     0.83068
   82. BD*( 1) C  4- H 17       0.00760     0.69576
   83. BD*( 1) C  5- C  6       0.01476     0.80618
   84. BD*( 2) C  5- C  6       0.18079     0.25400
   85. BD*( 1) C  5- C 15       0.01647     0.74672
   86. BD*( 1) C  6- C  7       0.01289     0.82863
   87. BD*( 1) C  6- C  8       0.01019     0.65191
   88. BD*( 1) C  7- H 18       0.00796     0.68249
   89. BD*( 1) C  8- C  9       0.01019     0.65201
   90. BD*( 1) C  8- H 19       0.00755     0.65507
   91. BD*( 1) C  8- H 20       0.00755     0.65507
   92. BD*( 1) C  9- C 10       0.01325     0.82998
   93. BD*( 1) C  9- C 15       0.01476     0.80777
   94. BD*( 2) C  9- C 15       0.17965     0.25605
   95. BD*( 1) C 10- C 11       0.01144     0.80175
   96. BD*( 2) C 10- C 11       0.18930     0.22237
   97. BD*( 1) C 10- H 21       0.00820     0.68362
   98. BD*( 1) C 11- I 12       0.01643     0.28934
   99. BD*( 1) C 11- C 13       0.01204     0.79766
  100. BD*( 1) C 13- C 14       0.00871     0.81656
  101. BD*( 2) C 13- C 14       0.16725     0.23656
  102. BD*( 1) C 13- H 22       0.00739     0.68857
  103. BD*( 1) C 14- C 15       0.01278     0.83237
  104. BD*( 1) C 14- H 23       0.00759     0.69628
  105. RY ( 1)Br  1             0.00155     0.80579
  106. RY ( 2)Br  1             0.00070     0.90470
  107. RY ( 3)Br  1             0.00022     0.73854
  108. RY ( 4)Br  1             0.00005     1.15765
  109. RY ( 5)Br  1             0.00003     0.74562
  110. RY ( 6)Br  1             0.00000     1.18000
  111. RY ( 7)Br  1             0.00000     1.07463
  112. RY ( 8)Br  1             0.00000     0.87632
  113. RY ( 9)Br  1             0.00000     1.04937
  114. RY (10)Br  1             0.00000     3.69338
  115. RY (11)Br  1             0.00000     3.57153
  116. RY (12)Br  1             0.00000     3.65004
  117. RY (13)Br  1             0.00000     3.82697
  118. RY (14)Br  1             0.00000     3.56836
  119. RY ( 1) C  2             0.00325     1.33402
  120. RY ( 2) C  2             0.00247     0.98387
  121. RY ( 3) C  2             0.00089     1.22020
  122. RY ( 4) C  2             0.00048     2.15576
  123. RY ( 5) C  2             0.00041     0.78808
  124. RY ( 6) C  2             0.00027     2.56968
  125. RY ( 7) C  2             0.00015     2.28275
  126. RY ( 8) C  2             0.00007     1.63597
  127. RY ( 9) C  2             0.00000     2.43467
  128. RY ( 1) C  3             0.00300     1.32846
  129. RY ( 2) C  3             0.00139     0.91926
  130. RY ( 3) C  3             0.00055     1.10679
  131. RY ( 4) C  3             0.00037     0.80254
  132. RY ( 5) C  3             0.00029     1.84128
  133. RY ( 6) C  3             0.00007     2.57675
  134. RY ( 7) C  3             0.00002     2.56474
  135. RY ( 8) C  3             0.00001     2.07970
  136. RY ( 9) C  3             0.00000     2.42740
  137. RY ( 1) C  4             0.00267     1.40023
  138. RY ( 2) C  4             0.00122     0.95698
  139. RY ( 3) C  4             0.00044     1.23511
  140. RY ( 4) C  4             0.00034     1.76457
  141. RY ( 5) C  4             0.00022     0.86494
  142. RY ( 6) C  4             0.00003     2.56261
  143. RY ( 7) C  4             0.00001     2.60099
  144. RY ( 8) C  4             0.00000     2.12937
  145. RY ( 9) C  4             0.00000     2.46801
  146. RY ( 1) C  5             0.00291     1.37808
  147. RY ( 2) C  5             0.00173     1.56925
  148. RY ( 3) C  5             0.00079     0.86251
  149. RY ( 4) C  5             0.00065     1.15501
  150. RY ( 5) C  5             0.00029     2.08987
  151. RY ( 6) C  5             0.00018     1.96563
  152. RY ( 7) C  5             0.00005     2.67304
  153. RY ( 8) C  5             0.00003     2.44156
  154. RY ( 9) C  5             0.00001     2.47027
  155. RY ( 1) C  6             0.00255     1.39806
  156. RY ( 2) C  6             0.00192     1.39161
  157. RY ( 3) C  6             0.00104     0.99015
  158. RY ( 4) C  6             0.00044     0.93690
  159. RY ( 5) C  6             0.00043     2.17166
  160. RY ( 6) C  6             0.00009     2.03537
  161. RY ( 7) C  6             0.00008     2.55860
  162. RY ( 8) C  6             0.00003     2.45481
  163. RY ( 9) C  6             0.00000     2.44211
  164. RY ( 1) C  7             0.00312     1.34232
  165. RY ( 2) C  7             0.00161     0.90913
  166. RY ( 3) C  7             0.00049     0.90740
  167. RY ( 4) C  7             0.00031     2.04419
  168. RY ( 5) C  7             0.00031     0.82239
  169. RY ( 6) C  7             0.00004     2.57879
  170. RY ( 7) C  7             0.00001     2.56702
  171. RY ( 8) C  7             0.00001     2.11169
  172. RY ( 9) C  7             0.00000     2.43740
  173. RY ( 1) C  8             0.00152     0.82652
  174. RY ( 2) C  8             0.00148     0.91740
  175. RY ( 3) C  8             0.00083     1.42125
  176. RY ( 4) C  8             0.00044     1.23472
  177. RY ( 5) C  8             0.00025     2.21341
  178. RY ( 6) C  8             0.00001     2.50570
  179. RY ( 7) C  8             0.00001     2.29582
  180. RY ( 8) C  8             0.00001     2.22461
  181. RY ( 9) C  8             0.00000     2.44281
  182. RY ( 1) C  9             0.00264     1.40463
  183. RY ( 2) C  9             0.00194     1.37346
  184. RY ( 3) C  9             0.00105     0.98672
  185. RY ( 4) C  9             0.00045     0.94332
  186. RY ( 5) C  9             0.00042     2.17242
  187. RY ( 6) C  9             0.00009     2.04138
  188. RY ( 7) C  9             0.00008     2.56203
  189. RY ( 8) C  9             0.00003     2.46221
  190. RY ( 9) C  9             0.00000     2.44336
  191. RY ( 1) C 10             0.00338     1.35655
  192. RY ( 2) C 10             0.00154     0.93064
  193. RY ( 3) C 10             0.00050     0.94937
  194. RY ( 4) C 10             0.00032     0.82984
  195. RY ( 5) C 10             0.00030     1.99943
  196. RY ( 6) C 10             0.00003     2.56023
  197. RY ( 7) C 10             0.00001     2.57015
  198. RY ( 8) C 10             0.00001     2.10936
  199. RY ( 9) C 10             0.00000     2.43072
  200. RY ( 1) C 11             0.00298     1.46658
  201. RY ( 2) C 11             0.00234     0.92439
  202. RY ( 3) C 11             0.00073     1.09992
  203. RY ( 4) C 11             0.00047     2.16566
  204. RY ( 5) C 11             0.00031     0.84699
  205. RY ( 6) C 11             0.00020     2.57861
  206. RY ( 7) C 11             0.00005     1.74080
  207. RY ( 8) C 11             0.00004     2.28896
  208. RY ( 9) C 11             0.00000     2.41348
  209. RY ( 1) I 12             0.00141     0.68816
  210. RY ( 2) I 12             0.00045     0.75389
  211. RY ( 3) I 12             0.00027     1.22490
  212. RY ( 4) I 12             0.00004     2.41465
  213. RY ( 5) I 12             0.00003     0.63887
  214. RY ( 6) I 12             0.00001     1.96635
  215. RY ( 7) I 12             0.00000     0.88430
  216. RY ( 8) I 12             0.00000     0.67785
  217. RY ( 9) I 12             0.00000     1.01684
  218. RY (10) I 12             0.00000    19.12616
  219. RY (11) I 12             0.00000    18.90009
  220. RY (12) I 12             0.00000    24.09600
  221. RY (13) I 12             0.00000    47.96812
  222. RY ( 1) C 13             0.00329     1.35024
  223. RY ( 2) C 13             0.00134     0.92182
  224. RY ( 3) C 13             0.00057     1.11856
  225. RY ( 4) C 13             0.00038     0.81479
  226. RY ( 5) C 13             0.00028     1.82465
  227. RY ( 6) C 13             0.00007     2.56478
  228. RY ( 7) C 13             0.00002     2.55775
  229. RY ( 8) C 13             0.00001     2.07730
  230. RY ( 9) C 13             0.00000     2.42481
  231. RY ( 1) C 14             0.00271     1.39818
  232. RY ( 2) C 14             0.00122     0.95690
  233. RY ( 3) C 14             0.00046     1.16922
  234. RY ( 4) C 14             0.00033     1.83303
  235. RY ( 5) C 14             0.00022     0.85832
  236. RY ( 6) C 14             0.00003     2.57191
  237. RY ( 7) C 14             0.00001     2.61273
  238. RY ( 8) C 14             0.00000     2.13015
  239. RY ( 9) C 14             0.00000     2.46490
  240. RY ( 1) C 15             0.00293     1.37793
  241. RY ( 2) C 15             0.00175     1.56576
  242. RY ( 3) C 15             0.00079     0.86656
  243. RY ( 4) C 15             0.00066     1.16510
  244. RY ( 5) C 15             0.00030     2.09503
  245. RY ( 6) C 15             0.00018     1.95536
  246. RY ( 7) C 15             0.00005     2.67587
  247. RY ( 8) C 15             0.00003     2.44278
  248. RY ( 9) C 15             0.00001     2.47223
  249. RY ( 1) H 16             0.00088     0.56642
  250. RY ( 2) H 16             0.00011     1.87812
  251. RY ( 3) H 16             0.00003     2.30258
  252. RY ( 4) H 16             0.00002     2.46053
  253. RY ( 1) H 17             0.00076     0.60103
  254. RY ( 2) H 17             0.00009     1.89615
  255. RY ( 3) H 17             0.00002     2.57723
  256. RY ( 4) H 17             0.00002     2.23557
  257. RY ( 1) H 18             0.00091     0.57352
  258. RY ( 2) H 18             0.00011     1.89430
  259. RY ( 3) H 18             0.00003     2.33480
  260. RY ( 4) H 18             0.00002     2.45807
  261. RY ( 1) H 19             0.00085     0.57201
  262. RY ( 2) H 19             0.00006     1.99015
  263. RY ( 3) H 19             0.00005     2.12291
  264. RY ( 4) H 19             0.00001     2.49110
  265. RY ( 1) H 20             0.00085     0.57201
  266. RY ( 2) H 20             0.00006     1.99015
  267. RY ( 3) H 20             0.00005     2.12290
  268. RY ( 4) H 20             0.00001     2.49110
  269. RY ( 1) H 21             0.00082     0.57938
  270. RY ( 2) H 21             0.00011     1.89433
  271. RY ( 3) H 21             0.00003     2.40248
  272. RY ( 4) H 21             0.00002     2.39263
  273. RY ( 1) H 22             0.00079     0.57196
  274. RY ( 2) H 22             0.00012     1.87783
  275. RY ( 3) H 22             0.00003     2.33901
  276. RY ( 4) H 22             0.00002     2.42570
  277. RY ( 1) H 23             0.00076     0.60253
  278. RY ( 2) H 23             0.00009     1.89684
  279. RY ( 3) H 23             0.00002     2.57417
  280. RY ( 4) H 23             0.00001     2.24040
          -------------------------------
                 Total Lewis   85.55373  ( 98.3376%)
           Valence non-Lewis    1.35390  (  1.5562%)
           Rydberg non-Lewis    0.09237  (  0.1062%)
          -------------------------------
               Total unit  1   87.00000  (100.0000%)
              Charge unit  1    0.00000

 $CHOOSE
  ALPHA
   LONE 1 3 2 1 11 1 12 3 END
   BOND S 1 2 S 2 3 S 2 7 D 3 4 S 3 16 S 4 5 S 4 17 S 5 6 D 5 15 D 6 7 S 6 8
        S 7 18 S 8 9 S 8 19 S 8 20 D 9 10 S 9 15 S 10 11 S 10 21 S 11 12
        S 11 13 D 13 14 S 13 22 S 14 15 S 14 23 END
  END
  BETA
   LONE 1 3 12 3 END
   BOND S 1 2 S 2 3 D 2 7 D 3 4 S 3 16 S 4 5 S 4 17 D 5 6 S 5 15 S 6 7 S 6 8
        S 7 18 S 8 9 S 8 19 S 8 20 S 9 10 D 9 15 D 10 11 S 10 21 S 11 12
        S 11 13 D 13 14 S 13 22 S 14 15 S 14 23 END
  END
 $END

 NBO analysis completed in 3.06 CPU seconds (3 wall seconds)
 Maximum scratch memory used by NBO was 1183510 words (9.03 MB)
 Maximum scratch memory used by G16NBO was 166781 words (1.27 MB)

 Opening RunExU unformatted file "/home/rpaton/arbr500/dzvp/fukui/Gau-1913389.EUF"
 Read unf file /home/rpaton/arbr500/dzvp/fukui/Gau-1913389.EUF:
 Label Gaussian matrix elements                                         IVers= 2 NLab= 2 Version=ES64L-G16RevC.01
 Title arbr35_wb97xd_redcreated by GaussianPrep                        
 NAtoms=    23 NBasis=   280 NBsUse=   280 ICharg=    -1 Multip=     2 NE=   147 Len12L=8 Len4L=8 IOpCl= 1 ICGU=112
 GAUSSIAN SCALARS                    NI= 1 NR= 1 NTot=       1 LenBuf=    2 NRI=1 N=    1000
 NPA CHARGES                         NI= 0 NR= 1 NTot=      23 LenBuf= 2048 NRI=1 N=      23
 Recovered energy= -3371.36890594     dipole=     -0.886804439798     -0.460177552117     -0.000000294595
 Unable to Open any file for archive entry.
 1\1\GINC-DYNAMO\SP\UwB97XD\def2SVP\C13H8Br1I1(1-,2)\RPATON\28-Sep-2024
 \0\\# pop=(nbo6,hirshfeld) wb97xd/def2svp\\arbr35_wb97xd_redcreated by
  GaussianPrep\\-1,2\Br,0,5.908593,-0.311782,-0.000002\C,0,4.057653,0.0
 85737,-0.000001\C,0,3.647629,1.421661,0.000001\C,0,2.288411,1.728729,0
 .000003\C,0,1.357396,0.691882,0.000003\C,0,1.783297,-0.647672,0.000002
 \C,0,3.136106,-0.963207,0.\C,0,0.592098,-1.575381,0.000005\C,0,-0.5738
 73,-0.615802,0.000003\C,0,-1.934921,-0.895026,0.000002\C,0,-2.831669,0
 .176772,0.000001\I,0,-4.902338,-0.210877,-0.000001\C,0,-2.382312,1.501
 162,0.\C,0,-1.014918,1.772373,0.\C,0,-0.111888,0.711509,0.000003\H,0,4
 .393845,2.21733,0.\H,0,1.967709,2.772705,0.000004\H,0,3.477983,-1.9997
 01,-0.000002\H,0,0.583474,-2.231571,0.88589\H,0,0.583472,-2.231579,-0.
 885874\H,0,-2.29469,-1.925742,0.000001\H,0,-3.099666,2.323267,-0.00000
 1\H,0,-0.667015,2.807678,-0.000002\\Version=ES64L-G16RevC.01\State=2-A
 \HF=-3371.3689059\S2=0.777173\S2-1=0.\S2A=0.750493\RMSD=9.253e-09\Dipo
 le=-0.8868044,-0.4601776,-0.0000003\Quadrupole=-34.8870198,20.371695,1
 4.5153249,0.0943463,0.0000088,-0.0000063\PG=C01 [X(C13H8Br1I1)]\\@
 The archive entry for this job was punched.


 IT PROBABLY IS NOT POSSIBLE FOR A SCIENTIST TO INTERROGATE NATURE 
 FROM A WHOLLY DISINTERESTED VIEWPOINT.
 EVEN IF HE HAS NO PARTICULAR AXE TO GRIND, HE IS LIKELY TO HAVE 
 A DISTINCTIVE WAY OF VIEWING NATURE.

                                                   -- JOHN LOSEE
 Job cpu time:       0 days  0 hours 28 minutes 20.6 seconds.
 Elapsed time:       0 days  0 hours  1 minutes 11.5 seconds.
 File lengths (MBytes):  RWF=     79 Int=      0 D2E=      0 Chk=      7 Scr=      1
 Normal termination of Gaussian 16 at Sat Sep 28 11:30:23 2024.
