 Entering Gaussian System, Link 0=/usr/local/Gaussian/G16C/g16/g16
 Input=arbr42_wb97xd_red.com
 Output=arbr42_wb97xd_red.log
 Initial command:
 /usr/local/Gaussian/G16C/g16/l1.exe "/home/rpaton/arbr500/dzvp/fukui/Gau-1919743.inp" -scrdir="/home/rpaton/arbr500/dzvp/fukui/"
 Entering Link 1 = /usr/local/Gaussian/G16C/g16/l1.exe PID=   1919744.
  
 Copyright (c) 1988-2019, Gaussian, Inc.  All Rights Reserved.
  
 This is part of the Gaussian(R) 16 program.  It is based on
 the Gaussian(R) 09 system (copyright 2009, Gaussian, Inc.),
 the Gaussian(R) 03 system (copyright 2003, Gaussian, Inc.),
 the Gaussian(R) 98 system (copyright 1998, Gaussian, Inc.),
 the Gaussian(R) 94 system (copyright 1995, Gaussian, Inc.),
 the Gaussian 92(TM) system (copyright 1992, Gaussian, Inc.),
 the Gaussian 90(TM) system (copyright 1990, Gaussian, Inc.),
 the Gaussian 88(TM) system (copyright 1988, Gaussian, Inc.),
 the Gaussian 86(TM) system (copyright 1986, Carnegie Mellon
 University), and the Gaussian 82(TM) system (copyright 1983,
 Carnegie Mellon University). Gaussian is a federally registered
 trademark of Gaussian, Inc.
  
 This software contains proprietary and confidential information,
 including trade secrets, belonging to Gaussian, Inc.
  
 This software is provided under written license and may be
 used, copied, transmitted, or stored only in accord with that
 written license.
  
 The following legend is applicable only to US Government
 contracts under FAR:
  
                    RESTRICTED RIGHTS LEGEND
  
 Use, reproduction and disclosure by the US Government is
 subject to restrictions as set forth in subparagraphs (a)
 and (c) of the Commercial Computer Software - Restricted
 Rights clause in FAR 52.227-19.
  
 Gaussian, Inc.
 340 Quinnipiac St., Bldg. 40, Wallingford CT 06492
  
  
 ---------------------------------------------------------------
 Warning -- This program may not be used in any manner that
 competes with the business of Gaussian, Inc. or will provide
 assistance to any competitor of Gaussian, Inc.  The licensee
 of this program is prohibited from giving any competitor of
 Gaussian, Inc. access to this program.  By using this program,
 the user acknowledges that Gaussian, Inc. is engaged in the
 business of creating and licensing software in the field of
 computational chemistry and represents and warrants to the
 licensee that it is not a competitor of Gaussian, Inc. and that
 it will not use this program in any manner prohibited above.
 ---------------------------------------------------------------
  

 Cite this work as:
 Gaussian 16, Revision C.01,
 M. J. Frisch, G. W. Trucks, H. B. Schlegel, G. E. Scuseria, 
 M. A. Robb, J. R. Cheeseman, G. Scalmani, V. Barone, 
 G. A. Petersson, H. Nakatsuji, X. Li, M. Caricato, A. V. Marenich, 
 J. Bloino, B. G. Janesko, R. Gomperts, B. Mennucci, H. P. Hratchian, 
 J. V. Ortiz, A. F. Izmaylov, J. L. Sonnenberg, D. Williams-Young, 
 F. Ding, F. Lipparini, F. Egidi, J. Goings, B. Peng, A. Petrone, 
 T. Henderson, D. Ranasinghe, V. G. Zakrzewski, J. Gao, N. Rega, 
 G. Zheng, W. Liang, M. Hada, M. Ehara, K. Toyota, R. Fukuda, 
 J. Hasegawa, M. Ishida, T. Nakajima, Y. Honda, O. Kitao, H. Nakai, 
 T. Vreven, K. Throssell, J. A. Montgomery, Jr., J. E. Peralta, 
 F. Ogliaro, M. J. Bearpark, J. J. Heyd, E. N. Brothers, K. N. Kudin, 
 V. N. Staroverov, T. A. Keith, R. Kobayashi, J. Normand, 
 K. Raghavachari, A. P. Rendell, J. C. Burant, S. S. Iyengar, 
 J. Tomasi, M. Cossi, J. M. Millam, M. Klene, C. Adamo, R. Cammi, 
 J. W. Ochterski, R. L. Martin, K. Morokuma, O. Farkas, 
 J. B. Foresman, and D. J. Fox, Gaussian, Inc., Wallingford CT, 2019.
 
 ******************************************
 Gaussian 16:  ES64L-G16RevC.01  3-Jul-2019
                28-Sep-2024 
 ******************************************
 %chk=arbr42_wb97xd_red.chk
 %mem=48GB
 %nprocshared=24
 Will use up to   24 processors via shared memory.
 -------------------------------------
 # pop=(nbo6,hirshfeld) wb97xd/def2svp
 -------------------------------------
 1/38=1,172=1/1;
 2/12=2,17=6,18=5,40=1/2;
 3/5=43,7=101,11=2,25=1,30=1,74=-58/1,2,3;
 4//1;
 5/5=2,38=5/2;
 6/7=2,8=2,9=2,10=2,28=1,40=1,79=1,113=1,114=1,124=3103,126=1/1,12;
 99/5=1,9=1/99;
 ----------------------------------------
 arbr42_wb97xd_redcreated by GaussianPrep
 ----------------------------------------
 Symbolic Z-matrix:
 Charge = -1 Multiplicity = 2
 Br                   -3.43053  -0.49275  -0.0474 
 C                    -1.77204   0.42154   0.00263 
 C                    -1.74842   1.79905   0.21412 
 C                    -0.52273   2.45434   0.22781 
 C                     0.68339   1.76624   0.05093 
 C                     0.63771   0.37676  -0.13777 
 C                    -0.59138  -0.2871   -0.17848 
 C                     1.92659  -0.43724  -0.23135 
 C                     3.08977   0.40616  -0.73086 
 C                     3.2267    1.65833   0.1268 
 C                     1.98529   2.53673  -0.00502 
 O                     1.71959  -1.57129  -1.0439 
 C                     2.09812  -2.72555  -0.32951 
 C                     1.91102  -2.28826   1.11675 
 O                     2.26767  -0.93085   1.05735 
 H                    -2.6776    2.35266   0.35673 
 H                    -0.50086   3.53724   0.37714 
 H                    -0.6156   -1.35894  -0.37418 
 H                     3.99791  -0.21292  -0.69358 
 H                     2.8987    0.66669  -1.78462 
 H                     4.1223    2.22904  -0.15976 
 H                     3.36242   1.34923   1.17507 
 H                     1.98244   3.32313   0.76567 
 H                     2.01635   3.06436  -0.97549 
 H                     1.45266  -3.56234  -0.63155 
 H                     3.15077  -2.99285  -0.53524 
 H                     2.57341  -2.80062   1.82758 
 H                     0.86335  -2.41729   1.44736 
 
                          Input orientation:                          
 ---------------------------------------------------------------------
 Center     Atomic      Atomic             Coordinates (Angstroms)
 Number     Number       Type             X           Y           Z
 ---------------------------------------------------------------------
      1         35           0       -3.430527   -0.492751   -0.047401
      2          6           0       -1.772043    0.421544    0.002626
      3          6           0       -1.748420    1.799052    0.214116
      4          6           0       -0.522731    2.454344    0.227806
      5          6           0        0.683391    1.766243    0.050928
      6          6           0        0.637708    0.376756   -0.137772
      7          6           0       -0.591383   -0.287100   -0.178483
      8          6           0        1.926591   -0.437239   -0.231347
      9          6           0        3.089775    0.406161   -0.730860
     10          6           0        3.226700    1.658327    0.126803
     11          6           0        1.985290    2.536726   -0.005015
     12          8           0        1.719594   -1.571286   -1.043904
     13          6           0        2.098117   -2.725552   -0.329506
     14          6           0        1.911024   -2.288264    1.116754
     15          8           0        2.267665   -0.930853    1.057354
     16          1           0       -2.677602    2.352663    0.356726
     17          1           0       -0.500857    3.537241    0.377143
     18          1           0       -0.615601   -1.358935   -0.374179
     19          1           0        3.997908   -0.212919   -0.693576
     20          1           0        2.898703    0.666686   -1.784621
     21          1           0        4.122304    2.229041   -0.159762
     22          1           0        3.362417    1.349230    1.175072
     23          1           0        1.982436    3.323125    0.765667
     24          1           0        2.016347    3.064364   -0.975490
     25          1           0        1.452656   -3.562342   -0.631554
     26          1           0        3.150775   -2.992852   -0.535242
     27          1           0        2.573405   -2.800615    1.827583
     28          1           0        0.863354   -2.417286    1.447359
 ---------------------------------------------------------------------
                    Distance matrix (angstroms):
                    1          2          3          4          5
     1  Br   0.000000
     2  C    1.894468   0.000000
     3  C    2.854862   1.393849   0.000000
     4  C    4.149263   2.396615   1.389931   0.000000
     5  C    4.694363   2.799947   2.437501   1.399821   0.000000
     6  C    4.161099   2.414253   2.800064   2.407621   1.402986
     7  C    2.849599   1.388861   2.417623   2.772237   2.427735
     8  C    5.360563   3.804227   4.324944   3.817231   2.545694
     9  C    6.617363   4.916860   5.122622   4.261959   2.872577
    10  C    6.998297   5.150969   4.977876   3.834329   2.546728
    11  C    6.205691   4.311798   3.812187   2.520151   1.513841
    12  O    5.355371   4.154290   4.996890   4.780268   3.662168
    13  C    5.969161   4.999266   5.963507   5.831875   4.724659
    14  C    5.754241   4.706307   5.559895   5.404232   4.368306
    15  O    5.820808   4.388698   4.928729   4.464753   3.285901
    16  H    2.970959   2.162093   1.090964   2.161117   3.425445
    17  H    5.000404   3.385815   2.145761   1.093364   2.155294
    18  H    2.963253   2.156257   3.406208   3.861620   3.410987
    19  H    7.461735   5.846330   6.155665   5.329110   3.931589
    20  H    6.664937   5.007017   5.183913   4.353366   3.079914
    21  H    8.029074   6.167393   5.898311   4.666618   3.476305
    22  H    7.143628   5.347701   5.219811   4.148851   2.935095
    23  H    6.672493   4.805988   4.067714   2.705538   2.149942
    24  H    6.571366   4.721558   4.146040   2.875233   2.124953
    25  H    5.797336   5.164515   6.301317   6.390709   5.426911
    26  H    7.057055   6.015109   6.893910   6.614290   5.392640
    27  H    6.699925   5.709264   6.514475   6.305548   5.252128
    28  H    4.937161   4.134190   5.110749   5.209733   4.414105
                    6          7          8          9         10
     6  C    0.000000
     7  C    1.397507   0.000000
     8  C    1.527273   2.523000   0.000000
     9  C    2.522945   3.786378   1.521129   0.000000
    10  C    2.900914   4.296003   2.491977   1.523894   0.000000
    11  C    2.549328   3.826660   2.983143   2.507199   1.526453
    12  O    2.405498   2.781852   1.410376   2.426044   3.751310
    13  C    3.434221   3.633492   2.296831   3.309395   4.549760
    14  C    3.208972   3.456058   2.289959   3.473191   4.276282
    15  O    2.407266   3.180545   1.421526   2.379324   2.913679
    16  H    3.891017   3.406920   5.415531   6.183393   5.949433
    17  H    3.398549   3.865553   4.696728   4.891214   4.181826
    18  H    2.153902   1.089823   2.707889   4.119781   4.911021
    19  H    3.456527   4.618703   2.134087   1.099707   2.183883
    20  H    2.812165   3.958546   2.139232   1.102177   2.178182
    21  H    3.946372   5.343235   3.454755   2.171442   1.099973
    22  H    3.176996   4.488009   2.689067   2.143896   1.101285
    23  H    3.362378   4.533176   3.890693   3.460415   2.174372
    24  H    3.134590   4.320623   3.580926   2.877175   2.157995
    25  H    4.052709   3.887233   3.186071   4.294070   5.565763
    26  H    4.222292   4.631643   2.849936   3.405184   4.698674
    27  H    4.207758   4.511978   3.200485   4.134692   4.816805
    28  H    3.220284   3.049150   2.805194   4.203979   4.892841
                   11         12         13         14         15
    11  C    0.000000
    12  O    4.245662   0.000000
    13  C    5.273480   1.409246   0.000000
    14  C    4.954231   2.284545   1.522463   0.000000
    15  O    3.637646   2.264028   2.274439   1.404737   0.000000
    16  H    4.680523   6.057596   7.004761   6.570490   5.977292
    17  H    2.707028   5.748637   6.817374   6.348283   5.300119
    18  H    4.698626   2.438598   3.038734   3.077396   3.247424
    19  H    3.476391   2.675557   3.170974   3.455349   2.564162
    20  H    2.738315   2.635807   3.776980   4.257372   3.320717
    21  H    2.164589   4.582271   5.354824   5.188959   3.860827
    22  H    2.167771   4.018972   4.523943   3.916798   2.532019
    23  H    1.101082   5.224834   6.148112   5.622815   4.273496
    24  H    1.105074   4.645642   5.826415   5.747974   4.489696
    25  H    6.154257   2.050754   1.099123   2.211325   3.231313
    26  H    5.675890   2.080352   1.105380   2.182319   2.751015
    27  H    5.673756   3.238160   2.210105   1.098422   2.045175
    28  H    5.283026   2.766813   2.185616   1.106146   2.081748
                   16         17         18         19         20
    16  H    0.000000
    17  H    2.478278   0.000000
    18  H    4.308367   4.954815   0.000000
    19  H    7.228263   5.953908   4.764434   0.000000
    20  H    6.206695   4.946748   4.294510   1.781105   0.000000
    21  H    6.820613   4.834591   5.947040   2.502719   2.564823
    22  H    6.177248   4.510983   5.055587   2.517142   3.072569
    23  H    4.777550   2.522606   5.474553   4.323786   3.794757
    24  H    4.930971   2.896471   5.182113   3.840136   2.679945
    25  H    7.281690   7.432211   3.032974   4.207231   4.615766
    26  H    7.958650   7.537173   4.108675   2.910452   3.875140
    27  H    7.502851   7.191890   4.134726   3.883506   5.017570
    28  H    6.039889   6.201841   2.573988   4.389563   4.909096
                   21         22         23         24         25
    21  H    0.000000
    22  H    1.770107   0.000000
    23  H    2.575359   2.442994   0.000000
    24  H    2.407952   3.062435   1.760606   0.000000
    25  H    6.394507   5.570873   7.045747   6.659525   0.000000
    26  H    5.324755   4.671578   6.553545   6.178237   1.793656
    27  H    5.625484   4.274286   6.243164   6.524225   2.807786
    28  H    5.898470   4.528366   5.888070   6.103120   2.445467
                   26         27         28
    26  H    0.000000
    27  H    2.439929   0.000000
    28  H    3.081279   1.793261   0.000000
 Stoichiometry    C12H13BrO2(1-,2)
 Framework group  C1[X(C12H13BrO2)]
 Deg. of freedom    78
 Full point group                 C1      NOp   1
 Largest Abelian subgroup         C1      NOp   1
 Largest concise Abelian subgroup C1      NOp   1
                         Standard orientation:                         
 ---------------------------------------------------------------------
 Center     Atomic      Atomic             Coordinates (Angstroms)
 Number     Number       Type             X           Y           Z
 ---------------------------------------------------------------------
      1         35           0       -3.430527   -0.492751   -0.047401
      2          6           0       -1.772043    0.421544    0.002626
      3          6           0       -1.748420    1.799052    0.214116
      4          6           0       -0.522731    2.454344    0.227806
      5          6           0        0.683391    1.766243    0.050928
      6          6           0        0.637708    0.376756   -0.137772
      7          6           0       -0.591383   -0.287100   -0.178483
      8          6           0        1.926591   -0.437239   -0.231347
      9          6           0        3.089775    0.406161   -0.730860
     10          6           0        3.226700    1.658327    0.126803
     11          6           0        1.985290    2.536726   -0.005015
     12          8           0        1.719594   -1.571286   -1.043904
     13          6           0        2.098117   -2.725552   -0.329506
     14          6           0        1.911024   -2.288264    1.116754
     15          8           0        2.267665   -0.930853    1.057354
     16          1           0       -2.677602    2.352663    0.356726
     17          1           0       -0.500856    3.537241    0.377143
     18          1           0       -0.615601   -1.358935   -0.374179
     19          1           0        3.997908   -0.212919   -0.693576
     20          1           0        2.898703    0.666686   -1.784621
     21          1           0        4.122304    2.229041   -0.159762
     22          1           0        3.362417    1.349230    1.175072
     23          1           0        1.982437    3.323125    0.765667
     24          1           0        2.016347    3.064364   -0.975490
     25          1           0        1.452656   -3.562342   -0.631554
     26          1           0        3.150775   -2.992852   -0.535242
     27          1           0        2.573405   -2.800615    1.827583
     28          1           0        0.863354   -2.417286    1.447359
 ---------------------------------------------------------------------
 Rotational constants (GHZ):           0.7780817           0.2919590           0.2263792
 Standard basis: def2SVP (5D, 7F)
 There are   310 symmetry adapted cartesian basis functions of A   symmetry.
 There are   293 symmetry adapted basis functions of A   symmetry.
   293 basis functions,   521 primitive gaussians,   310 cartesian basis functions
    69 alpha electrons       68 beta electrons
       nuclear repulsion energy      1334.8685672374 Hartrees.
 NAtoms=   28 NActive=   28 NUniq=   28 SFac= 1.00D+00 NAtFMM=   60 NAOKFM=F Big=F
 Integral buffers will be    131072 words long.
 Raffenetti 2 integral format.
 Two-electron integral symmetry is turned on.
 Nuclear repulsion after empirical dispersion term =     1334.8468249879 Hartrees.
 One-electron integrals computed using PRISM.
   1 Symmetry operations used in ECPInt.
 ECPInt:  NShTT=    9180 NPrTT=   34977 LenC2=    8747 LenP2D=   24301.
 LDataN:  DoStor=T MaxTD1= 4 Len=   56
 NBasis=   293 RedAO= T EigKep=  2.50D-04  NBF=   293
 NBsUse=   293 1.00D-06 EigRej= -1.00D+00 NBFU=   293
 ExpMin= 1.22D-01 ExpMax= 1.13D+05 ExpMxC= 1.70D+04 IAcc=3 IRadAn=         5 AccDes= 0.00D+00
 Harris functional with IExCor= 4639 and IRadAn=       5 diagonalized for initial guess.
 HarFok:  IExCor= 4639 AccDes= 0.00D+00 IRadAn=         5 IDoV= 1 UseB2=F ITyADJ=14
 ICtDFT=  3500011 ScaDFX=  1.000000  1.000000  1.000000  1.000000
 FoFCou: FMM=F IPFlag=           0 FMFlag=      100000 FMFlg1=           0
         NFxFlg=           0 DoJE=T BraDBF=F KetDBF=T FulRan=T
         wScrn=  0.000000 ICntrl=       500 IOpCl=  0 I1Cent=   200000004 NGrid=           0
         NMat0=    1 NMatS0=      1 NMatT0=    0 NMatD0=    1 NMtDS0=    0 NMtDT0=    0
 Petite list used in FoFCou.
 Initial guess <Sx>= 0.0000 <Sy>= 0.0000 <Sz>= 0.5000 <S**2>= 0.7500 S= 0.5000
 Requested convergence on RMS density matrix=1.00D-08 within 128 cycles.
 Requested convergence on MAX density matrix=1.00D-06.
 Requested convergence on             energy=1.00D-06.
 No special actions if energy rises.
 Integral accuracy reduced to 1.0D-05 until final iterations.
 Restarting incremental Fock formation.
 Initial convergence to 1.0D-05 achieved.  Increase integral accuracy.
 SCF Done:  E(UwB97XD) =  -3188.77615449     A.U. after   40 cycles
            NFock= 40  Conv=0.88D-08     -V/T= 2.0028
 <Sx>= 0.0000 <Sy>= 0.0000 <Sz>= 0.5000 <S**2>= 0.7641 S= 0.5070
 <L.S>= 0.000000000000E+00
 Annihilation of the first spin contaminant:
 S**2 before annihilation     0.7641,   after     0.7501

 **********************************************************************

            Population analysis using the SCF Density.

 **********************************************************************

 Orbital symmetries:
 Alpha Orbitals:
       Occupied  (A) (A) (A) (A) (A) (A) (A) (A) (A) (A) (A) (A)
                 (A) (A) (A) (A) (A) (A) (A) (A) (A) (A) (A) (A)
                 (A) (A) (A) (A) (A) (A) (A) (A) (A) (A) (A) (A)
                 (A) (A) (A) (A) (A) (A) (A) (A) (A) (A) (A) (A)
                 (A) (A) (A) (A) (A) (A) (A) (A) (A) (A) (A) (A)
                 (A) (A) (A) (A) (A) (A) (A) (A) (A)
       Virtual   (A) (A) (A) (A) (A) (A) (A) (A) (A) (A) (A) (A)
                 (A) (A) (A) (A) (A) (A) (A) (A) (A) (A) (A) (A)
                 (A) (A) (A) (A) (A) (A) (A) (A) (A) (A) (A) (A)
                 (A) (A) (A) (A) (A) (A) (A) (A) (A) (A) (A) (A)
                 (A) (A) (A) (A) (A) (A) (A) (A) (A) (A) (A) (A)
                 (A) (A) (A) (A) (A) (A) (A) (A) (A) (A) (A) (A)
                 (A) (A) (A) (A) (A) (A) (A) (A) (A) (A) (A) (A)
                 (A) (A) (A) (A) (A) (A) (A) (A) (A) (A) (A) (A)
                 (A) (A) (A) (A) (A) (A) (A) (A) (A) (A) (A) (A)
                 (A) (A) (A) (A) (A) (A) (A) (A) (A) (A) (A) (A)
                 (A) (A) (A) (A) (A) (A) (A) (A) (A) (A) (A) (A)
                 (A) (A) (A) (A) (A) (A) (A) (A) (A) (A) (A) (A)
                 (A) (A) (A) (A) (A) (A) (A) (A) (A) (A) (A) (A)
                 (A) (A) (A) (A) (A) (A) (A) (A) (A) (A) (A) (A)
                 (A) (A) (A) (A) (A) (A) (A) (A) (A) (A) (A) (A)
                 (A) (A) (A) (A) (A) (A) (A) (A) (A) (A) (A) (A)
                 (A) (A) (A) (A) (A) (A) (A) (A) (A) (A) (A) (A)
                 (A) (A) (A) (A) (A) (A) (A) (A) (A) (A) (A) (A)
                 (A) (A) (A) (A) (A) (A) (A) (A)
 Beta  Orbitals:
       Occupied  (A) (A) (A) (A) (A) (A) (A) (A) (A) (A) (A) (A)
                 (A) (A) (A) (A) (A) (A) (A) (A) (A) (A) (A) (A)
                 (A) (A) (A) (A) (A) (A) (A) (A) (A) (A) (A) (A)
                 (A) (A) (A) (A) (A) (A) (A) (A) (A) (A) (A) (A)
                 (A) (A) (A) (A) (A) (A) (A) (A) (A) (A) (A) (A)
                 (A) (A) (A) (A) (A) (A) (A) (A)
       Virtual   (A) (A) (A) (A) (A) (A) (A) (A) (A) (A) (A) (A)
                 (A) (A) (A) (A) (A) (A) (A) (A) (A) (A) (A) (A)
                 (A) (A) (A) (A) (A) (A) (A) (A) (A) (A) (A) (A)
                 (A) (A) (A) (A) (A) (A) (A) (A) (A) (A) (A) (A)
                 (A) (A) (A) (A) (A) (A) (A) (A) (A) (A) (A) (A)
                 (A) (A) (A) (A) (A) (A) (A) (A) (A) (A) (A) (A)
                 (A) (A) (A) (A) (A) (A) (A) (A) (A) (A) (A) (A)
                 (A) (A) (A) (A) (A) (A) (A) (A) (A) (A) (A) (A)
                 (A) (A) (A) (A) (A) (A) (A) (A) (A) (A) (A) (A)
                 (A) (A) (A) (A) (A) (A) (A) (A) (A) (A) (A) (A)
                 (A) (A) (A) (A) (A) (A) (A) (A) (A) (A) (A) (A)
                 (A) (A) (A) (A) (A) (A) (A) (A) (A) (A) (A) (A)
                 (A) (A) (A) (A) (A) (A) (A) (A) (A) (A) (A) (A)
                 (A) (A) (A) (A) (A) (A) (A) (A) (A) (A) (A) (A)
                 (A) (A) (A) (A) (A) (A) (A) (A) (A) (A) (A) (A)
                 (A) (A) (A) (A) (A) (A) (A) (A) (A) (A) (A) (A)
                 (A) (A) (A) (A) (A) (A) (A) (A) (A) (A) (A) (A)
                 (A) (A) (A) (A) (A) (A) (A) (A) (A) (A) (A) (A)
                 (A) (A) (A) (A) (A) (A) (A) (A) (A)
 The electronic state is 2-A.
 Alpha  occ. eigenvalues -- -482.90087 -62.48298 -56.29035 -56.28726 -56.28723
 Alpha  occ. eigenvalues --  -19.13285 -19.12579 -10.24974 -10.23436 -10.22865
 Alpha  occ. eigenvalues --  -10.16830 -10.16777 -10.16313 -10.15895 -10.13042
 Alpha  occ. eigenvalues --  -10.10036 -10.09809 -10.09596 -10.09376  -8.65251
 Alpha  occ. eigenvalues --   -6.47694  -6.46540  -6.46532  -2.58091  -2.57746
 Alpha  occ. eigenvalues --   -2.57741  -2.56822  -2.56821  -1.06021  -0.95664
 Alpha  occ. eigenvalues --   -0.79894  -0.77172  -0.73717  -0.72241  -0.66712
 Alpha  occ. eigenvalues --   -0.65671  -0.62709  -0.60462  -0.55787  -0.55056
 Alpha  occ. eigenvalues --   -0.51640  -0.48669  -0.47676  -0.46461  -0.42792
 Alpha  occ. eigenvalues --   -0.42304  -0.40671  -0.39282  -0.38468  -0.36988
 Alpha  occ. eigenvalues --   -0.35697  -0.34755  -0.33682  -0.32396  -0.31016
 Alpha  occ. eigenvalues --   -0.30944  -0.29945  -0.29283  -0.28919  -0.28307
 Alpha  occ. eigenvalues --   -0.25652  -0.24391  -0.23417  -0.22124  -0.21497
 Alpha  occ. eigenvalues --   -0.19299  -0.16027  -0.14183   0.04234
 Alpha virt. eigenvalues --    0.23224   0.24234   0.25358   0.26375   0.28332
 Alpha virt. eigenvalues --    0.29581   0.30337   0.30978   0.31668   0.32804
 Alpha virt. eigenvalues --    0.33496   0.33749   0.35305   0.35715   0.36374
 Alpha virt. eigenvalues --    0.38005   0.38718   0.41163   0.42409   0.43740
 Alpha virt. eigenvalues --    0.44019   0.45270   0.47998   0.48834   0.49310
 Alpha virt. eigenvalues --    0.50842   0.52121   0.54153   0.55889   0.56798
 Alpha virt. eigenvalues --    0.58667   0.61027   0.63362   0.64997   0.65238
 Alpha virt. eigenvalues --    0.65889   0.67422   0.67902   0.68972   0.70082
 Alpha virt. eigenvalues --    0.71047   0.71770   0.72657   0.73071   0.73267
 Alpha virt. eigenvalues --    0.74560   0.75172   0.75903   0.76349   0.77655
 Alpha virt. eigenvalues --    0.78374   0.78624   0.79219   0.80852   0.81463
 Alpha virt. eigenvalues --    0.83379   0.83706   0.84061   0.84606   0.85327
 Alpha virt. eigenvalues --    0.86165   0.86861   0.87644   0.87803   0.88487
 Alpha virt. eigenvalues --    0.89231   0.89500   0.89912   0.90371   0.91024
 Alpha virt. eigenvalues --    0.92719   0.92859   0.93398   0.94329   0.94931
 Alpha virt. eigenvalues --    0.95598   0.97745   0.98550   1.00105   1.00793
 Alpha virt. eigenvalues --    1.01017   1.03782   1.04791   1.06660   1.07182
 Alpha virt. eigenvalues --    1.10282   1.10764   1.13598   1.14407   1.18422
 Alpha virt. eigenvalues --    1.19625   1.22409   1.23520   1.25391   1.28342
 Alpha virt. eigenvalues --    1.29225   1.34008   1.36824   1.37271   1.42094
 Alpha virt. eigenvalues --    1.42500   1.45204   1.48717   1.49139   1.50915
 Alpha virt. eigenvalues --    1.51462   1.52548   1.54042   1.54752   1.55975
 Alpha virt. eigenvalues --    1.59077   1.60605   1.63720   1.65602   1.69460
 Alpha virt. eigenvalues --    1.72647   1.73464   1.75825   1.79493   1.80909
 Alpha virt. eigenvalues --    1.82820   1.84067   1.87710   1.89419   1.91867
 Alpha virt. eigenvalues --    1.92889   1.94020   1.96036   1.97293   1.98216
 Alpha virt. eigenvalues --    1.98551   1.99585   2.00214   2.00449   2.01239
 Alpha virt. eigenvalues --    2.02432   2.02745   2.03938   2.04636   2.04722
 Alpha virt. eigenvalues --    2.05694   2.07162   2.07423   2.07864   2.09646
 Alpha virt. eigenvalues --    2.10244   2.11700   2.13184   2.14583   2.14893
 Alpha virt. eigenvalues --    2.16005   2.16099   2.19115   2.20570   2.20822
 Alpha virt. eigenvalues --    2.24411   2.25667   2.26188   2.28730   2.30168
 Alpha virt. eigenvalues --    2.31679   2.34391   2.35653   2.36475   2.39841
 Alpha virt. eigenvalues --    2.41026   2.42194   2.43606   2.46299   2.49978
 Alpha virt. eigenvalues --    2.50650   2.53614   2.55948   2.57029   2.59072
 Alpha virt. eigenvalues --    2.60124   2.60661   2.62400   2.64492   2.66196
 Alpha virt. eigenvalues --    2.67918   2.69561   2.71998   2.73700   2.76750
 Alpha virt. eigenvalues --    2.80135   2.83781   2.86149   2.90454   2.91491
 Alpha virt. eigenvalues --    2.92175   2.93770   2.95991   2.99142   3.02259
 Alpha virt. eigenvalues --    3.02894   3.05361   3.08466   3.10046   3.13464
 Alpha virt. eigenvalues --    3.14138   3.18762   3.19911   3.20417   3.22684
 Alpha virt. eigenvalues --    3.24281   3.26096   3.26482   3.27686   3.31831
 Alpha virt. eigenvalues --    3.33789   3.34722   3.37597   3.48688   3.50335
 Alpha virt. eigenvalues --    3.56760   3.68286   3.70183   3.72121   3.76689
 Alpha virt. eigenvalues --    3.79900   3.85725   3.89224   4.09018
  Beta  occ. eigenvalues -- -482.90087 -62.48299 -56.29034 -56.28728 -56.28724
  Beta  occ. eigenvalues --  -19.13273 -19.12500 -10.24984 -10.23433 -10.22858
  Beta  occ. eigenvalues --  -10.16922 -10.16831 -10.16310 -10.15884 -10.13174
  Beta  occ. eigenvalues --  -10.09691 -10.09468 -10.09203 -10.09017  -8.65252
  Beta  occ. eigenvalues --   -6.47692  -6.46543  -6.46532  -2.58091  -2.57748
  Beta  occ. eigenvalues --   -2.57740  -2.56824  -2.56823  -1.05937  -0.95558
  Beta  occ. eigenvalues --   -0.79624  -0.76952  -0.73656  -0.71989  -0.66547
  Beta  occ. eigenvalues --   -0.64767  -0.62320  -0.60354  -0.55548  -0.54735
  Beta  occ. eigenvalues --   -0.50832  -0.48533  -0.47558  -0.46329  -0.42643
  Beta  occ. eigenvalues --   -0.42114  -0.40521  -0.39170  -0.38375  -0.36736
  Beta  occ. eigenvalues --   -0.35515  -0.34589  -0.33402  -0.32012  -0.30898
  Beta  occ. eigenvalues --   -0.30875  -0.29806  -0.29078  -0.28537  -0.27874
  Beta  occ. eigenvalues --   -0.25434  -0.24155  -0.23084  -0.21518  -0.21420
  Beta  occ. eigenvalues --   -0.19079  -0.12821  -0.12143
  Beta virt. eigenvalues --    0.23282   0.24223   0.25004   0.25655   0.26447
  Beta virt. eigenvalues --    0.28375   0.29679   0.30455   0.31010   0.31739
  Beta virt. eigenvalues --    0.33028   0.33679   0.34236   0.35662   0.36034
  Beta virt. eigenvalues --    0.36618   0.38294   0.39115   0.42441   0.42705
  Beta virt. eigenvalues --    0.43827   0.44448   0.45422   0.48084   0.48965
  Beta virt. eigenvalues --    0.49752   0.51148   0.52373   0.54518   0.56137
  Beta virt. eigenvalues --    0.56895   0.58865   0.61233   0.63471   0.65155
  Beta virt. eigenvalues --    0.65356   0.66008   0.67758   0.68212   0.69214
  Beta virt. eigenvalues --    0.70315   0.71325   0.72041   0.72771   0.73065
  Beta virt. eigenvalues --    0.73454   0.74800   0.75450   0.76325   0.76773
  Beta virt. eigenvalues --    0.77943   0.78630   0.78768   0.79412   0.81024
  Beta virt. eigenvalues --    0.81648   0.83469   0.84044   0.84286   0.84738
  Beta virt. eigenvalues --    0.85451   0.86288   0.86920   0.87809   0.87936
  Beta virt. eigenvalues --    0.88633   0.89319   0.89690   0.90094   0.90609
  Beta virt. eigenvalues --    0.91458   0.92854   0.93015   0.93723   0.94658
  Beta virt. eigenvalues --    0.95201   0.95963   0.97951   0.98907   1.00460
  Beta virt. eigenvalues --    1.01178   1.01418   1.04038   1.04957   1.06836
  Beta virt. eigenvalues --    1.07421   1.10411   1.11037   1.13748   1.14479
  Beta virt. eigenvalues --    1.18575   1.19793   1.22496   1.23671   1.25490
  Beta virt. eigenvalues --    1.28415   1.29313   1.34101   1.36917   1.37416
  Beta virt. eigenvalues --    1.42343   1.42769   1.45315   1.48911   1.49232
  Beta virt. eigenvalues --    1.51341   1.52201   1.52680   1.54826   1.55026
  Beta virt. eigenvalues --    1.56528   1.59461   1.60677   1.63867   1.65682
  Beta virt. eigenvalues --    1.69581   1.72825   1.73659   1.76078   1.79663
  Beta virt. eigenvalues --    1.81026   1.82961   1.84203   1.87774   1.89513
  Beta virt. eigenvalues --    1.91909   1.92951   1.94123   1.96099   1.97482
  Beta virt. eigenvalues --    1.98271   1.98621   1.99930   2.00331   2.00696
  Beta virt. eigenvalues --    2.01381   2.02688   2.02889   2.04266   2.04718
  Beta virt. eigenvalues --    2.05013   2.05781   2.07207   2.07520   2.08027
  Beta virt. eigenvalues --    2.10057   2.10679   2.11862   2.13292   2.14638
  Beta virt. eigenvalues --    2.15085   2.16086   2.16375   2.19422   2.20759
  Beta virt. eigenvalues --    2.20968   2.24902   2.26005   2.26454   2.28972
  Beta virt. eigenvalues --    2.30262   2.31987   2.34520   2.36059   2.36927
  Beta virt. eigenvalues --    2.40081   2.41468   2.42447   2.43776   2.46341
  Beta virt. eigenvalues --    2.50128   2.50945   2.54132   2.56342   2.57771
  Beta virt. eigenvalues --    2.59506   2.60476   2.61360   2.63028   2.64778
  Beta virt. eigenvalues --    2.66500   2.68083   2.69646   2.72530   2.73771
  Beta virt. eigenvalues --    2.77004   2.80277   2.84031   2.86804   2.90616
  Beta virt. eigenvalues --    2.91663   2.93221   2.94396   2.96063   2.99318
  Beta virt. eigenvalues --    3.02349   3.02954   3.05458   3.08567   3.10356
  Beta virt. eigenvalues --    3.13663   3.14538   3.18944   3.20074   3.20570
  Beta virt. eigenvalues --    3.22811   3.24337   3.26175   3.26508   3.27735
  Beta virt. eigenvalues --    3.31942   3.33919   3.34817   3.37915   3.48944
  Beta virt. eigenvalues --    3.50382   3.56881   3.68283   3.70269   3.72120
  Beta virt. eigenvalues --    3.76679   3.80230   3.85829   3.89234   4.09015
          Condensed to atoms (all electrons):
               1          2          3          4          5          6
     1  Br  35.135005   0.172321  -0.057150   0.002958   0.001104   0.002763
     2  C    0.172321   5.275988   0.330703   0.087520  -0.150477   0.086256
     3  C   -0.057150   0.330703   5.247230   0.195232   0.077350  -0.104016
     4  C    0.002958   0.087520   0.195232   5.268777   0.378640  -0.006337
     5  C    0.001104  -0.150477   0.077350   0.378640   5.205070   0.349246
     6  C    0.002763   0.086256  -0.104016  -0.006337   0.349246   5.618014
     7  C   -0.060903   0.316769   0.014902  -0.085641   0.015032   0.181961
     8  C   -0.000193   0.011735   0.000619   0.011000  -0.032840   0.239639
     9  C    0.000001  -0.000497   0.000037  -0.001076  -0.033423  -0.071779
    10  C    0.000000  -0.000146  -0.000440   0.009479  -0.024624  -0.038533
    11  C    0.000013   0.001403   0.010065  -0.064809   0.326145  -0.049896
    12  O   -0.000007   0.001513  -0.000026   0.000006   0.001549  -0.091346
    13  C   -0.000006  -0.000089  -0.000006   0.000025  -0.000293   0.008232
    14  C   -0.000003  -0.000178   0.000035  -0.000047   0.000114  -0.011328
    15  O   -0.000001  -0.000372   0.000001  -0.000103  -0.009271  -0.075537
    16  H   -0.003141  -0.086744   0.436913  -0.069788   0.017515  -0.001528
    17  H   -0.000261   0.018343  -0.086073   0.440665  -0.086127   0.019705
    18  H   -0.001701  -0.080503   0.015230  -0.001586   0.018928  -0.069120
    19  H   -0.000000   0.000007   0.000002   0.000038   0.000665   0.013403
    20  H   -0.000000   0.000003   0.000003  -0.000397  -0.005297  -0.002266
    21  H    0.000000   0.000002   0.000009  -0.000511   0.006898   0.001231
    22  H   -0.000000   0.000013  -0.000032   0.000624  -0.002511  -0.004675
    23  H   -0.000001  -0.000030  -0.000070  -0.006067  -0.010730   0.009876
    24  H   -0.000000   0.000147  -0.000476   0.000137  -0.008626  -0.009115
    25  H    0.000000  -0.000092  -0.000000   0.000001   0.000070   0.002471
    26  H   -0.000000   0.000018   0.000000  -0.000001   0.000010  -0.001872
    27  H   -0.000000  -0.000006  -0.000001   0.000000  -0.000041  -0.001523
    28  H   -0.000008   0.000590  -0.000112   0.000033   0.000334   0.000987
               7          8          9         10         11         12
     1  Br  -0.060903  -0.000193   0.000001   0.000000   0.000013  -0.000007
     2  C    0.316769   0.011735  -0.000497  -0.000146   0.001403   0.001513
     3  C    0.014902   0.000619   0.000037  -0.000440   0.010065  -0.000026
     4  C   -0.085641   0.011000  -0.001076   0.009479  -0.064809   0.000006
     5  C    0.015032  -0.032840  -0.033423  -0.024624   0.326145   0.001549
     6  C    0.181961   0.239639  -0.071779  -0.038533  -0.049896  -0.091346
     7  C    5.330244  -0.047760   0.012626   0.000029   0.008601   0.006160
     8  C   -0.047760   4.910371   0.375318  -0.000978  -0.050935   0.315377
     9  C    0.012626   0.375318   4.818894   0.321479  -0.027450  -0.052488
    10  C    0.000029  -0.000978   0.321479   4.814812   0.325978   0.006079
    11  C    0.008601  -0.050935  -0.027450   0.325978   4.820779  -0.000414
    12  O    0.006160   0.315377  -0.052488   0.006079  -0.000414   8.049955
    13  C   -0.003238  -0.062823  -0.007215   0.000278  -0.000061   0.313794
    14  C   -0.000721  -0.045923   0.006493   0.000049  -0.000237  -0.047850
    15  O    0.006779   0.255278  -0.055565  -0.015273   0.000761  -0.066460
    16  H    0.015650   0.000026   0.000001   0.000011  -0.000406   0.000000
    17  H   -0.001560  -0.000555   0.000053   0.000928  -0.023227   0.000002
    18  H    0.430881  -0.025290   0.000955   0.000106  -0.000574   0.015100
    19  H   -0.000761  -0.006174   0.317315  -0.021232   0.010637   0.000366
    20  H    0.000237  -0.012244   0.359335  -0.023191  -0.002036   0.001744
    21  H    0.000105   0.007955  -0.018284   0.351185  -0.020607  -0.000131
    22  H   -0.000661  -0.007799  -0.026427   0.356375  -0.010276   0.000354
    23  H   -0.000247  -0.000887   0.011793  -0.035495   0.348067  -0.000005
    24  H   -0.000288   0.001158  -0.010494  -0.006705   0.336486   0.000042
    25  H   -0.000931   0.003357  -0.000984   0.000048   0.000002  -0.025409
    26  H    0.000363   0.008602   0.001998  -0.000544   0.000002  -0.039554
    27  H    0.000544   0.004618   0.000859  -0.000087   0.000028   0.004272
    28  H    0.009485   0.005652  -0.000123  -0.000348   0.000068  -0.004353
              13         14         15         16         17         18
     1  Br  -0.000006  -0.000003  -0.000001  -0.003141  -0.000261  -0.001701
     2  C   -0.000089  -0.000178  -0.000372  -0.086744   0.018343  -0.080503
     3  C   -0.000006   0.000035   0.000001   0.436913  -0.086073   0.015230
     4  C    0.000025  -0.000047  -0.000103  -0.069788   0.440665  -0.001586
     5  C   -0.000293   0.000114  -0.009271   0.017515  -0.086127   0.018928
     6  C    0.008232  -0.011328  -0.075537  -0.001528   0.019705  -0.069120
     7  C   -0.003238  -0.000721   0.006779   0.015650  -0.001560   0.430881
     8  C   -0.062823  -0.045923   0.255278   0.000026  -0.000555  -0.025290
     9  C   -0.007215   0.006493  -0.055565   0.000001   0.000053   0.000955
    10  C    0.000278   0.000049  -0.015273   0.000011   0.000928   0.000106
    11  C   -0.000061  -0.000237   0.000761  -0.000406  -0.023227  -0.000574
    12  O    0.313794  -0.047850  -0.066460   0.000000   0.000002   0.015100
    13  C    4.492537   0.460169  -0.051890   0.000000  -0.000000  -0.003616
    14  C    0.460169   4.452772   0.315980   0.000000   0.000000   0.000548
    15  O   -0.051890   0.315980   8.128895   0.000000   0.000005  -0.000400
    16  H    0.000000   0.000000   0.000000   0.779162  -0.016357  -0.000372
    17  H   -0.000000   0.000000   0.000005  -0.016357   0.815142   0.000039
    18  H   -0.003616   0.000548  -0.000400  -0.000372   0.000039   0.779539
    19  H    0.001095  -0.000186   0.005410   0.000000  -0.000002  -0.000079
    20  H    0.000063  -0.000027   0.004926  -0.000000  -0.000008  -0.000003
    21  H   -0.000021   0.000045  -0.000206  -0.000000  -0.000002   0.000002
    22  H    0.000202  -0.000147   0.016770  -0.000000  -0.000029  -0.000018
    23  H   -0.000001  -0.000014   0.000188  -0.000006   0.006448   0.000004
    24  H    0.000002   0.000008  -0.000106   0.000007   0.002371   0.000022
    25  H    0.367488  -0.009226   0.003888  -0.000000  -0.000000  -0.000537
    26  H    0.352712  -0.025600  -0.001519  -0.000000   0.000000   0.000474
    27  H   -0.014115   0.354100  -0.024479  -0.000000   0.000000   0.000148
    28  H   -0.028463   0.365027  -0.034880  -0.000001  -0.000001  -0.000506
              19         20         21         22         23         24
     1  Br  -0.000000  -0.000000   0.000000  -0.000000  -0.000001  -0.000000
     2  C    0.000007   0.000003   0.000002   0.000013  -0.000030   0.000147
     3  C    0.000002   0.000003   0.000009  -0.000032  -0.000070  -0.000476
     4  C    0.000038  -0.000397  -0.000511   0.000624  -0.006067   0.000137
     5  C    0.000665  -0.005297   0.006898  -0.002511  -0.010730  -0.008626
     6  C    0.013403  -0.002266   0.001231  -0.004675   0.009876  -0.009115
     7  C   -0.000761   0.000237   0.000105  -0.000661  -0.000247  -0.000288
     8  C   -0.006174  -0.012244   0.007955  -0.007799  -0.000887   0.001158
     9  C    0.317315   0.359335  -0.018284  -0.026427   0.011793  -0.010494
    10  C   -0.021232  -0.023191   0.351185   0.356375  -0.035495  -0.006705
    11  C    0.010637  -0.002036  -0.020607  -0.010276   0.348067   0.336486
    12  O    0.000366   0.001744  -0.000131   0.000354  -0.000005   0.000042
    13  C    0.001095   0.000063  -0.000021   0.000202  -0.000001   0.000002
    14  C   -0.000186  -0.000027   0.000045  -0.000147  -0.000014   0.000008
    15  O    0.005410   0.004926  -0.000206   0.016770   0.000188  -0.000106
    16  H    0.000000  -0.000000  -0.000000  -0.000000  -0.000006   0.000007
    17  H   -0.000002  -0.000008  -0.000002  -0.000029   0.006448   0.002371
    18  H   -0.000079  -0.000003   0.000002  -0.000018   0.000004   0.000022
    19  H    0.756683  -0.027928  -0.009531  -0.004859  -0.000298  -0.000412
    20  H   -0.027928   0.688101  -0.007428   0.008991   0.000002   0.005237
    21  H   -0.009531  -0.007428   0.758197  -0.034730  -0.002846  -0.010750
    22  H   -0.004859   0.008991  -0.034730   0.691335  -0.010564   0.008206
    23  H   -0.000298   0.000002  -0.002846  -0.010564   0.730753  -0.031993
    24  H   -0.000412   0.005237  -0.010750   0.008206  -0.031993   0.724382
    25  H    0.000079   0.000002  -0.000001  -0.000003  -0.000000   0.000000
    26  H   -0.000422   0.000112   0.000022   0.000012  -0.000000   0.000000
    27  H   -0.000382  -0.000019  -0.000003  -0.000105   0.000002  -0.000001
    28  H    0.000260   0.000065  -0.000003   0.000178   0.000002  -0.000001
              25         26         27         28
     1  Br   0.000000  -0.000000  -0.000000  -0.000008
     2  C   -0.000092   0.000018  -0.000006   0.000590
     3  C   -0.000000   0.000000  -0.000001  -0.000112
     4  C    0.000001  -0.000001   0.000000   0.000033
     5  C    0.000070   0.000010  -0.000041   0.000334
     6  C    0.002471  -0.001872  -0.001523   0.000987
     7  C   -0.000931   0.000363   0.000544   0.009485
     8  C    0.003357   0.008602   0.004618   0.005652
     9  C   -0.000984   0.001998   0.000859  -0.000123
    10  C    0.000048  -0.000544  -0.000087  -0.000348
    11  C    0.000002   0.000002   0.000028   0.000068
    12  O   -0.025409  -0.039554   0.004272  -0.004353
    13  C    0.367488   0.352712  -0.014115  -0.028463
    14  C   -0.009226  -0.025600   0.354100   0.365027
    15  O    0.003888  -0.001519  -0.024479  -0.034880
    16  H   -0.000000  -0.000000  -0.000000  -0.000001
    17  H   -0.000000   0.000000   0.000000  -0.000001
    18  H   -0.000537   0.000474   0.000148  -0.000506
    19  H    0.000079  -0.000422  -0.000382   0.000260
    20  H    0.000002   0.000112  -0.000019   0.000065
    21  H   -0.000001   0.000022  -0.000003  -0.000003
    22  H   -0.000003   0.000012  -0.000105   0.000178
    23  H   -0.000000  -0.000000   0.000002   0.000002
    24  H    0.000000   0.000000  -0.000001  -0.000001
    25  H    0.699956  -0.049876   0.002791  -0.008464
    26  H   -0.049876   0.766105  -0.010858   0.007863
    27  H    0.002791  -0.010858   0.731499  -0.044636
    28  H   -0.008464   0.007863  -0.044636   0.712974
          Atomic-Atomic Spin Densities.
               1          2          3          4          5          6
     1  Br  -0.005780   0.009793  -0.003029   0.000338  -0.000044   0.000159
     2  C    0.009793  -0.139766   0.012754   0.000103   0.003133   0.001151
     3  C   -0.003029   0.012754   0.523060  -0.219699   0.002528   0.019190
     4  C    0.000338   0.000103  -0.219699   0.558521  -0.002748  -0.043186
     5  C   -0.000044   0.003133   0.002528  -0.002748  -0.117789  -0.025822
     6  C    0.000159   0.001151   0.019190  -0.043186  -0.025822   0.520940
     7  C   -0.002192  -0.016506  -0.038115   0.022494   0.003832  -0.198981
     8  C    0.000007   0.000410   0.000129   0.000416   0.015467   0.004725
     9  C   -0.000001  -0.000072   0.000058  -0.001154  -0.011449   0.018979
    10  C    0.000000   0.000069   0.000008   0.001736   0.020343  -0.019134
    11  C   -0.000002  -0.000263   0.000830  -0.008539  -0.014371   0.022755
    12  O    0.000001   0.000028  -0.000007   0.000031   0.000901  -0.009951
    13  C    0.000000   0.000010   0.000001  -0.000000   0.000052   0.000525
    14  C    0.000002   0.000028   0.000022  -0.000025   0.000212   0.002722
    15  O   -0.000000  -0.000078  -0.000041   0.000099  -0.003282  -0.014213
    16  H    0.000543  -0.001608   0.010293  -0.002567  -0.000221  -0.000092
    17  H    0.000008  -0.000218  -0.002246   0.011134  -0.001594  -0.000412
    18  H    0.000849  -0.001032  -0.000433   0.000128   0.000114  -0.004960
    19  H   -0.000000  -0.000001   0.000001  -0.000021  -0.000696   0.001856
    20  H   -0.000000  -0.000001   0.000004   0.000008   0.000352  -0.001215
    21  H    0.000000   0.000000   0.000000   0.000037   0.000499  -0.000475
    22  H   -0.000000  -0.000003  -0.000018   0.000140  -0.001723   0.000104
    23  H   -0.000000  -0.000030  -0.000239   0.001009   0.000367   0.001677
    24  H    0.000000  -0.000001  -0.000290   0.003731   0.004332  -0.003840
    25  H    0.000001   0.000003  -0.000000   0.000000   0.000012  -0.000065
    26  H    0.000000   0.000000   0.000000   0.000000   0.000005  -0.000045
    27  H   -0.000000  -0.000004  -0.000002   0.000002  -0.000048  -0.000502
    28  H   -0.000012  -0.000094  -0.000060   0.000043  -0.000277  -0.002468
               7          8          9         10         11         12
     1  Br  -0.002192   0.000007  -0.000001   0.000000  -0.000002   0.000001
     2  C   -0.016506   0.000410  -0.000072   0.000069  -0.000263   0.000028
     3  C   -0.038115   0.000129   0.000058   0.000008   0.000830  -0.000007
     4  C    0.022494   0.000416  -0.001154   0.001736  -0.008539   0.000031
     5  C    0.003832   0.015467  -0.011449   0.020343  -0.014371   0.000901
     6  C   -0.198981   0.004725   0.018979  -0.019134   0.022755  -0.009951
     7  C    0.587558  -0.011325  -0.000597   0.000065  -0.000545   0.001835
     8  C   -0.011325   0.073450  -0.036920   0.034433  -0.018671   0.001932
     9  C   -0.000597  -0.036920   0.029712  -0.039555   0.026313  -0.002973
    10  C    0.000065   0.034433  -0.039555   0.080324  -0.060728   0.000822
    11  C   -0.000545  -0.018671   0.026313  -0.060728   0.064430  -0.000293
    12  O    0.001835   0.001932  -0.002973   0.000822  -0.000293   0.012331
    13  C   -0.000509   0.002141  -0.000243   0.000129  -0.000028   0.000593
    14  C   -0.003122   0.004654  -0.000797   0.000293  -0.000080  -0.000145
    15  O    0.006249  -0.045270   0.012475  -0.006178   0.001996  -0.003656
    16  H   -0.000235  -0.000000  -0.000000   0.000000   0.000014   0.000000
    17  H   -0.000064   0.000019  -0.000006  -0.000020   0.000617   0.000000
    18  H    0.009754   0.001291  -0.000242   0.000078  -0.000067   0.000832
    19  H   -0.000053  -0.006918   0.004157  -0.005018   0.002082  -0.000910
    20  H   -0.000003   0.000667  -0.000075   0.001712  -0.000782   0.000112
    21  H    0.000006   0.001223  -0.002930   0.007052  -0.005331   0.000012
    22  H    0.000088  -0.004074   0.004978  -0.008739   0.005029  -0.000048
    23  H    0.000057  -0.001473   0.002158  -0.012505   0.004626  -0.000005
    24  H    0.000263   0.001111  -0.001872   0.007489  -0.007171   0.000017
    25  H   -0.000102  -0.000071  -0.000064   0.000011  -0.000003   0.000337
    26  H   -0.000007   0.000034  -0.000057   0.000014  -0.000003   0.000113
    27  H    0.000458  -0.001791   0.000369  -0.000124   0.000022  -0.000265
    28  H    0.004687  -0.001813   0.000308  -0.000122   0.000048  -0.000583
              13         14         15         16         17         18
     1  Br   0.000000   0.000002  -0.000000   0.000543   0.000008   0.000849
     2  C    0.000010   0.000028  -0.000078  -0.001608  -0.000218  -0.001032
     3  C    0.000001   0.000022  -0.000041   0.010293  -0.002246  -0.000433
     4  C   -0.000000  -0.000025   0.000099  -0.002567   0.011134   0.000128
     5  C    0.000052   0.000212  -0.003282  -0.000221  -0.001594   0.000114
     6  C    0.000525   0.002722  -0.014213  -0.000092  -0.000412  -0.004960
     7  C   -0.000509  -0.003122   0.006249  -0.000235  -0.000064   0.009754
     8  C    0.002141   0.004654  -0.045270  -0.000000   0.000019   0.001291
     9  C   -0.000243  -0.000797   0.012475  -0.000000  -0.000006  -0.000242
    10  C    0.000129   0.000293  -0.006178   0.000000  -0.000020   0.000078
    11  C   -0.000028  -0.000080   0.001996   0.000014   0.000617  -0.000067
    12  O    0.000593  -0.000145  -0.003656   0.000000   0.000000   0.000832
    13  C    0.000788   0.001905  -0.001906  -0.000000   0.000000   0.000122
    14  C    0.001905   0.014169  -0.005499   0.000000   0.000000   0.000266
    15  O   -0.001906  -0.005499   0.064610  -0.000000  -0.000000  -0.000476
    16  H   -0.000000   0.000000  -0.000000  -0.023544   0.000633   0.000011
    17  H    0.000000   0.000000  -0.000000   0.000633  -0.025502   0.000000
    18  H    0.000122   0.000266  -0.000476   0.000011   0.000000  -0.024188
    19  H   -0.000253  -0.000093   0.001358  -0.000000  -0.000000  -0.000017
    20  H   -0.000002   0.000006  -0.000048   0.000000  -0.000000   0.000002
    21  H    0.000003   0.000005  -0.000095   0.000000   0.000002   0.000001
    22  H   -0.000020  -0.000132   0.001044  -0.000000  -0.000001  -0.000005
    23  H   -0.000001  -0.000007   0.000117  -0.000003  -0.000152  -0.000006
    24  H    0.000001   0.000001  -0.000048   0.000001   0.000024   0.000007
    25  H   -0.000212   0.000029  -0.000226   0.000000   0.000000   0.000191
    26  H    0.000405  -0.000015  -0.000064   0.000000   0.000000   0.000012
    27  H   -0.001978  -0.008555   0.001033  -0.000000  -0.000000  -0.000087
    28  H   -0.000321  -0.004003   0.003283  -0.000000  -0.000000  -0.000653
              19         20         21         22         23         24
     1  Br  -0.000000  -0.000000   0.000000  -0.000000  -0.000000   0.000000
     2  C   -0.000001  -0.000001   0.000000  -0.000003  -0.000030  -0.000001
     3  C    0.000001   0.000004   0.000000  -0.000018  -0.000239  -0.000290
     4  C   -0.000021   0.000008   0.000037   0.000140   0.001009   0.003731
     5  C   -0.000696   0.000352   0.000499  -0.001723   0.000367   0.004332
     6  C    0.001856  -0.001215  -0.000475   0.000104   0.001677  -0.003840
     7  C   -0.000053  -0.000003   0.000006   0.000088   0.000057   0.000263
     8  C   -0.006918   0.000667   0.001223  -0.004074  -0.001473   0.001111
     9  C    0.004157  -0.000075  -0.002930   0.004978   0.002158  -0.001872
    10  C   -0.005018   0.001712   0.007052  -0.008739  -0.012505   0.007489
    11  C    0.002082  -0.000782  -0.005331   0.005029   0.004626  -0.007171
    12  O   -0.000910   0.000112   0.000012  -0.000048  -0.000005   0.000017
    13  C   -0.000253  -0.000002   0.000003  -0.000020  -0.000001   0.000001
    14  C   -0.000093   0.000006   0.000005  -0.000132  -0.000007   0.000001
    15  O    0.001358  -0.000048  -0.000095   0.001044   0.000117  -0.000048
    16  H   -0.000000   0.000000   0.000000  -0.000000  -0.000003   0.000001
    17  H   -0.000000  -0.000000   0.000002  -0.000001  -0.000152   0.000024
    18  H   -0.000017   0.000002   0.000001  -0.000005  -0.000006   0.000007
    19  H    0.006911  -0.000603  -0.000811   0.000770   0.000108  -0.000157
    20  H   -0.000603   0.000536   0.000090  -0.000052  -0.000006   0.000056
    21  H   -0.000811   0.000090   0.003620  -0.001323  -0.001055   0.000632
    22  H    0.000770  -0.000052  -0.001323   0.002920   0.001484  -0.000464
    23  H    0.000108  -0.000006  -0.001055   0.001484   0.006253  -0.001405
    24  H   -0.000157   0.000056   0.000632  -0.000464  -0.001405  -0.004823
    25  H   -0.000049   0.000000   0.000000  -0.000001  -0.000000   0.000000
    26  H   -0.000052   0.000002   0.000001  -0.000003  -0.000000   0.000000
    27  H    0.000208  -0.000000  -0.000003   0.000059   0.000002  -0.000000
    28  H    0.000066   0.000002  -0.000002   0.000030   0.000004  -0.000001
              25         26         27         28
     1  Br   0.000001   0.000000  -0.000000  -0.000012
     2  C    0.000003   0.000000  -0.000004  -0.000094
     3  C   -0.000000   0.000000  -0.000002  -0.000060
     4  C    0.000000   0.000000   0.000002   0.000043
     5  C    0.000012   0.000005  -0.000048  -0.000277
     6  C   -0.000065  -0.000045  -0.000502  -0.002468
     7  C   -0.000102  -0.000007   0.000458   0.004687
     8  C   -0.000071   0.000034  -0.001791  -0.001813
     9  C   -0.000064  -0.000057   0.000369   0.000308
    10  C    0.000011   0.000014  -0.000124  -0.000122
    11  C   -0.000003  -0.000003   0.000022   0.000048
    12  O    0.000337   0.000113  -0.000265  -0.000583
    13  C   -0.000212   0.000405  -0.001978  -0.000321
    14  C    0.000029  -0.000015  -0.008555  -0.004003
    15  O   -0.000226  -0.000064   0.001033   0.003283
    16  H    0.000000   0.000000  -0.000000  -0.000000
    17  H    0.000000   0.000000  -0.000000  -0.000000
    18  H    0.000191   0.000012  -0.000087  -0.000653
    19  H   -0.000049  -0.000052   0.000208   0.000066
    20  H    0.000000   0.000002  -0.000000   0.000002
    21  H    0.000000   0.000001  -0.000003  -0.000002
    22  H   -0.000001  -0.000003   0.000059   0.000030
    23  H   -0.000000  -0.000000   0.000002   0.000004
    24  H    0.000000   0.000000  -0.000000  -0.000001
    25  H    0.001816   0.000196  -0.000578  -0.000741
    26  H    0.000196  -0.000315  -0.000242  -0.000125
    27  H   -0.000578  -0.000242   0.012675   0.003210
    28  H   -0.000741  -0.000125   0.003210   0.000500
 Mulliken charges and spin densities:
               1          2
     1  Br  -0.190790   0.000639
     2  C    0.015803  -0.132195
     3  C   -0.079929   0.304698
     4  C   -0.158773   0.322032
     5  C   -0.034410  -0.127916
     6  C    0.005085   0.269423
     7  C   -0.147658   0.364987
     8  C    0.143696   0.013783
     9  C    0.078652   0.000500
    10  C   -0.019242   0.002455
    11  C    0.061893   0.011885
    12  O   -0.388268   0.001060
    13  C    0.175239   0.001201
    14  C    0.186147   0.001840
    15  O   -0.402819   0.011181
    16  H   -0.070941  -0.016777
    17  H   -0.089500  -0.017779
    18  H   -0.077673  -0.018512
    19  H   -0.033693   0.001865
    20  H    0.012024   0.000761
    21  H   -0.020594   0.001156
    22  H    0.019775   0.000039
    23  H   -0.007881   0.000974
    24  H    0.000761  -0.002404
    25  H    0.015372   0.000483
    26  H   -0.008048  -0.000146
    27  H   -0.002605   0.003860
    28  H    0.018379   0.000903
 Sum of Mulliken charges =  -1.00000   1.00000
 Mulliken charges and spin densities with hydrogens summed into heavy atoms:
               1          2
     1  Br  -0.190790   0.000639
     2  C    0.015803  -0.132195
     3  C   -0.150870   0.287921
     4  C   -0.248273   0.304254
     5  C   -0.034410  -0.127916
     6  C    0.005085   0.269423
     7  C   -0.225331   0.346475
     8  C    0.143696   0.013783
     9  C    0.056983   0.003126
    10  C   -0.020061   0.003651
    11  C    0.054773   0.010456
    12  O   -0.388268   0.001060
    13  C    0.182563   0.001538
    14  C    0.201922   0.006604
    15  O   -0.402819   0.011181
 Electronic spatial extent (au):  <R**2>=           4530.1687
 Charge=             -1.0000 electrons
 Dipole moment (field-independent basis, Debye):
    X=              3.1198    Y=             -3.5858    Z=              0.2535  Tot=              4.7598
 Quadrupole moment (field-independent basis, Debye-Ang):
   XX=           -126.4181   YY=           -109.4812   ZZ=           -111.1232
   XY=             -0.2856   XZ=             -0.4606   YZ=             -2.7114
 Traceless Quadrupole moment (field-independent basis, Debye-Ang):
   XX=            -10.7439   YY=              6.1930   ZZ=              4.5510
   XY=             -0.2856   XZ=             -0.4606   YZ=             -2.7114
 Octapole moment (field-independent basis, Debye-Ang**2):
  XXX=            -71.1112  YYY=            -73.2093  ZZZ=             -0.3907  XYY=            -22.1304
  XXY=            -18.5771  XXZ=             -2.7128  XZZ=            -33.0708  YZZ=            -13.0544
  YYZ=              4.1066  XYZ=             -4.0340
 Hexadecapole moment (field-independent basis, Debye-Ang**3):
 XXXX=          -3681.1993 YYYY=          -1765.8954 ZZZZ=           -319.4879 XXXY=             15.0956
 XXXZ=              0.3907 YYYX=             11.3380 YYYZ=             -3.0058 ZZZX=             13.1647
 ZZZY=             -9.5364 XXYY=           -876.3567 XXZZ=           -656.3567 YYZZ=           -354.0968
 XXYZ=             -5.0145 YYXZ=             11.6981 ZZXY=             21.7282
 N-N= 1.334846824988D+03 E-N=-1.027323273487D+04  KE= 3.180017637684D+03
 There are a total of      640584 grid points.
 ElSum from          density=      137.0000160428
 ElSum from atomic densities=      136.0000714315
 Hirshfeld populations at iteration   1 (CA, CB, DipXYZ):
               1          2          3          4          5
     1  Br  17.578107  17.578445   0.157046   0.084079   0.001155
     2  C    3.012890   3.013554  -0.080788  -0.047685  -0.005249
     3  C    3.183187   2.971034   0.023303   0.035012   0.003334
     4  C    3.186276   2.967003  -0.018615  -0.001075  -0.003103
     5  C    3.014478   3.014211   0.076578   0.030052   0.001076
     6  C    3.150051   2.953324   0.020697  -0.028927   0.009012
     7  C    3.194532   2.962152   0.042188   0.020583  -0.000236
     8  C    2.943009   2.914653   0.020375  -0.079267   0.013290
     9  C    3.037385   3.030935  -0.006778   0.034134   0.015438
    10  C    3.028962   3.026605  -0.025955  -0.004469  -0.019446
    11  C    3.030262   3.025351   0.004946  -0.034171   0.011195
    12  O    4.091661   4.087369   0.047346   0.004264   0.159460
    13  C    2.991456   2.990350  -0.024916   0.027877  -0.022128
    14  C    2.993038   2.989365   0.008753   0.034135   0.003617
    15  O    4.106718   4.086542  -0.070854  -0.082736  -0.123768
    16  H    0.512367   0.494683  -0.101817   0.086264   0.018628
    17  H    0.515155   0.496450  -0.004220   0.125852   0.017881
    18  H    0.514409   0.494689   0.001256  -0.127225  -0.019479
    19  H    0.495802   0.494373   0.106870  -0.065822   0.002510
    20  H    0.490558   0.486980  -0.017041   0.035720  -0.130455
    21  H    0.496145   0.495155   0.100251   0.066233  -0.034508
    22  H    0.490899   0.489630   0.020220  -0.022720   0.126667
    23  H    0.492745   0.491796   0.002734   0.089663   0.091213
    24  H    0.492917   0.493287   0.005648   0.060480  -0.112577
    25  H    0.485166   0.484787  -0.081748  -0.107835  -0.033787
    26  H    0.493712   0.493699   0.117814  -0.036086  -0.019614
    27  H    0.489628   0.486930   0.077212  -0.065512   0.086756
    28  H    0.488491   0.486653  -0.117052  -0.028725   0.045491
       Tot  69.000008  68.000008   0.283453   0.002095   0.082374

 Dip from Atomic Chgs              0.943934  -1.412925   0.017340
         Total Dipole              1.227387  -1.410830   0.099713

 Hirshfeld charges, spin densities, dipoles, and CM5 charges using IRadAn=      5:
              Q-H        S-H        Dx         Dy         Dz        Q-CM5   
     1  Br  -0.156552  -0.000339   0.157046   0.084079   0.001155  -0.141525
     2  C   -0.026444  -0.000663  -0.080788  -0.047685  -0.005249  -0.047563
     3  C   -0.154221   0.212154   0.023303   0.035012   0.003334  -0.206917
     4  C   -0.153280   0.219273  -0.018615  -0.001075  -0.003103  -0.205627
     5  C   -0.028690   0.000267   0.076578   0.030052   0.001076  -0.040326
     6  C   -0.103375   0.196727   0.020697  -0.028927   0.009012  -0.105203
     7  C   -0.156685   0.232380   0.042188   0.020583  -0.000236  -0.205519
     8  C    0.142338   0.028356   0.020375  -0.079267   0.013290   0.175152
     9  C   -0.068320   0.006450  -0.006778   0.034134   0.015438  -0.165268
    10  C   -0.055567   0.002357  -0.025955  -0.004469  -0.019446  -0.161171
    11  C   -0.055613   0.004911   0.004946  -0.034171   0.011195  -0.156513
    12  O   -0.179030   0.004292   0.047346   0.004264   0.159460  -0.264503
    13  C    0.018193   0.001106  -0.024916   0.027877  -0.022128  -0.056478
    14  C    0.017597   0.003672   0.008753   0.034135   0.003617  -0.056717
    15  O   -0.193261   0.020176  -0.070854  -0.082736  -0.123768  -0.277424
    16  H   -0.007050   0.017684  -0.101817   0.086264   0.018628   0.048660
    17  H   -0.011605   0.018706  -0.004220   0.125852   0.017881   0.043996
    18  H   -0.009097   0.019720   0.001256  -0.127225  -0.019479   0.053411
    19  H    0.009825   0.001429   0.106870  -0.065822   0.002510   0.069557
    20  H    0.022462   0.003578  -0.017041   0.035720  -0.130455   0.080723
    21  H    0.008700   0.000990   0.100251   0.066233  -0.034508   0.062419
    22  H    0.019471   0.001268   0.020220  -0.022720   0.126667   0.078058
    23  H    0.015458   0.000949   0.002734   0.089663   0.091213   0.070009
    24  H    0.013796  -0.000370   0.005648   0.060480  -0.112577   0.068566
    25  H    0.030048   0.000379  -0.081748  -0.107835  -0.033787   0.091960
    26  H    0.012590   0.000013   0.117814  -0.036086  -0.019614   0.075033
    27  H    0.023441   0.002698   0.077212  -0.065512   0.086756   0.085545
    28  H    0.024855   0.001838  -0.117052  -0.028725   0.045491   0.087651
       Tot  -1.000016   1.000000   0.283453   0.002095   0.082374  -1.000016
 Hirshfeld charges and spin densities with hydrogens summed into heavy atoms:
              Q-H        S-H       Q-CM5   
     1  Br  -0.156552  -0.000339  -0.141525
     2  C   -0.026444  -0.000663  -0.047563
     3  C   -0.161272   0.229838  -0.158256
     4  C   -0.164885   0.237979  -0.161631
     5  C   -0.028690   0.000267  -0.040326
     6  C   -0.103375   0.196727  -0.105203
     7  C   -0.165782   0.252100  -0.152108
     8  C    0.142338   0.028356   0.175152
     9  C   -0.036033   0.011456  -0.014988
    10  C   -0.027396   0.004616  -0.020694
    11  C   -0.026359   0.005489  -0.017939
    12  O   -0.179030   0.004292  -0.264503
    13  C    0.060831   0.001498   0.110515
    14  C    0.065894   0.008209   0.116478
    15  O   -0.193261   0.020176  -0.277424
 
 EQQ= 0.984403897693E-01 EQD=-0.408682942238E-01 EDD=-0.357922518357E-02
 EQQ+QD+DD= 0.539928703620E-01
 
                          Isotropic Fermi Contact Couplings
        Atom                 a.u.       MegaHertz       Gauss      10(-4) cm-1
     1  Br(79)            -0.00271      -3.04753      -1.08744      -1.01655
     2  C(13)             -0.04401     -49.47250     -17.65302     -16.50225
     3  C(13)              0.03944      44.33404      15.81949      14.78824
     4  C(13)              0.04155      46.71516      16.66913      15.58250
     5  C(13)             -0.03714     -41.75059     -14.89765     -13.92650
     6  C(13)              0.03791      42.61861      15.20738      14.21604
     7  C(13)              0.04709      52.93795      18.88958      17.65820
     8  C(13)             -0.01087     -12.21678      -4.35925      -4.07508
     9  C(13)              0.00348       3.90794       1.39445       1.30355
    10  C(13)             -0.00119      -1.33280      -0.47558      -0.44457
    11  C(13)              0.00325       3.65466       1.30407       1.21906
    12  O(17)              0.01526      -9.25221      -3.30142      -3.08621
    13  C(13)              0.00101       1.13735       0.40584       0.37938
    14  C(13)              0.00574       6.45316       2.30265       2.15254
    15  O(17)              0.07740     -46.91896     -16.74185     -15.65048
    16  H(1)              -0.00452     -20.19619      -7.20650      -6.73672
    17  H(1)              -0.00463     -20.71133      -7.39032      -6.90855
    18  H(1)              -0.00495     -22.11823      -7.89234      -7.37785
    19  H(1)               0.00055       2.47061       0.88158       0.82411
    20  H(1)               0.00101       4.50642       1.60800       1.50318
    21  H(1)               0.00041       1.81282       0.64686       0.60469
    22  H(1)               0.00033       1.45309       0.51850       0.48470
    23  H(1)              -0.00081      -3.64224      -1.29964      -1.21492
    24  H(1)              -0.00147      -6.58390      -2.34930      -2.19615
    25  H(1)               0.00011       0.49136       0.17533       0.16390
    26  H(1)              -0.00003      -0.11559      -0.04124      -0.03856
    27  H(1)               0.00099       4.40983       1.57354       1.47096
    28  H(1)               0.00006       0.26634       0.09504       0.08884
 --------------------------------------------------------
       Center         ----  Spin Dipole Couplings  ----
                      3XX-RR        3YY-RR        3ZZ-RR
 --------------------------------------------------------
     1   Atom        0.046450      0.013292     -0.059742
     2   Atom        0.045738      0.049604     -0.095341
     3   Atom       -0.156201     -0.155257      0.311459
     4   Atom       -0.169607     -0.154647      0.324254
     5   Atom        0.039299      0.045253     -0.084552
     6   Atom       -0.156494     -0.159288      0.315782
     7   Atom       -0.186980     -0.161719      0.348698
     8   Atom       -0.007485     -0.008199      0.015684
     9   Atom        0.005757     -0.004639     -0.001119
    10   Atom        0.003257     -0.000852     -0.002405
    11   Atom        0.002217     -0.000506     -0.001712
    12   Atom       -0.006907      0.012165     -0.005259
    13   Atom       -0.001043      0.002462     -0.001418
    14   Atom       -0.002000      0.005196     -0.003196
    15   Atom        0.020626     -0.009128     -0.011498
    16   Atom        0.011133     -0.011234      0.000101
    17   Atom       -0.025703      0.025147      0.000556
    18   Atom       -0.027548      0.026618      0.000930
    19   Atom        0.002965     -0.001553     -0.001412
    20   Atom        0.003936     -0.003349     -0.000587
    21   Atom        0.001827     -0.000562     -0.001265
    22   Atom        0.003026     -0.001562     -0.001464
    23   Atom        0.002982     -0.000490     -0.002492
    24   Atom        0.002045      0.000583     -0.002628
    25   Atom       -0.000827      0.002197     -0.001370
    26   Atom        0.000401      0.000672     -0.001073
    27   Atom       -0.000312      0.001056     -0.000744
    28   Atom       -0.000400      0.002452     -0.002052
 --------------------------------------------------------
                        XY            XZ            YZ
 --------------------------------------------------------
     1   Atom        0.026878     -0.005661      0.008630
     2   Atom       -0.005939     -0.006642      0.022624
     3   Atom       -0.006566      0.034609     -0.072969
     4   Atom       -0.002324      0.034628     -0.071301
     5   Atom       -0.005392     -0.012385      0.018921
     6   Atom       -0.002759      0.019800     -0.060735
     7   Atom       -0.001914      0.024689     -0.100089
     8   Atom       -0.002382      0.001876      0.008390
     9   Atom        0.000151     -0.000907      0.000195
    10   Atom        0.002150      0.000632     -0.000043
    11   Atom        0.001891     -0.001570      0.001927
    12   Atom       -0.002659      0.000404      0.008710
    13   Atom       -0.003230      0.000590     -0.001128
    14   Atom       -0.003439      0.000016      0.001210
    15   Atom       -0.044393      0.045853     -0.031299
    16   Atom       -0.022090     -0.003962     -0.000209
    17   Atom        0.000466      0.001504      0.003069
    18   Atom        0.001230      0.001752      0.003899
    19   Atom       -0.000920     -0.000674      0.000228
    20   Atom        0.000300     -0.003377     -0.000817
    21   Atom        0.001157     -0.000059     -0.000027
    22   Atom        0.001465      0.001644      0.000767
    23   Atom        0.002769      0.000902      0.001105
    24   Atom        0.001923     -0.001931     -0.001298
    25   Atom       -0.001209     -0.000080      0.000527
    26   Atom       -0.001680     -0.000265      0.000308
    27   Atom       -0.001572      0.001003     -0.001253
    28   Atom       -0.001348      0.001147     -0.003137
 --------------------------------------------------------


 ---------------------------------------------------------------------------------
              Anisotropic Spin Dipole Couplings in Principal Axis System
 ---------------------------------------------------------------------------------

       Atom             a.u.   MegaHertz   Gauss  10(-4) cm-1        Axes

              Baa    -0.0615    -8.252    -2.944    -2.753  0.0878 -0.1452  0.9855
     1 Br(79) Bbb     0.0001     0.008     0.003     0.003 -0.4785  0.8615  0.1696
              Bcc     0.0615     8.243     2.941     2.750  0.8737  0.4865 -0.0062
 
              Baa    -0.0990   -13.287    -4.741    -4.432  0.0392 -0.1488  0.9881
     2 C(13)  Bbb     0.0418     5.606     2.000     1.870  0.8534  0.5194  0.0444
              Bcc     0.0572     7.680     2.741     2.562 -0.5198  0.8415  0.1474
 
              Baa    -0.1666   -22.357    -7.977    -7.457  0.1589  0.9776  0.1377
     3 C(13)  Bbb    -0.1586   -21.279    -7.593    -7.098  0.9846 -0.1466 -0.0953
              Bcc     0.3252    43.635    15.570    14.555  0.0729 -0.1507  0.9859
 
              Baa    -0.1729   -23.200    -8.278    -7.739  0.9440 -0.3111 -0.1104
     4 C(13)  Bbb    -0.1641   -22.023    -7.858    -7.346  0.3230  0.9395  0.1143
              Bcc     0.3370    45.223    16.137    15.085  0.0681 -0.1435  0.9873
 
              Baa    -0.0883   -11.848    -4.228    -3.952  0.0900 -0.1361  0.9866
     5 C(13)  Bbb     0.0361     4.847     1.730     1.617  0.8551  0.5184 -0.0065
              Bcc     0.0522     7.001     2.498     2.335 -0.5106  0.8442  0.1631
 
              Baa    -0.1669   -22.401    -7.993    -7.472  0.0276  0.9919  0.1237
     6 C(13)  Bbb    -0.1573   -21.111    -7.533    -7.042  0.9988 -0.0222 -0.0446
              Bcc     0.3243    43.512    15.526    14.514  0.0415 -0.1248  0.9913
 
              Baa    -0.1890   -25.355    -9.047    -8.458  0.9500 -0.2964 -0.0988
     7 C(13)  Bbb    -0.1798   -24.123    -8.608    -8.046  0.3092  0.9369  0.1630
              Bcc     0.3687    49.478    17.655    16.504  0.0443 -0.1854  0.9817
 
              Baa    -0.0125    -1.674    -0.597    -0.558  0.4968  0.8221 -0.2780
     8 C(13)  Bbb    -0.0059    -0.792    -0.283    -0.264  0.8668 -0.4855  0.1133
              Bcc     0.0184     2.467     0.880     0.823  0.0418  0.2973  0.9539
 
              Baa    -0.0047    -0.624    -0.223    -0.208 -0.0197  0.9980 -0.0601
     9 C(13)  Bbb    -0.0012    -0.164    -0.059    -0.055  0.1272  0.0622  0.9899
              Bcc     0.0059     0.789     0.281     0.263  0.9917  0.0119 -0.1282
 
              Baa    -0.0026    -0.343    -0.122    -0.115 -0.2070  0.2845  0.9361
    10 C(13)  Bbb    -0.0017    -0.224    -0.080    -0.075 -0.3390  0.8767 -0.3414
              Bcc     0.0042     0.567     0.202     0.189  0.9177  0.3880  0.0850
 
              Baa    -0.0040    -0.543    -0.194    -0.181  0.3591 -0.5868  0.7258
    11 C(13)  Bbb     0.0008     0.106     0.038     0.035 -0.2003  0.7111  0.6740
              Bcc     0.0033     0.437     0.156     0.146  0.9116  0.3874 -0.1378
 
              Baa    -0.0096     0.697     0.249     0.233 -0.4829 -0.3751  0.7913
    12 O(17)  Bbb    -0.0064     0.461     0.164     0.154  0.8699 -0.1020  0.4826
              Bcc     0.0160    -1.158    -0.413    -0.386 -0.1003  0.9214  0.3755
 
              Baa    -0.0030    -0.398    -0.142    -0.133  0.8535  0.5185  0.0526
    13 C(13)  Bbb    -0.0017    -0.226    -0.080    -0.075 -0.1506  0.1488  0.9773
              Bcc     0.0047     0.624     0.223     0.208 -0.4989  0.8420 -0.2051
 
              Baa    -0.0038    -0.512    -0.183    -0.171 -0.6488 -0.3391  0.6812
    14 C(13)  Bbb    -0.0029    -0.387    -0.138    -0.129  0.6676  0.1757  0.7234
              Bcc     0.0067     0.899     0.321     0.300 -0.3650  0.9242  0.1124
 
              Baa    -0.0440     3.186     1.137     1.063 -0.5936 -0.0340  0.8041
    15 O(17)  Bbb    -0.0406     2.937     1.048     0.980  0.3861  0.8646  0.3216
              Bcc     0.0846    -6.123    -2.185    -2.042  0.7061 -0.5013  0.5001
 
              Baa    -0.0250   -13.346    -4.762    -4.452  0.5265  0.8454  0.0901
    16 H(1)   Bbb    -0.0001    -0.066    -0.023    -0.022  0.0635 -0.1448  0.9874
              Bcc     0.0251    13.412     4.786     4.474  0.8478 -0.5142 -0.1299
 
              Baa    -0.0258   -13.760    -4.910    -4.590  0.9984 -0.0057 -0.0563
    17 H(1)   Bbb     0.0003     0.137     0.049     0.046  0.0552 -0.1232  0.9908
              Bcc     0.0255    13.623     4.861     4.544  0.0126  0.9924  0.1227
 
              Baa    -0.0277   -14.765    -5.269    -4.925  0.9981 -0.0184 -0.0586
    18 H(1)   Bbb     0.0004     0.233     0.083     0.078  0.0552 -0.1496  0.9872
              Bcc     0.0272    14.532     5.185     4.847  0.0269  0.9886  0.1483
 
              Baa    -0.0018    -0.943    -0.337    -0.315  0.1314  0.9291 -0.3457
    19 H(1)   Bbb    -0.0015    -0.792    -0.282    -0.264  0.2057  0.3156  0.9263
              Bcc     0.0033     1.735     0.619     0.579  0.9698 -0.1928 -0.1496
 
              Baa    -0.0037    -1.952    -0.697    -0.651  0.1399  0.9078  0.3953
    20 H(1)   Bbb    -0.0021    -1.135    -0.405    -0.379  0.4586 -0.4133  0.7867
              Bcc     0.0058     3.087     1.101     1.030  0.8775  0.0713 -0.4742
 
              Baa    -0.0013    -0.676    -0.241    -0.225  0.0129  0.0167  0.9998
    21 H(1)   Bbb    -0.0010    -0.550    -0.196    -0.183 -0.3754  0.9268 -0.0106
              Bcc     0.0023     1.225     0.437     0.409  0.9268  0.3752 -0.0182
 
              Baa    -0.0023    -1.218    -0.435    -0.406 -0.0263 -0.7027  0.7110
    22 H(1)   Bbb    -0.0018    -0.937    -0.334    -0.313 -0.4173  0.6540  0.6310
              Bcc     0.0040     2.155     0.769     0.719  0.9084  0.2801  0.3104
 
              Baa    -0.0030    -1.606    -0.573    -0.536  0.0924 -0.4835  0.8705
    23 H(1)   Bbb    -0.0017    -0.933    -0.333    -0.311 -0.5126  0.7264  0.4578
              Bcc     0.0048     2.538     0.906     0.847  0.8536  0.4885  0.1807
 
              Baa    -0.0034    -1.827    -0.652    -0.609  0.2723  0.1756  0.9461
    24 H(1)   Bbb    -0.0007    -0.396    -0.141    -0.132 -0.5637  0.8260  0.0089
              Bcc     0.0042     2.224     0.793     0.742  0.7798  0.5357 -0.3239
 
              Baa    -0.0015    -0.790    -0.282    -0.263 -0.3324 -0.2400  0.9121
    25 H(1)   Bbb    -0.0012    -0.645    -0.230    -0.215  0.8853  0.2540  0.3895
              Bcc     0.0027     1.435     0.512     0.479 -0.3251  0.9370  0.1281
 
              Baa    -0.0012    -0.616    -0.220    -0.206  0.6448  0.6584 -0.3882
    26 H(1)   Bbb    -0.0011    -0.596    -0.213    -0.199  0.3628  0.1834  0.9136
              Bcc     0.0023     1.212     0.433     0.404 -0.6727  0.7300  0.1206
 
              Baa    -0.0016    -0.829    -0.296    -0.277 -0.6436 -0.0204  0.7651
    27 H(1)   Bbb    -0.0013    -0.668    -0.238    -0.223  0.5686  0.6564  0.4959
              Bcc     0.0028     1.497     0.534     0.499 -0.5123  0.7541 -0.4109
 
              Baa    -0.0037    -1.983    -0.708    -0.662 -0.1366  0.4251  0.8948
    28 H(1)   Bbb    -0.0009    -0.499    -0.178    -0.166  0.9362  0.3508 -0.0237
              Bcc     0.0047     2.482     0.886     0.828 -0.3239  0.8344 -0.4459
 

 ---------------------------------------------------------------------------------

 Running external command "gaunbo6 R"
         input file       "/home/rpaton/arbr500/dzvp/fukui/Gau-1919744.EIn"
         output file      "/home/rpaton/arbr500/dzvp/fukui/Gau-1919744.EOu"
         message file     "/home/rpaton/arbr500/dzvp/fukui/Gau-1919744.EMs"
         fchk file        "/home/rpaton/arbr500/dzvp/fukui/Gau-1919744.EFC"
         mat. el file     "/home/rpaton/arbr500/dzvp/fukui/Gau-1919744.EUF"

 Writing WrtUnf unformatted file "/home/rpaton/arbr500/dzvp/fukui/Gau-1919744.EUF"
 Gaussian matrix elements                                         Version   2 NLab=11 Len12L=8 Len4L=8
 Write SHELL TO ATOM MAP                   from file      0 offset           0 length                 135 to matrix element file.
 Write SHELL TYPES                         from file      0 offset           0 length                 135 to matrix element file.
 Write NUMBER OF PRIMITIVES PER SHELL      from file      0 offset           0 length                 135 to matrix element file.
 Write PRIMITIVE EXPONENTS                 from file      0 offset           0 length                 263 to matrix element file.
 Write CONTRACTION COEFFICIENTS            from file      0 offset           0 length                 263 to matrix element file.
 Write P(S=P) CONTRACTION COEFFICIENTS     from file      0 offset           0 length                 263 to matrix element file.
 Write COORDINATES OF EACH SHELL           from file      0 offset           0 length                 405 to matrix element file.
 Write BONDS PER ATOM                      from file      0 offset           0 length                  28 to matrix element file.
 Write BONDED ATOMS                        from file      0 offset           0 length                  60 to matrix element file.
 Write BOND TYPES                          from file      0 offset           0 length                  60 to matrix element file.
 Write ONIOM CHARGE/MULT                   from file      0 offset           0 length                  32 to matrix element file.
 Write ONIOM ATOM LAYERS                   from file      0 offset           0 length                  28 to matrix element file.
 Write ONIOM ATOM MODIFIERS                from file      0 offset           0 length                  28 to matrix element file.
 Write ONIOM ATOM TYPES                    from file      0 offset           0 length                  28 to matrix element file.
 Write ONIOM LINK ATOMS                    from file      0 offset           0 length                  28 to matrix element file.
 Write ONIOM LINK CHARGES                  from file      0 offset           0 length                  28 to matrix element file.
 Write ONIOM LINK DISTANCES                from file      0 offset           0 length                 112 to matrix element file.
 Write SYMINF INTS                         from file      0 offset           0 length                  26 to matrix element file.
 Write ROTTR TO SO                         from file      0 offset           0 length                  12 to matrix element file.
 Write GAUSSIAN SCALARS                    from file    501 offset           0 to matrix element file.
 Write OPTIMIZATION FLAGS                  from file      0 offset           0 length                  28 to matrix element file.
 Write INTEGER ISO                         from file      0 offset           0 length                  28 to matrix element file.
 Write INTEGER SPIN                        from file      0 offset           0 length                  28 to matrix element file.
 Write REAL ZEFFECTIVE                     from file      0 offset           0 length                  28 to matrix element file.
 Write REAL QUADRUPOLEMOMENT               from file      0 offset           0 length                  28 to matrix element file.
 Write REAL GFACTOR                        from file      0 offset           0 length                  28 to matrix element file.
 Write REAL ZNUCLEAR                       from file      0 offset           0 length                  28 to matrix element file.
 Write MULLIKEN CHARGES                    from file      0 offset           0 length                  28 to matrix element file.
 Write TYPE 6 CHARGES                      from file      0 offset           0 length                  28 to matrix element file.
 Write TYPE 7 CHARGES                      from file      0 offset           0 length                  28 to matrix element file.
[...]
                                                     152(v),125(v),197(v),198(v)
                                                     246(v)
   44. BD ( 1) C  4- H 17       0.98942    -0.36691  78(v),70(v),76(g),73(g)
                                                     143(v),125(v),75(v)
   45. BD ( 1) C  5- C  6       0.98015    -0.46823  81(g),76(g),82(g),77(v)
                                                     80(g),83(v),85(v),134(v)
                                                     93(v),161(v),170(v),197(v)
   46. BD ( 2) C  5- C  6       0.83004    -0.10351  72(v),74(v),86(v),94(v)
                                                     136(v),93(v),85(v),165(v)
                                                     163(v)
   47. BD ( 1) C  5- C 11       0.98658    -0.45506  81(v),78(g),76(g),73(v)
                                                     91(v),134(v),152(v),188(v)
                                                     90(g),93(g),94(g),274(v)
   48. BD ( 1) C  6- C  7       0.97783    -0.46102  69(v),78(g),71(g),80(v)
                                                     82(g),83(g),116(v),84(v)
                                                     143(v),117(v),171(v),170(v)
                                                     85(v)
   49. BD ( 1) C  6- C  8       0.98108    -0.44765  78(g),81(g),88(v),76(v)
                                                     71(v),95(v),161(v),143(v)
                                                     179(v),84(g),233(v),234(v)
                                                     99(v),206(v)
   50. BD ( 1) C  7- H 18       0.98816    -0.36595  78(v),70(v),81(g),116(v)
                                                     71(g),69(v),82(v)
   51. BD ( 1) C  8- C  9       0.98578    -0.48863  152(v),81(v),91(v),82(g)
                                                     99(v),188(v),87(g),88(g)
                                                     233(v),206(v),95(v),89(g)
                                                     234(v),254(v)
   52. BD ( 1) C  8- O 12       0.99380    -0.70580  87(v),97(v),78(v),216(v)
                                                     180(v),86(g)
   53. BD ( 1) C  8- O 15       0.99212    -0.68521  79(v),100(v),89(v),154(v)
                                                     225(v),82(g)
   54. BD ( 1) C  9- C 10       0.98814    -0.47420  85(v),93(v),84(g),90(g)
                                                     197(v),88(g),91(g),198(v)
                                                     89(g),170(v)
   55. BD ( 1) C  9- H 19       0.98937    -0.41195  82(v),90(v),86(v),85(v)
                                                     189(v)
   56. BD ( 1) C  9- H 20       0.98684    -0.40737  86(v),92(v),85(v)
   57. BD ( 1) C 10- C 11       0.99054    -0.46966  88(v),76(v),179(v),144(v)
                                                     80(g),87(g),91(g),92(g)
                                                     93(g)
   58. BD ( 1) C 10- H 21       0.99078    -0.41552  84(v),80(v),199(v),182(v)
                                                     94(v)
   59. BD ( 1) C 10- H 22       0.98903    -0.40588  89(v),94(v),197(v),179(v)
   60. BD ( 1) C 11- H 23       0.98908    -0.40021  87(v),78(v),79(v),145(v)
                                                     189(v),80(g)
   61. BD ( 1) C 11- H 24       0.98561    -0.39505  79(v),92(v),78(v),145(v)
                                                     143(v),80(g)
   62. BD ( 1) O 12- C 13       0.99251    -0.68311  86(v),99(v),100(v),82(v)
                                                     170(v),84(v),171(v)
   63. BD ( 1) C 13- C 14       0.99712    -0.52866  171(r),97(g),100(g)
   64. BD ( 1) C 13- H 25       0.99238    -0.46281  85(v),99(v)
   65. BD ( 1) C 13- H 26       0.99406    -0.45874  101(v),85(v),225(v),206(v)
   66. BD ( 1) C 14- O 15       0.99246    -0.68146  85(v),170(v),95(v),84(v)
                                                     97(v)
   67. BD ( 1) C 14- H 27       0.99185    -0.46030  86(v),95(v)
   68. BD ( 1) C 14- H 28       0.99349    -0.44659  98(v),86(v),216(v),233(v)
 ------ non-Lewis ----------------------------------
   69. BD*( 1)Br  1- C  2       0.01833     0.36126
   70. BD*( 1) C  2- C  3       0.01338     0.85287
   71. BD*( 1) C  2- C  7       0.01278     0.86608
   72. BD*( 2) C  2- C  7       0.18597     0.27801
   73. BD*( 1) C  3- C  4       0.00854     0.88632
   74. BD*( 2) C  3- C  4       0.13480     0.31339
   75. BD*( 1) C  3- H 16       0.00762     0.73744
   76. BD*( 1) C  4- C  5       0.01185     0.86512
   77. BD*( 1) C  4- H 17       0.00761     0.73295
   78. BD*( 1) C  5- C  6       0.01660     0.86644
   79. BD*( 2) C  5- C  6       0.18244     0.29894
   80. BD*( 1) C  5- C 11       0.01219     0.67814
   81. BD*( 1) C  6- C  7       0.01259     0.87715
   82. BD*( 1) C  6- C  8       0.02546     0.67820
   83. BD*( 1) C  7- H 18       0.00843     0.74097
   84. BD*( 1) C  8- C  9       0.02036     0.62460
   85. BD*( 1) C  8- O 12       0.02741     0.53701
   86. BD*( 1) C  8- O 15       0.03478     0.52519
   87. BD*( 1) C  9- C 10       0.00780     0.62114
   88. BD*( 1) C  9- H 19       0.00686     0.66752
   89. BD*( 1) C  9- H 20       0.00743     0.66850
   90. BD*( 1) C 10- C 11       0.00666     0.62927
   91. BD*( 1) C 10- H 21       0.00667     0.66947
   92. BD*( 1) C 10- H 22       0.00893     0.67690
   93. BD*( 1) C 11- H 23       0.00731     0.67863
   94. BD*( 1) C 11- H 24       0.01009     0.66505
   95. BD*( 1) O 12- C 13       0.00892     0.52578
   96. BD*( 1) C 13- C 14       0.01453     0.58067
   97. BD*( 1) C 13- H 25       0.00938     0.65561
   98. BD*( 1) C 13- H 26       0.01624     0.63723
   99. BD*( 1) C 14- O 15       0.00836     0.53625
  100. BD*( 1) C 14- H 27       0.00875     0.65624
  101. BD*( 1) C 14- H 28       0.01614     0.65522
  102. RY ( 1)Br  1             0.00195     0.83712
  103. RY ( 2)Br  1             0.00080     0.94246
  104. RY ( 3)Br  1             0.00029     0.77471
  105. RY ( 4)Br  1             0.00005     1.20419
  106. RY ( 5)Br  1             0.00004     0.77654
  107. RY ( 6)Br  1             0.00001     1.05129
  108. RY ( 7)Br  1             0.00001     1.12678
  109. RY ( 8)Br  1             0.00000     0.90475
  110. RY ( 9)Br  1             0.00000     1.10836
  111. RY (10)Br  1             0.00000     3.87223
  112. RY (11)Br  1             0.00000     3.58680
  113. RY (12)Br  1             0.00000     3.68022
  114. RY (13)Br  1             0.00000     3.74438
  115. RY (14)Br  1             0.00000     3.68453
  116. RY ( 1) C  2             0.00328     1.36979
  117. RY ( 2) C  2             0.00251     0.99980
  118. RY ( 3) C  2             0.00070     1.30116
  119. RY ( 4) C  2             0.00044     1.92638
  120. RY ( 5) C  2             0.00039     1.17908
  121. RY ( 6) C  2             0.00029     2.62175
  122. RY ( 7) C  2             0.00017     2.26785
  123. RY ( 8) C  2             0.00007     1.61479
  124. RY ( 9) C  2             0.00001     2.45754
  125. RY ( 1) C  3             0.00292     1.37349
  126. RY ( 2) C  3             0.00132     0.97138
  127. RY ( 3) C  3             0.00075     1.14000
  128. RY ( 4) C  3             0.00031     0.84129
  129. RY ( 5) C  3             0.00019     1.94136
  130. RY ( 6) C  3             0.00006     2.63583
  131. RY ( 7) C  3             0.00002     2.65069
  132. RY ( 8) C  3             0.00000     2.16556
  133. RY ( 9) C  3             0.00000     2.50223
  134. RY ( 1) C  4             0.00304     1.39750
  135. RY ( 2) C  4             0.00123     1.05468
  136. RY ( 3) C  4             0.00058     1.17207
  137. RY ( 4) C  4             0.00024     0.90419
  138. RY ( 5) C  4             0.00022     1.95999
  139. RY ( 6) C  4             0.00004     2.62383
  140. RY ( 7) C  4             0.00001     2.67602
  141. RY ( 8) C  4             0.00000     2.52380
  142. RY ( 9) C  4             0.00000     2.18075
  143. RY ( 1) C  5             0.00271     1.49441
  144. RY ( 2) C  5             0.00194     1.26428
  145. RY ( 3) C  5             0.00131     1.07498
  146. RY ( 4) C  5             0.00040     2.16240
  147. RY ( 5) C  5             0.00038     1.01992
  148. RY ( 6) C  5             0.00009     2.54300
  149. RY ( 7) C  5             0.00009     2.12085
  150. RY ( 8) C  5             0.00002     2.56596
  151. RY ( 9) C  5             0.00001     2.46362
  152. RY ( 1) C  6             0.00310     1.40154
  153. RY ( 2) C  6             0.00235     1.38683
  154. RY ( 3) C  6             0.00142     0.98340
  155. RY ( 4) C  6             0.00110     0.99567
  156. RY ( 5) C  6             0.00035     2.22443
  157. RY ( 6) C  6             0.00010     2.39740
  158. RY ( 7) C  6             0.00008     2.51371
  159. RY ( 8) C  6             0.00003     2.59857
  160. RY ( 9) C  6             0.00002     2.48650
  161. RY ( 1) C  7             0.00337     1.38912
  162. RY ( 2) C  7             0.00206     1.03810
  163. RY ( 3) C  7             0.00087     1.09763
  164. RY ( 4) C  7             0.00039     0.87215
  165. RY ( 5) C  7             0.00023     2.00934
  166. RY ( 6) C  7             0.00007     2.69500
  167. RY ( 7) C  7             0.00002     2.65784
  168. RY ( 8) C  7             0.00001     2.24895
  169. RY ( 9) C  7             0.00000     2.50855
  170. RY ( 1) C  8             0.00605     1.06891
  171. RY ( 2) C  8             0.00312     1.30590
  172. RY ( 3) C  8             0.00274     1.23719
  173. RY ( 4) C  8             0.00103     1.78293
  174. RY ( 5) C  8             0.00098     2.20076
  175. RY ( 6) C  8             0.00075     2.42194
  176. RY ( 7) C  8             0.00056     2.33748
  177. RY ( 8) C  8             0.00046     2.02012
  178. RY ( 9) C  8             0.00015     2.21062
  179. RY ( 1) C  9             0.00347     1.22260
  180. RY ( 2) C  9             0.00125     0.86387
  181. RY ( 3) C  9             0.00062     1.26801
  182. RY ( 4) C  9             0.00050     1.14634
  183. RY ( 5) C  9             0.00011     2.28366
  184. RY ( 6) C  9             0.00008     2.38146
  185. RY ( 7) C  9             0.00006     2.36217
  186. RY ( 8) C  9             0.00003     2.39027
  187. RY ( 9) C  9             0.00001     2.35038
  188. RY ( 1) C 10             0.00267     1.27032
  189. RY ( 2) C 10             0.00075     1.29019
  190. RY ( 3) C 10             0.00047     0.95871
  191. RY ( 4) C 10             0.00018     1.33823
  192. RY ( 5) C 10             0.00013     2.15123
  193. RY ( 6) C 10             0.00006     2.41901
  194. RY ( 7) C 10             0.00003     2.23220
  195. RY ( 8) C 10             0.00001     2.38899
  196. RY ( 9) C 10             0.00000     2.23341
  197. RY ( 1) C 11             0.00244     1.13382
  198. RY ( 2) C 11             0.00134     1.15922
  199. RY ( 3) C 11             0.00067     1.08109
  200. RY ( 4) C 11             0.00027     1.93469
  201. RY ( 5) C 11             0.00020     1.58705
  202. RY ( 6) C 11             0.00003     2.32475
  203. RY ( 7) C 11             0.00001     2.35337
  204. RY ( 8) C 11             0.00001     2.52277
  205. RY ( 9) C 11             0.00000     2.27954
  206. RY ( 1) O 12             0.00151     1.47351
  207. RY ( 2) O 12             0.00084     1.53967
  208. RY ( 3) O 12             0.00022     2.05614
  209. RY ( 4) O 12             0.00009     2.39739
  210. RY ( 5) O 12             0.00007     2.45027
  211. RY ( 6) O 12             0.00003     3.26305
  212. RY ( 7) O 12             0.00002     2.82539
  213. RY ( 8) O 12             0.00001     3.10153
  214. RY ( 9) O 12             0.00000     3.00376
  215. RY ( 1) C 13             0.00237     0.93053
  216. RY ( 2) C 13             0.00144     1.04408
  217. RY ( 3) C 13             0.00091     2.28948
  218. RY ( 4) C 13             0.00061     1.55844
  219. RY ( 5) C 13             0.00021     1.30532
  220. RY ( 6) C 13             0.00017     1.39722
  221. RY ( 7) C 13             0.00007     2.23369
  222. RY ( 8) C 13             0.00006     2.36810
  223. RY ( 9) C 13             0.00001     2.39241
  224. RY ( 1) C 14             0.00211     0.93754
  225. RY ( 2) C 14             0.00142     1.16875
  226. RY ( 3) C 14             0.00095     2.16745
  227. RY ( 4) C 14             0.00058     1.47299
  228. RY ( 5) C 14             0.00021     1.49673
  229. RY ( 6) C 14             0.00018     1.26544
  230. RY ( 7) C 14             0.00008     2.34874
  231. RY ( 8) C 14             0.00006     2.33357
  232. RY ( 9) C 14             0.00000     2.38805
  233. RY ( 1) O 15             0.00166     1.46714
  234. RY ( 2) O 15             0.00107     1.59003
  235. RY ( 3) O 15             0.00028     1.97550
  236. RY ( 4) O 15             0.00013     2.22018
  237. RY ( 5) O 15             0.00008     2.76759
  238. RY ( 6) O 15             0.00003     3.02384
  239. RY ( 7) O 15             0.00002     3.05259
  240. RY ( 8) O 15             0.00001     3.09905
  241. RY ( 9) O 15             0.00000     2.98131
  242. RY ( 1) H 16             0.00093     0.62666
  243. RY ( 2) H 16             0.00010     1.94253
  244. RY ( 3) H 16             0.00003     2.37192
  245. RY ( 4) H 16             0.00002     2.50650
  246. RY ( 1) H 17             0.00089     0.63815
  247. RY ( 2) H 17             0.00010     1.94445
  248. RY ( 3) H 17             0.00002     2.61341
  249. RY ( 4) H 17             0.00002     2.26009
  250. RY ( 1) H 18             0.00169     0.67598
  251. RY ( 2) H 18             0.00009     1.96648
  252. RY ( 3) H 18             0.00004     2.30619
  253. RY ( 4) H 18             0.00003     2.66401
  254. RY ( 1) H 19             0.00176     0.58970
  255. RY ( 2) H 19             0.00006     2.07713
  256. RY ( 3) H 19             0.00004     2.07273
  257. RY ( 4) H 19             0.00001     2.54858
  258. RY ( 1) H 20             0.00109     0.59726
  259. RY ( 2) H 20             0.00004     2.04384
  260. RY ( 3) H 20             0.00003     2.11313
  261. RY ( 4) H 20             0.00001     2.52844
  262. RY ( 1) H 21             0.00110     0.56477
  263. RY ( 2) H 21             0.00005     2.07718
  264. RY ( 3) H 21             0.00003     2.01933
  265. RY ( 4) H 21             0.00001     2.54071
  266. RY ( 1) H 22             0.00165     0.60143
  267. RY ( 2) H 22             0.00005     2.11457
  268. RY ( 3) H 22             0.00003     2.00645
  269. RY ( 4) H 22             0.00001     2.50967
  270. RY ( 1) H 23             0.00109     0.59423
  271. RY ( 2) H 23             0.00005     2.09562
  272. RY ( 3) H 23             0.00004     2.02172
  273. RY ( 4) H 23             0.00001     2.55444
  274. RY ( 1) H 24             0.00134     0.60220
  275. RY ( 2) H 24             0.00005     2.07731
  276. RY ( 3) H 24             0.00004     2.10852
  277. RY ( 4) H 24             0.00001     2.52833
  278. RY ( 1) H 25             0.00090     0.52389
  279. RY ( 2) H 25             0.00006     1.93244
  280. RY ( 3) H 25             0.00004     2.17176
  281. RY ( 4) H 25             0.00001     2.38353
  282. RY ( 1) H 26             0.00177     0.53832
  283. RY ( 2) H 26             0.00006     1.91292
  284. RY ( 3) H 26             0.00004     2.15832
  285. RY ( 4) H 26             0.00000     2.43239
  286. RY ( 1) H 27             0.00086     0.52010
  287. RY ( 2) H 27             0.00007     1.94966
  288. RY ( 3) H 27             0.00004     2.11906
  289. RY ( 4) H 27             0.00001     2.40968
  290. RY ( 1) H 28             0.00175     0.58402
  291. RY ( 2) H 28             0.00005     2.00800
  292. RY ( 3) H 28             0.00004     2.10134
  293. RY ( 4) H 28             0.00000     2.43523
          -------------------------------
                 Total Lewis   67.00333  ( 98.5343%)
           Valence non-Lewis    0.88520  (  1.3018%)
           Rydberg non-Lewis    0.11147  (  0.1639%)
          -------------------------------
               Total unit  1   68.00000  (100.0000%)
              Charge unit  1    0.00000

 $CHOOSE
  ALPHA
   LONE 1 3 6 1 7 1 12 2 15 2 END
   BOND S 1 2 D 2 3 S 2 7 S 3 4 S 3 16 D 4 5 S 4 17 S 5 6 S 5 11 S 6 7 S 6 8
        S 7 18 S 8 9 S 8 12 S 8 15 S 9 10 S 9 19 S 9 20 S 10 11 S 10 21 S 10 22
        S 11 23 S 11 24 S 12 13 S 13 14 S 13 25 S 13 26 S 14 15 S 14 27 S 14 28
        END
  END
  BETA
   LONE 1 3 12 2 15 2 END
   BOND S 1 2 S 2 3 D 2 7 D 3 4 S 3 16 S 4 5 S 4 17 D 5 6 S 5 11 S 6 7 S 6 8
        S 7 18 S 8 9 S 8 12 S 8 15 S 9 10 S 9 19 S 9 20 S 10 11 S 10 21 S 10 22
        S 11 23 S 11 24 S 12 13 S 13 14 S 13 25 S 13 26 S 14 15 S 14 27 S 14 28
        END
  END
 $END

 NBO analysis completed in 3.32 CPU seconds (3 wall seconds)
 Maximum scratch memory used by NBO was 1250081 words (9.54 MB)
 Maximum scratch memory used by G16NBO was 181806 words (1.39 MB)

 Opening RunExU unformatted file "/home/rpaton/arbr500/dzvp/fukui/Gau-1919744.EUF"
 Read unf file /home/rpaton/arbr500/dzvp/fukui/Gau-1919744.EUF:
 Label Gaussian matrix elements                                         IVers= 2 NLab= 2 Version=ES64L-G16RevC.01
 Title arbr42_wb97xd_redcreated by GaussianPrep                        
 NAtoms=    28 NBasis=   293 NBsUse=   293 ICharg=    -1 Multip=     2 NE=   137 Len12L=8 Len4L=8 IOpCl= 1 ICGU=112
 GAUSSIAN SCALARS                    NI= 1 NR= 1 NTot=       1 LenBuf=    2 NRI=1 N=    1000
 NPA CHARGES                         NI= 0 NR= 1 NTot=      28 LenBuf= 2048 NRI=1 N=      28
 Recovered energy= -3188.77615449     dipole=      1.227429673676     -1.410772582414      0.099742290358
 Unable to Open any file for archive entry.
 1\1\GINC-DYNAMO\SP\UwB97XD\def2SVP\C12H13Br1O2(1-,2)\RPATON\28-Sep-202
 4\0\\# pop=(nbo6,hirshfeld) wb97xd/def2svp\\arbr42_wb97xd_redcreated b
 y GaussianPrep\\-1,2\Br,0,-3.430527,-0.492751,-0.047401\C,0,-1.772043,
 0.421544,0.002626\C,0,-1.74842,1.799052,0.214116\C,0,-0.522731,2.45434
 4,0.227806\C,0,0.683391,1.766243,0.050928\C,0,0.637708,0.376756,-0.137
 772\C,0,-0.591383,-0.2871,-0.178483\C,0,1.926591,-0.437239,-0.231347\C
 ,0,3.089775,0.406161,-0.73086\C,0,3.2267,1.658327,0.126803\C,0,1.98529
 ,2.536726,-0.005015\O,0,1.719594,-1.571286,-1.043904\C,0,2.098117,-2.7
 25552,-0.329506\C,0,1.911024,-2.288264,1.116754\O,0,2.267665,-0.930853
 ,1.057354\H,0,-2.677602,2.352663,0.356726\H,0,-0.500857,3.537241,0.377
 143\H,0,-0.615601,-1.358935,-0.374179\H,0,3.997908,-0.212919,-0.693576
 \H,0,2.898703,0.666686,-1.784621\H,0,4.122304,2.229041,-0.159762\H,0,3
 .362417,1.34923,1.175072\H,0,1.982436,3.323125,0.765667\H,0,2.016347,3
 .064364,-0.97549\H,0,1.452656,-3.562342,-0.631554\H,0,3.150775,-2.9928
 52,-0.535242\H,0,2.573405,-2.800615,1.827583\H,0,0.863354,-2.417286,1.
 447359\\Version=ES64L-G16RevC.01\State=2-A\HF=-3188.7761545\S2=0.76413
 4\S2-1=0.\S2A=0.750121\RMSD=8.767e-09\Dipole=1.2274298,-1.4107724,0.09
 97423\Quadrupole=-7.9878508,4.6043233,3.3835274,-0.2123231,-0.3424212,
 -2.01584\PG=C01 [X(C12H13Br1O2)]\\@
 The archive entry for this job was punched.


 TERENCE, THIS IS STUPID STUFF:
 YOU EAT YOUR VICTUALS FAST ENOUGH;
 THERE CAN'T BE MUCH AMISS, 'TIS CLEAR
 TO SEE THE RATE YOU DRINK YOUR BEER.
 BUT OH, GOOD LORD, THE VERSE YOU MAKE,
 IT GIVES A CHAP THE BELLY-ACHE.
 THE COW, THE OLD COW, SHE IS DEAD;
 IT SLEEPS WELL, THE HORNED HEAD:
 WE POOR LADS, 'TIS OUR TURN NOW
 TO HEAR SUCH TUNES AS KILLED THE COW.
 PRETTY FRIENDSHIP 'TIS TO RHYME
 YOUR FRIENDS TO DEATH BEFORE THEIR TIME.
 MOPING, MELANCHOLY MAD:
 COME PIPE A TUNE TO DANCE TO, LAD.

     -- A. E. HOUSMAN
 Job cpu time:       0 days  0 hours 47 minutes 17.4 seconds.
 Elapsed time:       0 days  0 hours  1 minutes 59.2 seconds.
 File lengths (MBytes):  RWF=     85 Int=      0 D2E=      0 Chk=      7 Scr=      1
 Normal termination of Gaussian 16 at Sat Sep 28 11:46:41 2024.
