 Entering Gaussian System, Link 0=/usr/local/Gaussian/G16C/g16/g16
 Input=arbr37_wb97xd_oxd.com
 Output=arbr37_wb97xd_oxd.log
 Initial command:
 /usr/local/Gaussian/G16C/g16/l1.exe "/home/rpaton/opt/dzvp/fukui/Gau-1744571.inp" -scrdir="/home/rpaton/opt/dzvp/fukui/"
 Entering Link 1 = /usr/local/Gaussian/G16C/g16/l1.exe PID=   1744572.
  
 Copyright (c) 1988-2019, Gaussian, Inc.  All Rights Reserved.
  
 This is part of the Gaussian(R) 16 program.  It is based on
 the Gaussian(R) 09 system (copyright 2009, Gaussian, Inc.),
 the Gaussian(R) 03 system (copyright 2003, Gaussian, Inc.),
 the Gaussian(R) 98 system (copyright 1998, Gaussian, Inc.),
 the Gaussian(R) 94 system (copyright 1995, Gaussian, Inc.),
 the Gaussian 92(TM) system (copyright 1992, Gaussian, Inc.),
 the Gaussian 90(TM) system (copyright 1990, Gaussian, Inc.),
 the Gaussian 88(TM) system (copyright 1988, Gaussian, Inc.),
 the Gaussian 86(TM) system (copyright 1986, Carnegie Mellon
 University), and the Gaussian 82(TM) system (copyright 1983,
 Carnegie Mellon University). Gaussian is a federally registered
 trademark of Gaussian, Inc.
  
 This software contains proprietary and confidential information,
 including trade secrets, belonging to Gaussian, Inc.
  
 This software is provided under written license and may be
 used, copied, transmitted, or stored only in accord with that
 written license.
  
 The following legend is applicable only to US Government
 contracts under FAR:
  
                    RESTRICTED RIGHTS LEGEND
  
 Use, reproduction and disclosure by the US Government is
 subject to restrictions as set forth in subparagraphs (a)
 and (c) of the Commercial Computer Software - Restricted
 Rights clause in FAR 52.227-19.
  
 Gaussian, Inc.
 340 Quinnipiac St., Bldg. 40, Wallingford CT 06492
  
  
 ---------------------------------------------------------------
 Warning -- This program may not be used in any manner that
 competes with the business of Gaussian, Inc. or will provide
 assistance to any competitor of Gaussian, Inc.  The licensee
 of this program is prohibited from giving any competitor of
 Gaussian, Inc. access to this program.  By using this program,
 the user acknowledges that Gaussian, Inc. is engaged in the
 business of creating and licensing software in the field of
 computational chemistry and represents and warrants to the
 licensee that it is not a competitor of Gaussian, Inc. and that
 it will not use this program in any manner prohibited above.
 ---------------------------------------------------------------
  

 Cite this work as:
 Gaussian 16, Revision C.01,
 M. J. Frisch, G. W. Trucks, H. B. Schlegel, G. E. Scuseria, 
 M. A. Robb, J. R. Cheeseman, G. Scalmani, V. Barone, 
 G. A. Petersson, H. Nakatsuji, X. Li, M. Caricato, A. V. Marenich, 
 J. Bloino, B. G. Janesko, R. Gomperts, B. Mennucci, H. P. Hratchian, 
 J. V. Ortiz, A. F. Izmaylov, J. L. Sonnenberg, D. Williams-Young, 
 F. Ding, F. Lipparini, F. Egidi, J. Goings, B. Peng, A. Petrone, 
 T. Henderson, D. Ranasinghe, V. G. Zakrzewski, J. Gao, N. Rega, 
 G. Zheng, W. Liang, M. Hada, M. Ehara, K. Toyota, R. Fukuda, 
 J. Hasegawa, M. Ishida, T. Nakajima, Y. Honda, O. Kitao, H. Nakai, 
 T. Vreven, K. Throssell, J. A. Montgomery, Jr., J. E. Peralta, 
 F. Ogliaro, M. J. Bearpark, J. J. Heyd, E. N. Brothers, K. N. Kudin, 
 V. N. Staroverov, T. A. Keith, R. Kobayashi, J. Normand, 
 K. Raghavachari, A. P. Rendell, J. C. Burant, S. S. Iyengar, 
 J. Tomasi, M. Cossi, J. M. Millam, M. Klene, C. Adamo, R. Cammi, 
 J. W. Ochterski, R. L. Martin, K. Morokuma, O. Farkas, 
 J. B. Foresman, and D. J. Fox, Gaussian, Inc., Wallingford CT, 2019.
 
 ******************************************
 Gaussian 16:  ES64L-G16RevC.01  3-Jul-2019
                27-Sep-2024 
 ******************************************
 %chk=arbr37_wb97xd_popn.chk
 %mem=48GB
 %nprocshared=24
 Will use up to   24 processors via shared memory.
 -------------------------------------
 # pop=(nbo6,hirshfeld) wb97xd/def2svp
 -------------------------------------
 1/38=1,172=1/1;
 2/12=2,17=6,18=5,40=1/2;
 3/5=43,7=101,11=2,25=1,30=1,74=-58/1,2,3;
 4//1;
 5/5=2,38=5/2;
 6/7=2,8=2,9=2,10=2,28=1,40=1,79=1,113=1,114=1,124=3103,126=1/1,12;
 99/5=1,9=1/99;
 -----------------------------------------
 arbr37_wb97xd_popncreated by GaussianPrep
 -----------------------------------------
 Symbolic Z-matrix:
 Charge =  1 Multiplicity = 2
 Br                   -2.65797  -0.21924   0. 
 C                    -0.80079   0.15879   0. 
 C                    -0.37575   1.48941   0. 
 C                     0.98756   1.78409   0. 
 C                     1.90735   0.73671   0. 
 C                     1.46336  -0.59884   0. 
 C                     0.10876  -0.90188   0. 
 C                     2.66185  -1.51071  0. 
 C                     3.81507  -0.54233   0. 
 C                     3.37507   0.7288   0. 
 H                    -1.11377   2.29289  0. 
 H                     1.32017   2.82438  0. 
 H                    -0.24558  -1.93429   0. 
 H                     2.67841  -2.17126  -0.88419 
 H                     2.67841  -2.17127   0.88418 
 H                     4.85945  -0.85604   0.00001 
 H                     3.9969    1.6247   0. 
 
                          Input orientation:                          
 ---------------------------------------------------------------------
 Center     Atomic      Atomic             Coordinates (Angstroms)
 Number     Number       Type             X           Y           Z
 ---------------------------------------------------------------------
      1         35           0       -2.657969   -0.219239    0.000000
      2          6           0       -0.800785    0.158792    0.000001
      3          6           0       -0.375752    1.489412    0.000000
      4          6           0        0.987563    1.784087    0.000000
      5          6           0        1.907351    0.736706    0.000000
      6          6           0        1.463360   -0.598840    0.000001
      7          6           0        0.108760   -0.901878    0.000001
      8          6           0        2.661849   -1.510705   -0.000003
      9          6           0        3.815073   -0.542328    0.000004
     10          6           0        3.375071    0.728796   -0.000002
     11          1           0       -1.113771    2.292891   -0.000001
     12          1           0        1.320172    2.824375   -0.000001
     13          1           0       -0.245580   -1.934291    0.000000
     14          1           0        2.678408   -2.171260   -0.884188
     15          1           0        2.678408   -2.171269    0.884176
     16          1           0        4.859451   -0.856040    0.000007
     17          1           0        3.996898    1.624698   -0.000003
 ---------------------------------------------------------------------
                    Distance matrix (angstroms):
                    1          2          3          4          5
     1  Br   0.000000
     2  C    1.895268   0.000000
     3  C    2.850965   1.396855   0.000000
     4  C    4.159714   2.416562   1.394798   0.000000
     5  C    4.664330   2.769113   2.403981   1.393921   0.000000
     6  C    4.138774   2.387542   2.782648   2.429964   1.407413
     7  C    2.849699   1.397245   2.439881   2.826075   2.433082
     8  C    5.474335   3.844093   4.269394   3.695793   2.370680
     9  C    6.481100   4.668802   4.657358   3.661560   2.296809
    10  C    6.107073   4.214579   3.827167   2.610332   1.467741
    11  H    2.948787   2.156928   1.090986   2.162056   3.398366
    12  H    5.008911   3.406434   2.158306   1.092167   2.168673
    13  H    2.959903   2.165467   3.426177   3.917522   3.430647
    14  H    5.750573   4.279686   4.848732   4.391528   3.135695
    15  H    5.750575   4.279688   4.848737   4.391533   3.135700
    16  H    7.544344   5.750492   5.736593   4.686340   3.354360
    17  H    6.905603   5.016637   4.374742   3.013553   2.270404
                    6          7          8          9         10
     6  C    0.000000
     7  C    1.388083   0.000000
     8  C    1.505946   2.624678   0.000000
     9  C    2.352392   3.723712   1.505882   0.000000
    10  C    2.327500   3.650738   2.350330   1.345124   0.000000
    11  H    3.873463   3.420692   5.359352   5.686121   4.753535
    12  H    3.426208   3.918224   4.537953   4.190372   2.934972
    13  H    2.168849   1.091528   2.938123   4.292606   4.494569
    14  H    2.175003   2.999369   1.103807   2.174218   3.110860
    15  H    2.175003   2.999368   1.103808   2.174216   3.110866
    16  H    3.405816   4.750912   2.293042   1.090477   2.171426
    17  H    3.370895   4.636939   3.407801   2.174641   1.090555
                   11         12         13         14         15
    11  H    0.000000
    12  H    2.491296   0.000000
    13  H    4.315417   5.009639   0.000000
    14  H    5.923770   5.251948   3.063927   0.000000
    15  H    5.923775   5.251955   3.063924   1.768364   0.000000
    16  H    6.752418   5.106070   5.217659   2.696025   2.696021
    17  H    5.154165   2.933272   5.537601   4.114547   4.114554
                   16         17
    16  H    0.000000
    17  H    2.626416   0.000000
 Stoichiometry    C9H7Br(1+,2)
 Framework group  C1[X(C9H7Br)]
 Deg. of freedom    45
 Full point group                 C1      NOp   1
 Largest Abelian subgroup         C1      NOp   1
 Largest concise Abelian subgroup C1      NOp   1
                         Standard orientation:                         
 ---------------------------------------------------------------------
 Center     Atomic      Atomic             Coordinates (Angstroms)
 Number     Number       Type             X           Y           Z
 ---------------------------------------------------------------------
      1         35           0        2.657969   -0.219239    0.000000
      2          6           0        0.800785    0.158792   -0.000001
      3          6           0        0.375752    1.489412    0.000000
      4          6           0       -0.987563    1.784087    0.000000
      5          6           0       -1.907351    0.736706    0.000000
      6          6           0       -1.463360   -0.598840   -0.000001
      7          6           0       -0.108760   -0.901878   -0.000001
      8          6           0       -2.661849   -1.510705    0.000003
      9          6           0       -3.815073   -0.542328   -0.000004
     10          6           0       -3.375071    0.728796    0.000002
     11          1           0        1.113771    2.292891    0.000001
     12          1           0       -1.320172    2.824375    0.000001
     13          1           0        0.245580   -1.934291    0.000000
     14          1           0       -2.678408   -2.171260    0.884188
     15          1           0       -2.678408   -2.171269   -0.884176
     16          1           0       -4.859451   -0.856040   -0.000007
     17          1           0       -3.996898    1.624698    0.000003
 ---------------------------------------------------------------------
 Rotational constants (GHZ):           3.1948497           0.4609774           0.4038655
 Standard basis: def2SVP (5D, 7F)
 There are   205 symmetry adapted cartesian basis functions of A   symmetry.
 There are   193 symmetry adapted basis functions of A   symmetry.
   193 basis functions,   354 primitive gaussians,   205 cartesian basis functions
    48 alpha electrons       47 beta electrons
       nuclear repulsion energy       680.7950038719 Hartrees.
 NAtoms=   17 NActive=   17 NUniq=   17 SFac= 1.00D+00 NAtFMM=   60 NAOKFM=F Big=F
 Integral buffers will be    131072 words long.
 Raffenetti 2 integral format.
 Two-electron integral symmetry is turned on.
 Nuclear repulsion after empirical dispersion term =      680.7857814004 Hartrees.
 One-electron integrals computed using PRISM.
   1 Symmetry operations used in ECPInt.
 ECPInt:  NShTT=    3828 NPrTT=   15229 LenC2=    3696 LenP2D=   11214.
 LDataN:  DoStor=T MaxTD1= 4 Len=   56
 NBasis=   193 RedAO= T EigKep=  2.64D-04  NBF=   193
 NBsUse=   193 1.00D-06 EigRej= -1.00D+00 NBFU=   193
 ExpMin= 1.22D-01 ExpMax= 1.13D+05 ExpMxC= 1.70D+04 IAcc=3 IRadAn=         5 AccDes= 0.00D+00
 Harris functional with IExCor= 4639 and IRadAn=       5 diagonalized for initial guess.
 HarFok:  IExCor= 4639 AccDes= 0.00D+00 IRadAn=         5 IDoV= 1 UseB2=F ITyADJ=14
 ICtDFT=  3500011 ScaDFX=  1.000000  1.000000  1.000000  1.000000
 FoFCou: FMM=F IPFlag=           0 FMFlag=      100000 FMFlg1=           0
         NFxFlg=           0 DoJE=T BraDBF=F KetDBF=T FulRan=T
         wScrn=  0.000000 ICntrl=       500 IOpCl=  0 I1Cent=   200000004 NGrid=           0
         NMat0=    1 NMatS0=      1 NMatT0=    0 NMatD0=    1 NMtDS0=    0 NMtDT0=    0
 Petite list used in FoFCou.
 Initial guess <Sx>= 0.0000 <Sy>= 0.0000 <Sz>= 0.5000 <S**2>= 0.7500 S= 0.5000
 Requested convergence on RMS density matrix=1.00D-08 within 128 cycles.
 Requested convergence on MAX density matrix=1.00D-06.
 Requested convergence on             energy=1.00D-06.
 No special actions if energy rises.
 Integral accuracy reduced to 1.0D-05 until final iterations.
 Initial convergence to 1.0D-05 achieved.  Increase integral accuracy.
 SCF Done:  E(UwB97XD) =  -2920.40105962     A.U. after   25 cycles
            NFock= 25  Conv=0.30D-08     -V/T= 2.0022
 <Sx>= 0.0000 <Sy>= 0.0000 <Sz>= 0.5000 <S**2>= 0.7776 S= 0.5137
 <L.S>= 0.000000000000E+00
 Annihilation of the first spin contaminant:
 S**2 before annihilation     0.7776,   after     0.7503

 **********************************************************************

            Population analysis using the SCF Density.

 **********************************************************************

 Orbital symmetries:
 Alpha Orbitals:
       Occupied  (A) (A) (A) (A) (A) (A) (A) (A) (A) (A) (A) (A)
                 (A) (A) (A) (A) (A) (A) (A) (A) (A) (A) (A) (A)
                 (A) (A) (A) (A) (A) (A) (A) (A) (A) (A) (A) (A)
                 (A) (A) (A) (A) (A) (A) (A) (A) (A) (A) (A) (A)
       Virtual   (A) (A) (A) (A) (A) (A) (A) (A) (A) (A) (A) (A)
                 (A) (A) (A) (A) (A) (A) (A) (A) (A) (A) (A) (A)
                 (A) (A) (A) (A) (A) (A) (A) (A) (A) (A) (A) (A)
                 (A) (A) (A) (A) (A) (A) (A) (A) (A) (A) (A) (A)
                 (A) (A) (A) (A) (A) (A) (A) (A) (A) (A) (A) (A)
                 (A) (A) (A) (A) (A) (A) (A) (A) (A) (A) (A) (A)
                 (A) (A) (A) (A) (A) (A) (A) (A) (A) (A) (A) (A)
                 (A) (A) (A) (A) (A) (A) (A) (A) (A) (A) (A) (A)
                 (A) (A) (A) (A) (A) (A) (A) (A) (A) (A) (A) (A)
                 (A) (A) (A) (A) (A) (A) (A) (A) (A) (A) (A) (A)
                 (A) (A) (A) (A) (A) (A) (A) (A) (A) (A) (A) (A)
                 (A) (A) (A) (A) (A) (A) (A) (A) (A) (A) (A) (A)
                 (A)
 Beta  Orbitals:
       Occupied  (A) (A) (A) (A) (A) (A) (A) (A) (A) (A) (A) (A)
                 (A) (A) (A) (A) (A) (A) (A) (A) (A) (A) (A) (A)
                 (A) (A) (A) (A) (A) (A) (A) (A) (A) (A) (A) (A)
                 (A) (A) (A) (A) (A) (A) (A) (A) (A) (A) (A)
       Virtual   (A) (A) (A) (A) (A) (A) (A) (A) (A) (A) (A) (A)
                 (A) (A) (A) (A) (A) (A) (A) (A) (A) (A) (A) (A)
                 (A) (A) (A) (A) (A) (A) (A) (A) (A) (A) (A) (A)
                 (A) (A) (A) (A) (A) (A) (A) (A) (A) (A) (A) (A)
                 (A) (A) (A) (A) (A) (A) (A) (A) (A) (A) (A) (A)
                 (A) (A) (A) (A) (A) (A) (A) (A) (A) (A) (A) (A)
                 (A) (A) (A) (A) (A) (A) (A) (A) (A) (A) (A) (A)
                 (A) (A) (A) (A) (A) (A) (A) (A) (A) (A) (A) (A)
                 (A) (A) (A) (A) (A) (A) (A) (A) (A) (A) (A) (A)
                 (A) (A) (A) (A) (A) (A) (A) (A) (A) (A) (A) (A)
                 (A) (A) (A) (A) (A) (A) (A) (A) (A) (A) (A) (A)
                 (A) (A) (A) (A) (A) (A) (A) (A) (A) (A) (A) (A)
                 (A) (A)
 The electronic state is 2-A.
 Alpha  occ. eigenvalues -- -483.23688 -62.81854 -56.62627 -56.62345 -56.62209
 Alpha  occ. eigenvalues --  -10.56051 -10.52123 -10.51874 -10.51142 -10.50330
 Alpha  occ. eigenvalues --  -10.50231 -10.49952 -10.49917 -10.48899  -8.98793
 Alpha  occ. eigenvalues --   -6.81332  -6.80209  -6.79827  -2.91729  -2.91460
 Alpha  occ. eigenvalues --   -2.91182  -2.90260  -2.90242  -1.18778  -1.13564
 Alpha  occ. eigenvalues --   -1.07217  -1.04280  -0.99655  -0.97348  -0.89854
 Alpha  occ. eigenvalues --   -0.85322  -0.83989  -0.79214  -0.74867  -0.72371
 Alpha  occ. eigenvalues --   -0.71948  -0.70929  -0.69695  -0.66309  -0.66147
 Alpha  occ. eigenvalues --   -0.63929  -0.62428  -0.61145  -0.60223  -0.55049
 Alpha  occ. eigenvalues --   -0.53585  -0.51989  -0.49425
 Alpha virt. eigenvalues --   -0.16795  -0.13303  -0.08923  -0.08116   0.01029
 Alpha virt. eigenvalues --    0.01974   0.02939   0.03655   0.05469   0.05930
 Alpha virt. eigenvalues --    0.08147   0.08185   0.09929   0.11721   0.13396
 Alpha virt. eigenvalues --    0.16805   0.18708   0.20683   0.22181   0.24738
 Alpha virt. eigenvalues --    0.25579   0.27393   0.29499   0.31037   0.33248
 Alpha virt. eigenvalues --    0.34297   0.35460   0.35772   0.37531   0.37972
 Alpha virt. eigenvalues --    0.38508   0.40179   0.41343   0.41940   0.42725
 Alpha virt. eigenvalues --    0.43780   0.44130   0.45031   0.47230   0.50594
 Alpha virt. eigenvalues --    0.52769   0.53345   0.53965   0.54349   0.55039
 Alpha virt. eigenvalues --    0.56267   0.56735   0.57710   0.58187   0.59482
 Alpha virt. eigenvalues --    0.60400   0.60996   0.62243   0.63657   0.64097
 Alpha virt. eigenvalues --    0.65710   0.67347   0.67353   0.68340   0.71283
 Alpha virt. eigenvalues --    0.75629   0.78446   0.79186   0.84947   0.90083
 Alpha virt. eigenvalues --    0.94538   0.95547   1.04639   1.05108   1.07273
 Alpha virt. eigenvalues --    1.07285   1.09259   1.12241   1.14566   1.16804
 Alpha virt. eigenvalues --    1.18398   1.18593   1.19313   1.25701   1.37088
 Alpha virt. eigenvalues --    1.37356   1.44348   1.44885   1.49707   1.55245
 Alpha virt. eigenvalues --    1.58196   1.58825   1.59892   1.63221   1.65010
 Alpha virt. eigenvalues --    1.65593   1.67002   1.68288   1.70368   1.72927
 Alpha virt. eigenvalues --    1.73066   1.75014   1.75923   1.79256   1.81782
 Alpha virt. eigenvalues --    1.81870   1.85258   1.87476   1.92642   1.94589
 Alpha virt. eigenvalues --    1.96822   1.99281   2.02668   2.03060   2.04485
 Alpha virt. eigenvalues --    2.08107   2.09162   2.11715   2.16519   2.18274
 Alpha virt. eigenvalues --    2.19465   2.23645   2.26128   2.30732   2.31050
 Alpha virt. eigenvalues --    2.34784   2.36829   2.47809   2.49886   2.50587
 Alpha virt. eigenvalues --    2.52462   2.54578   2.56799   2.62460   2.69404
 Alpha virt. eigenvalues --    2.72658   2.75923   2.78055   2.82449   2.87638
 Alpha virt. eigenvalues --    2.90382   2.98572   3.10357   3.25410   3.35213
 Alpha virt. eigenvalues --    3.38862   3.42889   3.44565   3.55708   3.75300
  Beta  occ. eigenvalues -- -483.23647 -62.81825 -56.62613 -56.62243 -56.62188
  Beta  occ. eigenvalues --  -10.55699 -10.51889 -10.51458 -10.51017 -10.50344
  Beta  occ. eigenvalues --  -10.50162 -10.49981 -10.49957 -10.48932  -8.98741
  Beta  occ. eigenvalues --   -6.81320  -6.80054  -6.79805  -2.91696  -2.91388
  Beta  occ. eigenvalues --   -2.91174  -2.90186  -2.90175  -1.18067  -1.12769
  Beta  occ. eigenvalues --   -1.06543  -1.03973  -0.98746  -0.96855  -0.89305
  Beta  occ. eigenvalues --   -0.84796  -0.83570  -0.79014  -0.74564  -0.71695
  Beta  occ. eigenvalues --   -0.71222  -0.70624  -0.69418  -0.66016  -0.64373
  Beta  occ. eigenvalues --   -0.63691  -0.62197  -0.60924  -0.57806  -0.53354
  Beta  occ. eigenvalues --   -0.51886  -0.51153
  Beta virt. eigenvalues --   -0.30053  -0.13733  -0.12014  -0.08331  -0.06148
  Beta virt. eigenvalues --    0.01089   0.02068   0.03097   0.04740   0.05493
  Beta virt. eigenvalues --    0.06163   0.08258   0.08620   0.10241   0.11916
  Beta virt. eigenvalues --    0.13757   0.17041   0.18971   0.20901   0.22330
  Beta virt. eigenvalues --    0.24889   0.25906   0.27562   0.29645   0.31264
  Beta virt. eigenvalues --    0.33445   0.34525   0.35940   0.36439   0.37698
  Beta virt. eigenvalues --    0.38883   0.39089   0.40370   0.41651   0.42899
  Beta virt. eigenvalues --    0.42970   0.44102   0.44626   0.45554   0.48148
  Beta virt. eigenvalues --    0.50909   0.53085   0.53516   0.54477   0.54876
  Beta virt. eigenvalues --    0.55382   0.56471   0.57128   0.57828   0.58322
  Beta virt. eigenvalues --    0.59652   0.60592   0.61210   0.62367   0.64149
  Beta virt. eigenvalues --    0.64268   0.65892   0.67553   0.68036   0.68606
  Beta virt. eigenvalues --    0.71720   0.75829   0.78697   0.79323   0.85046
  Beta virt. eigenvalues --    0.90410   0.94679   0.95804   1.04764   1.05325
  Beta virt. eigenvalues --    1.07519   1.07644   1.09945   1.12669   1.15292
  Beta virt. eigenvalues --    1.16968   1.18492   1.19361   1.19727   1.25835
  Beta virt. eigenvalues --    1.37407   1.37745   1.44927   1.45462   1.50030
  Beta virt. eigenvalues --    1.55384   1.58696   1.59063   1.60302   1.63453
  Beta virt. eigenvalues --    1.65543   1.65768   1.67533   1.68688   1.70731
  Beta virt. eigenvalues --    1.73328   1.73661   1.75398   1.76467   1.79386
  Beta virt. eigenvalues --    1.82255   1.82385   1.85563   1.87839   1.92980
  Beta virt. eigenvalues --    1.94862   1.97161   2.00228   2.03128   2.03610
  Beta virt. eigenvalues --    2.04842   2.08242   2.10192   2.12260   2.17041
  Beta virt. eigenvalues --    2.19141   2.19689   2.23925   2.26739   2.31382
  Beta virt. eigenvalues --    2.31447   2.35204   2.37641   2.48130   2.50391
  Beta virt. eigenvalues --    2.51325   2.52752   2.55334   2.57022   2.62685
  Beta virt. eigenvalues --    2.69634   2.73066   2.76225   2.78195   2.82702
  Beta virt. eigenvalues --    2.87726   2.90623   2.98678   3.10579   3.25710
  Beta virt. eigenvalues --    3.35355   3.38999   3.43016   3.44744   3.55725
  Beta virt. eigenvalues --    3.75353
          Condensed to atoms (all electrons):
               1          2          3          4          5          6
     1  Br  34.650845   0.292469  -0.061694   0.002343   0.000518   0.003074
     2  C    0.292469   5.320411   0.240379   0.073155  -0.145828   0.095525
     3  C   -0.061694   0.240379   4.968789   0.408093   0.073926  -0.102624
     4  C    0.002343   0.073155   0.408093   4.966883   0.262933  -0.011351
     5  C    0.000518  -0.145828   0.073926   0.262933   5.317902   0.280149
     6  C    0.003074   0.095525  -0.102624  -0.011351   0.280149   5.282835
     7  C   -0.065205   0.263992   0.025218  -0.070005   0.034717   0.385938
     8  C   -0.000058   0.011347  -0.000919   0.015728  -0.156947   0.349172
     9  C   -0.000000  -0.001566  -0.000303   0.007939   0.036862  -0.091192
    10  C    0.000017   0.002267   0.006975  -0.070358   0.324214  -0.053506
    11  H   -0.000651  -0.055329   0.439248  -0.038970   0.011323  -0.001414
    12  H   -0.000092   0.011749  -0.050499   0.451254  -0.056655   0.012016
    13  H   -0.000319  -0.053553   0.010129  -0.001472   0.012283  -0.038436
    14  H   -0.000000  -0.000176   0.000059  -0.000326   0.003296  -0.003151
    15  H   -0.000000  -0.000176   0.000059  -0.000326   0.003296  -0.003152
    16  H   -0.000000   0.000004   0.000006  -0.000202   0.008951   0.005020
    17  H   -0.000000   0.000047  -0.000144  -0.006541  -0.042375   0.008401
               7          8          9         10         11         12
     1  Br  -0.065205  -0.000058  -0.000000   0.000017  -0.000651  -0.000092
     2  C    0.263992   0.011347  -0.001566   0.002267  -0.055329   0.011749
     3  C    0.025218  -0.000919  -0.000303   0.006975   0.439248  -0.050499
     4  C   -0.070005   0.015728   0.007939  -0.070358  -0.038970   0.451254
     5  C    0.034717  -0.156947   0.036862   0.324214   0.011323  -0.056655
     6  C    0.385938   0.349172  -0.091192  -0.053506  -0.001414   0.012016
     7  C    4.979269  -0.058826   0.010416   0.007202   0.010232  -0.001839
     8  C   -0.058826   4.750437   0.333067  -0.019670   0.000007  -0.000335
     9  C    0.010416   0.333067   4.902540   0.439333   0.000010   0.000227
    10  C    0.007202  -0.019670   0.439333   4.906743  -0.000178  -0.010270
    11  H    0.010232   0.000007   0.000010  -0.000178   0.554930  -0.008764
    12  H   -0.001839  -0.000335   0.000227  -0.010270  -0.008764   0.569878
    13  H    0.439713  -0.012086   0.000598  -0.000566  -0.000111   0.000010
    14  H   -0.003930   0.362888  -0.008180  -0.000944  -0.000000   0.000004
    15  H   -0.003930   0.362889  -0.008180  -0.000944  -0.000000   0.000004
    16  H   -0.000222  -0.037276   0.431082  -0.041321  -0.000000  -0.000000
    17  H   -0.000320   0.009419  -0.053890   0.446346  -0.000001   0.001791
              13         14         15         16         17
     1  Br  -0.000319  -0.000000  -0.000000  -0.000000  -0.000000
     2  C   -0.053553  -0.000176  -0.000176   0.000004   0.000047
     3  C    0.010129   0.000059   0.000059   0.000006  -0.000144
     4  C   -0.001472  -0.000326  -0.000326  -0.000202  -0.006541
     5  C    0.012283   0.003296   0.003296   0.008951  -0.042375
     6  C   -0.038436  -0.003151  -0.003152   0.005020   0.008401
     7  C    0.439713  -0.003930  -0.003930  -0.000222  -0.000320
     8  C   -0.012086   0.362888   0.362889  -0.037276   0.009419
     9  C    0.000598  -0.008180  -0.008180   0.431082  -0.053890
    10  C   -0.000566  -0.000944  -0.000944  -0.041321   0.446346
    11  H   -0.000111  -0.000000  -0.000000  -0.000000  -0.000001
    12  H    0.000010   0.000004   0.000004  -0.000000   0.001791
    13  H    0.570897   0.001199   0.001199   0.000002   0.000001
    14  H    0.001199   0.526752  -0.006698  -0.000824  -0.000194
    15  H    0.001199  -0.006698   0.526753  -0.000824  -0.000194
    16  H    0.000002  -0.000824  -0.000824   0.528862  -0.005155
    17  H    0.000001  -0.000194  -0.000194  -0.005155   0.554183
          Atomic-Atomic Spin Densities.
               1          2          3          4          5          6
     1  Br   0.178639  -0.048273  -0.002508   0.000387   0.000063   0.000459
     2  C   -0.048273   0.299094   0.028542  -0.006698  -0.008132  -0.008875
     3  C   -0.002508   0.028542  -0.007214  -0.026163  -0.004000  -0.003231
     4  C    0.000387  -0.006698  -0.026163   0.055797   0.035872   0.000439
     5  C    0.000063  -0.008132  -0.004000   0.035872   0.218947   0.039940
     6  C    0.000459  -0.008875  -0.003231   0.000439   0.039940   0.104919
     7  C   -0.001246   0.026295   0.000454  -0.001992  -0.002756  -0.021825
     8  C    0.000002  -0.000047  -0.000066  -0.000141  -0.001301   0.004923
     9  C   -0.000000   0.000063   0.000051  -0.000712  -0.019123  -0.011447
    10  C   -0.000001   0.000192   0.000454  -0.002020  -0.059260  -0.003743
    11  H   -0.000086  -0.000371   0.000754   0.000005   0.000095  -0.000052
    12  H    0.000002   0.000015   0.000145   0.001079  -0.000444  -0.000008
    13  H   -0.000130  -0.000205   0.000040  -0.000034   0.000096   0.000128
    14  H    0.000001  -0.000022  -0.000002   0.000010   0.000362   0.000690
    15  H    0.000001  -0.000022  -0.000002   0.000010   0.000362   0.000690
    16  H    0.000000  -0.000000  -0.000000   0.000009  -0.000161  -0.000030
    17  H   -0.000000  -0.000000   0.000008   0.000160  -0.000059  -0.000074
               7          8          9         10         11         12
     1  Br  -0.001246   0.000002  -0.000000  -0.000001  -0.000086   0.000002
     2  C    0.026295  -0.000047   0.000063   0.000192  -0.000371   0.000015
     3  C    0.000454  -0.000066   0.000051   0.000454   0.000754   0.000145
     4  C   -0.001992  -0.000141  -0.000712  -0.002020   0.000005   0.001079
     5  C   -0.002756  -0.001301  -0.019123  -0.059260   0.000095  -0.000444
     6  C   -0.021825   0.004923  -0.011447  -0.003743  -0.000052  -0.000008
     7  C   -0.062503   0.001656   0.000395   0.000500   0.000018  -0.000042
     8  C    0.001656  -0.023986  -0.015829  -0.005420  -0.000001   0.000004
     9  C    0.000395  -0.015829   0.374133   0.053140   0.000000  -0.000004
    10  C    0.000500  -0.005420   0.053140  -0.008366   0.000003  -0.000005
    11  H    0.000018  -0.000001   0.000000   0.000003  -0.001013   0.000086
    12  H   -0.000042   0.000004  -0.000004  -0.000005   0.000086  -0.004169
    13  H    0.000284   0.000080   0.000006  -0.000004   0.000001  -0.000001
    14  H   -0.000221   0.002416  -0.003023   0.000027   0.000000  -0.000000
    15  H   -0.000221   0.002416  -0.003023   0.000027   0.000000  -0.000000
    16  H    0.000015   0.000009   0.001876  -0.000360   0.000000  -0.000000
    17  H    0.000002  -0.000004  -0.000306   0.000911   0.000000  -0.000022
              13         14         15         16         17
     1  Br  -0.000130   0.000001   0.000001   0.000000  -0.000000
     2  C   -0.000205  -0.000022  -0.000022  -0.000000  -0.000000
     3  C    0.000040  -0.000002  -0.000002  -0.000000   0.000008
     4  C   -0.000034   0.000010   0.000010   0.000009   0.000160
     5  C    0.000096   0.000362   0.000362  -0.000161  -0.000059
     6  C    0.000128   0.000690   0.000690  -0.000030  -0.000074
     7  C    0.000284  -0.000221  -0.000221   0.000015   0.000002
     8  C    0.000080   0.002416   0.002416   0.000009  -0.000004
     9  C    0.000006  -0.003023  -0.003023   0.001876  -0.000306
    10  C   -0.000004   0.000027   0.000027  -0.000360   0.000911
    11  H    0.000001   0.000000   0.000000   0.000000   0.000000
    12  H   -0.000001  -0.000000  -0.000000  -0.000000  -0.000022
    13  H    0.001200  -0.000008  -0.000008  -0.000000  -0.000000
    14  H   -0.000008   0.004112  -0.000788   0.000053  -0.000001
    15  H   -0.000008  -0.000788   0.004112   0.000053  -0.000001
    16  H   -0.000000   0.000053   0.000053  -0.017153   0.000092
    17  H   -0.000000  -0.000001  -0.000001   0.000092  -0.001171
 Mulliken charges and spin densities:
               1          2
     1  Br   0.178755   0.127308
     2  C   -0.054719   0.281555
     3  C    0.043299  -0.012739
     4  C    0.011222   0.056009
     5  C    0.031436   0.200502
     6  C   -0.117304   0.102902
     7  C    0.047580  -0.061186
     8  C    0.091163  -0.035291
     9  C    0.001238   0.376196
    10  C    0.064659  -0.023926
    11  H    0.089668  -0.000561
    12  H    0.081521  -0.003364
    13  H    0.070511   0.001445
    14  H    0.130225   0.003607
    15  H    0.130224   0.003607
    16  H    0.111896  -0.015597
    17  H    0.088626  -0.000467
 Sum of Mulliken charges =   1.00000   1.00000
 Mulliken charges and spin densities with hydrogens summed into heavy atoms:
               1          2
     1  Br   0.178755   0.127308
     2  C   -0.054719   0.281555
     3  C    0.132968  -0.013299
     4  C    0.092743   0.052644
     5  C    0.031436   0.200502
     6  C   -0.117304   0.102902
     7  C    0.118091  -0.059741
     8  C    0.351612  -0.028078
     9  C    0.113134   0.360600
    10  C    0.153285  -0.024393
 Electronic spatial extent (au):  <R**2>=           2402.7276
 Charge=              1.0000 electrons
 Dipole moment (field-independent basis, Debye):
    X=             -6.7539    Y=              0.1151    Z=              0.0000  Tot=              6.7548
 Quadrupole moment (field-independent basis, Debye-Ang):
   XX=            -25.8343   YY=            -51.7271   ZZ=            -69.3501
   XY=              2.5133   XZ=              0.0000   YZ=             -0.0000
 Traceless Quadrupole moment (field-independent basis, Debye-Ang):
   XX=             23.1362   YY=             -2.7566   ZZ=            -20.3796
   XY=              2.5133   XZ=              0.0000   YZ=             -0.0000
 Octapole moment (field-independent basis, Debye-Ang**2):
  XXX=            -23.7825  YYY=              1.8162  ZZZ=              0.0000  XYY=              5.2632
  XXY=            -14.5876  XXZ=             -0.0000  XZZ=             28.9724  YZZ=             -6.5236
  YYZ=              0.0000  XYZ=             -0.0000
 Hexadecapole moment (field-independent basis, Debye-Ang**3):
 XXXX=          -1535.4911 YYYY=           -403.7159 ZZZZ=            -79.4476 XXXY=             11.1573
 XXXZ=              0.0004 YYYX=            -13.8119 YYYZ=              0.0000 ZZZX=             -0.0001
 ZZZY=             -0.0001 XXYY=           -373.8529 XXZZ=           -393.0765 YYZZ=            -95.3463
 XXYZ=              0.0001 YYXZ=             -0.0001 ZZXY=              2.5799
 N-N= 6.807857814004D+02 E-N=-8.298519133867D+03  KE= 2.913870104195D+03
 There are a total of      387842 grid points.
 ElSum from          density=       95.0000085595
 ElSum from atomic densities=       96.0000595300
 Hirshfeld populations at iteration   1 (CA, CB, DipXYZ):
               1          2          3          4          5
     1  Br  17.497429  17.355600   0.128734  -0.022541   0.000000
     2  C    3.057684   2.861769   0.048428  -0.004974  -0.000000
     3  C    3.012351   2.984627   0.036334   0.045683   0.000000
     4  C    3.022092   2.957705  -0.047261   0.061913  -0.000000
     5  C    3.046577   2.895145  -0.011613   0.043169  -0.000000
     6  C    3.018100   2.933399  -0.038784  -0.046784  -0.000000
     7  C    3.003615   3.006858   0.014825  -0.060755  -0.000000
     8  C    3.018415   3.003514  -0.009885  -0.032495   0.000001
     9  C    3.087022   2.827124  -0.081349  -0.088298  -0.000002
    10  C    3.009208   2.969472  -0.035463   0.093655   0.000001
    11  H    0.461554   0.461484   0.103493   0.147179   0.000000
    12  H    0.460595   0.458603  -0.050989   0.172002   0.000000
    13  H    0.462090   0.463552   0.038581  -0.172924   0.000000
    14  H    0.462782   0.458641  -0.005655  -0.113782   0.131865
    15  H    0.462782   0.458642  -0.005655  -0.113783  -0.131864
    16  H    0.459772   0.446722  -0.172194  -0.053987  -0.000000
    17  H    0.457936   0.457148  -0.106046   0.146472   0.000000
       Tot  48.000003  47.000005  -0.194499  -0.000251   0.000001

 Dip from Atomic Chgs             -2.462669   0.045541   0.000001
         Total Dipole             -2.657169   0.045289   0.000002

 Hirshfeld charges, spin densities, dipoles, and CM5 charges using IRadAn=      5:
              Q-H        S-H        Dx         Dy         Dz        Q-CM5   
     1  Br   0.146971   0.141829   0.128734  -0.022541   0.000000   0.161918
     2  C    0.080547   0.195915   0.048428  -0.004974  -0.000000   0.059463
     3  C    0.003021   0.027724   0.036334   0.045683   0.000000  -0.049538
     4  C    0.020203   0.064387  -0.047261   0.061913  -0.000000  -0.031225
     5  C    0.058278   0.151432  -0.011613   0.043169  -0.000000   0.051287
     6  C    0.048501   0.084701  -0.038784  -0.046784  -0.000000   0.038090
     7  C   -0.010473  -0.003243   0.014825  -0.060755  -0.000000  -0.060457
     8  C   -0.021929   0.014901  -0.009885  -0.032495   0.000001  -0.117370
     9  C    0.085854   0.259898  -0.081349  -0.088298  -0.000002   0.028293
    10  C    0.021320   0.039736  -0.035463   0.093655   0.000001  -0.030840
    11  H    0.076963   0.000070   0.103493   0.147179   0.000000   0.132765
    12  H    0.080802   0.001992  -0.050989   0.172002   0.000000   0.135917
    13  H    0.074358  -0.001462   0.038581  -0.172924   0.000000   0.130436
    14  H    0.078577   0.004141  -0.005655  -0.113782   0.131865   0.132365
    15  H    0.078576   0.004141  -0.005655  -0.113783  -0.131864   0.132364
    16  H    0.093507   0.013050  -0.172194  -0.053987  -0.000000   0.147298
    17  H    0.084915   0.000788  -0.106046   0.146472   0.000000   0.139225
       Tot   0.999991   0.999998  -0.194499  -0.000251   0.000001   0.999991
 Hirshfeld charges and spin densities with hydrogens summed into heavy atoms:
              Q-H        S-H       Q-CM5   
     1  Br   0.146971   0.141829   0.161918
     2  C    0.080547   0.195915   0.059463
     3  C    0.079984   0.027794   0.083227
     4  C    0.101005   0.066379   0.104692
     5  C    0.058278   0.151432   0.051287
     6  C    0.048501   0.084701   0.038090
     7  C    0.063885  -0.004705   0.069979
     8  C    0.135224   0.023182   0.147359
     9  C    0.179361   0.272948   0.175591
    10  C    0.106235   0.040524   0.108385
 
 EQQ= 0.817019054557E-01 EQD=-0.630431845139E-01 EDD= 0.108379285684E-01
 EQQ+QD+DD= 0.294966495102E-01
 
                          Isotropic Fermi Contact Couplings
        Atom                 a.u.       MegaHertz       Gauss      10(-4) cm-1
     1  Br(79)             0.04260      47.86804      17.08051      15.96706
     2  C(13)              0.05143      57.81818      20.63096      19.28607
     3  C(13)             -0.01092     -12.28101      -4.38217      -4.09650
     4  C(13)              0.00242       2.71529       0.96888       0.90572
     5  C(13)              0.02562      28.80382      10.27792       9.60792
     6  C(13)              0.01223      13.75272       4.90731       4.58741
     7  C(13)             -0.01991     -22.38398      -7.98716      -7.46649
     8  C(13)             -0.01549     -17.41370      -6.21364      -5.80859
     9  C(13)              0.06166      69.31525      24.73341      23.12108
    10  C(13)             -0.01707     -19.19365      -6.84877      -6.40231
    11  H(1)              -0.00027      -1.22097      -0.43567      -0.40727
    12  H(1)              -0.00120      -5.38526      -1.92160      -1.79633
    13  H(1)               0.00040       1.77938       0.63493       0.59354
    14  H(1)               0.00179       8.01223       2.85896       2.67259
    15  H(1)               0.00179       8.01216       2.85894       2.67257
    16  H(1)              -0.00541     -24.16354      -8.62215      -8.06009
    17  H(1)              -0.00025      -1.13088      -0.40353      -0.37722
 --------------------------------------------------------
       Center         ----  Spin Dipole Couplings  ----
                      3XX-RR        3YY-RR        3ZZ-RR
 --------------------------------------------------------
     1   Atom       -1.003537     -0.817230      1.820767
     2   Atom       -0.160199     -0.168748      0.328947
     3   Atom       -0.008775     -0.003729      0.012504
     4   Atom       -0.042591     -0.035564      0.078155
     5   Atom       -0.117038     -0.116648      0.233686
     6   Atom       -0.062439     -0.061116      0.123555
     7   Atom        0.021045      0.019434     -0.040479
     8   Atom       -0.003172      0.003293     -0.000122
     9   Atom       -0.199081     -0.201534      0.400615
    10   Atom       -0.013181     -0.000789      0.013971
    11   Atom       -0.002662      0.007067     -0.004405
    12   Atom       -0.007275      0.011234     -0.003959
    13   Atom        0.000583      0.004009     -0.004592
    14   Atom       -0.000626      0.005202     -0.004575
    15   Atom       -0.000626      0.005202     -0.004575
    16   Atom        0.024148     -0.020042     -0.004107
    17   Atom       -0.003363      0.008782     -0.005420
 --------------------------------------------------------
                        XY            XZ            YZ
 --------------------------------------------------------
     1   Atom        0.040641     -0.000003     -0.000002
     2   Atom       -0.002272     -0.000000     -0.000001
     3   Atom       -0.001532     -0.000000     -0.000000
     4   Atom        0.003384     -0.000000     -0.000000
     5   Atom        0.004382      0.000001     -0.000000
     6   Atom        0.001647      0.000001      0.000001
     7   Atom        0.003253      0.000000      0.000000
     8   Atom       -0.000055     -0.000000     -0.000000
     9   Atom        0.001971     -0.000004     -0.000001
    10   Atom        0.005771      0.000000     -0.000000
    11   Atom        0.002984      0.000000      0.000000
    12   Atom       -0.000412      0.000000     -0.000000
    13   Atom        0.002792      0.000000     -0.000000
    14   Atom       -0.001275      0.000572     -0.003434
    15   Atom       -0.001275     -0.000572      0.003434
    16   Atom        0.017940      0.000000      0.000000
    17   Atom       -0.002549     -0.000000      0.000000
 --------------------------------------------------------


 ---------------------------------------------------------------------------------
              Anisotropic Spin Dipole Couplings in Principal Axis System
 ---------------------------------------------------------------------------------

       Atom             a.u.   MegaHertz   Gauss  10(-4) cm-1        Axes

              Baa    -1.0120  -135.749   -48.439   -45.281  0.9789 -0.2042  0.0000
     1 Br(79) Bbb    -0.8088  -108.484   -38.710   -36.186  0.2042  0.9789  0.0000
              Bcc     1.8208   244.233    87.148    81.467 -0.0000 -0.0000  1.0000
 
              Baa    -0.1693   -22.720    -8.107    -7.579  0.2418  0.9703  0.0000
     2 C(13)  Bbb    -0.1596   -21.421    -7.644    -7.145  0.9703 -0.2418  0.0000
              Bcc     0.3289    44.142    15.751    14.724 -0.0000 -0.0000  1.0000
 
              Baa    -0.0092    -1.235    -0.441    -0.412  0.9630  0.2695  0.0000
     3 C(13)  Bbb    -0.0033    -0.443    -0.158    -0.148 -0.2695  0.9630 -0.0000
              Bcc     0.0125     1.678     0.599     0.560 -0.0000 -0.0000  1.0000
 
              Baa    -0.0440    -5.898    -2.105    -1.968  0.9274 -0.3740  0.0000
     4 C(13)  Bbb    -0.0342    -4.589    -1.638    -1.531  0.3740  0.9274  0.0000
              Bcc     0.0782    10.488     3.742     3.498 -0.0000 -0.0000  1.0000
 
              Baa    -0.1212   -16.268    -5.805    -5.426  0.7227 -0.6912 -0.0000
     5 C(13)  Bbb    -0.1125   -15.091    -5.385    -5.034  0.6912  0.7227 -0.0000
              Bcc     0.2337    31.358    11.189    10.460  0.0000 -0.0000  1.0000
 
              Baa    -0.0636    -8.528    -3.043    -2.845  0.8284 -0.5601 -0.0000
     6 C(13)  Bbb    -0.0600    -8.052    -2.873    -2.686  0.5601  0.8284 -0.0000
              Bcc     0.1236    16.580     5.916     5.530  0.0000  0.0000  1.0000
 
              Baa    -0.0405    -5.432    -1.938    -1.812 -0.0000 -0.0000  1.0000
     7 C(13)  Bbb     0.0169     2.266     0.809     0.756 -0.6163  0.7875 -0.0000
              Bcc     0.0236     3.166     1.130     1.056  0.7875  0.6163  0.0000
 
              Baa    -0.0032    -0.426    -0.152    -0.142  1.0000  0.0085  0.0000
     8 C(13)  Bbb    -0.0001    -0.016    -0.006    -0.005 -0.0000  0.0000  1.0000
              Bcc     0.0033     0.442     0.158     0.147 -0.0085  1.0000 -0.0000
 
              Baa    -0.2026   -27.191    -9.702    -9.070 -0.4856  0.8742 -0.0000
     9 C(13)  Bbb    -0.1980   -26.568    -9.480    -8.862  0.8742  0.4856  0.0000
              Bcc     0.4006    53.759    19.182    17.932 -0.0000 -0.0000  1.0000
 
              Baa    -0.0155    -2.074    -0.740    -0.692  0.9305 -0.3662 -0.0000
    10 C(13)  Bbb     0.0015     0.199     0.071     0.066  0.3662  0.9305  0.0000
              Bcc     0.0140     1.875     0.669     0.625  0.0000 -0.0000  1.0000
 
              Baa    -0.0044    -2.351    -0.839    -0.784  0.0000 -0.0000  1.0000
    11 H(1)   Bbb    -0.0035    -1.869    -0.667    -0.624  0.9624 -0.2716 -0.0000
              Bcc     0.0079     4.220     1.506     1.408  0.2716  0.9624  0.0000
 
              Baa    -0.0073    -3.887    -1.387    -1.296  0.9998  0.0223 -0.0000
    12 H(1)   Bbb    -0.0040    -2.112    -0.754    -0.705  0.0000  0.0000  1.0000
              Bcc     0.0112     5.999     2.140     2.001 -0.0223  0.9998 -0.0000
 
              Baa    -0.0046    -2.450    -0.874    -0.817 -0.0000  0.0000  1.0000
    13 H(1)   Bbb    -0.0010    -0.523    -0.186    -0.174  0.8726 -0.4884  0.0000
              Bcc     0.0056     2.973     1.061     0.992  0.4884  0.8726 -0.0000
 
              Baa    -0.0057    -3.023    -1.079    -1.008 -0.0329  0.2976  0.9541
    14 H(1)   Bbb    -0.0009    -0.474    -0.169    -0.158  0.9813  0.1909 -0.0257
              Bcc     0.0066     3.498     1.248     1.167 -0.1898  0.9354 -0.2984
 
              Baa    -0.0057    -3.023    -1.079    -1.008  0.0329 -0.2976  0.9541
    15 H(1)   Bbb    -0.0009    -0.474    -0.169    -0.158  0.9813  0.1909  0.0257
              Bcc     0.0066     3.498     1.248     1.167 -0.1898  0.9354  0.2983
 
              Baa    -0.0264   -14.090    -5.028    -4.700 -0.3344  0.9424 -0.0000
    16 H(1)   Bbb    -0.0041    -2.191    -0.782    -0.731 -0.0000 -0.0000  1.0000
              Bcc     0.0305    16.281     5.809     5.431  0.9424  0.3344  0.0000
 
              Baa    -0.0054    -2.892    -1.032    -0.965  0.0000 -0.0000  1.0000
    17 H(1)   Bbb    -0.0039    -2.068    -0.738    -0.690  0.9803  0.1974 -0.0000
              Bcc     0.0093     4.959     1.770     1.654 -0.1974  0.9803  0.0000
 

 ---------------------------------------------------------------------------------

 Running external command "gaunbo6 R"
         input file       "/home/rpaton/opt/dzvp/fukui/Gau-1744572.EIn"
         output file      "/home/rpaton/opt/dzvp/fukui/Gau-1744572.EOu"
         message file     "/home/rpaton/opt/dzvp/fukui/Gau-1744572.EMs"
         fchk file        "/home/rpaton/opt/dzvp/fukui/Gau-1744572.EFC"
         mat. el file     "/home/rpaton/opt/dzvp/fukui/Gau-1744572.EUF"

 Writing WrtUnf unformatted file "/home/rpaton/opt/dzvp/fukui/Gau-1744572.EUF"
 Gaussian matrix elements                                         Version   2 NLab=11 Len12L=8 Len4L=8
 Write SHELL TO ATOM MAP                   from file      0 offset           0 length                  87 to matrix element file.
 Write SHELL TYPES                         from file      0 offset           0 length                  87 to matrix element file.
 Write NUMBER OF PRIMITIVES PER SHELL      from file      0 offset           0 length                  87 to matrix element file.
 Write PRIMITIVE EXPONENTS                 from file      0 offset           0 length                 173 to matrix element file.
 Write CONTRACTION COEFFICIENTS            from file      0 offset           0 length                 173 to matrix element file.
 Write P(S=P) CONTRACTION COEFFICIENTS     from file      0 offset           0 length                 173 to matrix element file.
 Write COORDINATES OF EACH SHELL           from file      0 offset           0 length                 261 to matrix element file.
 Write BONDS PER ATOM                      from file      0 offset           0 length                  17 to matrix element file.
 Write BONDED ATOMS                        from file      0 offset           0 length                  36 to matrix element file.
 Write BOND TYPES                          from file      0 offset           0 length                  36 to matrix element file.
 Write ONIOM CHARGE/MULT                   from file      0 offset           0 length                  32 to matrix element file.
 Write ONIOM ATOM LAYERS                   from file      0 offset           0 length                  17 to matrix element file.
 Write ONIOM ATOM MODIFIERS                from file      0 offset           0 length                  17 to matrix element file.
 Write ONIOM ATOM TYPES                    from file      0 offset           0 length                  17 to matrix element file.
 Write ONIOM LINK ATOMS                    from file      0 offset           0 length                  17 to matrix element file.
 Write ONIOM LINK CHARGES                  from file      0 offset           0 length                  17 to matrix element file.
 Write ONIOM LINK DISTANCES                from file      0 offset           0 length                  68 to matrix element file.
 Write SYMINF INTS                         from file      0 offset           0 length                  26 to matrix element file.
 Write ROTTR TO SO                         from file      0 offset           0 length                  12 to matrix element file.
 Write GAUSSIAN SCALARS                    from file    501 offset           0 to matrix element file.
 Write OPTIMIZATION FLAGS                  from file      0 offset           0 length                  17 to matrix element file.
 Write INTEGER ISO                         from file      0 offset           0 length                  17 to matrix element file.
 Write INTEGER SPIN                        from file      0 offset           0 length                  17 to matrix element file.
 Write REAL ZEFFECTIVE                     from file      0 offset           0 length                  17 to matrix element file.
 Write REAL QUADRUPOLEMOMENT               from file      0 offset           0 length                  17 to matrix element file.
 Write REAL GFACTOR                        from file      0 offset           0 length                  17 to matrix element file.
 Write REAL ZNUCLEAR                       from file      0 offset           0 length                  17 to matrix element file.
 Write MULLIKEN CHARGES                    from file      0 offset           0 length                  17 to matrix element file.
 Write TYPE 6 CHARGES                      from file      0 offset           0 length                  17 to matrix element file.
 Write TYPE 7 CHARGES                      from file      0 offset           0 length                  17 to matrix element file.
 Write NUCLEAR GRADIENT                    from file  10584 offset           0 length                  51 to matrix element file.
 Array NUCLEAR FORCE CONSTANTS              on  file  10585 does not exist.
 Write ELECTRIC DIPOLE MOMENT              from file      0 offset           0 length                   3 to matrix element file.
 Write NON-ADIABATIC COUPLING              from file  10810 offset           0 length                  51 to matrix element file.
 Write FINITE EM FIELD                     from file  10521 offset           0 length                  35 to matrix element file.
 Write OVERLAP                             from file  10514 offset           0 length               18721 to matrix element file.
 Write CORE HAMILTONIAN ALPHA              from file  10515 offset           0 length               18721 to matrix element file.
 Write CORE HAMILTONIAN BETA               from file  10515 offset       18721 length               18721 to matrix element file.
 Write KINETIC ENERGY                      from file  10516 offset           0 length               18721 to matrix element file.
 Write ORTHOGONAL BASIS                    from file  10685 offset           0 length               37249 to matrix element file.
 Write DIPOLE INTEGRALS                    from file  10518 offset           0 length               56163 to matrix element file.
 Array DIP VEL INTEGRALS                    on  file  10572 does not exist.
 Array R X DEL INTEGRALS                    on  file  10572 does not exist.
 Write ALPHA ORBITAL ENERGIES              from file      0 offset           0 length                 193 to matrix element file.
 Write BETA ORBITAL ENERGIES               from file      0 offset           0 length                 193 to matrix element file.
 Write ALPHA MO COEFFICIENTS               from file  10524 offset           0 length               37249 to matrix element file.
 Write BETA MO COEFFICIENTS                from file  10526 offset           0 length               37249 to matrix element file.
 Write ALPHA DENSITY MATRIX                from file      0 offset           0 length               18721 to matrix element file.
 Write BETA DENSITY MATRIX                 from file      0 offset           0 length               18721 to matrix element file.
 Write ALPHA FOCK MATRIX                   from file  10536 offset           0 length               18721 to matrix element file.
 Write BETA FOCK MATRIX                    from file  10538 offset           0 length               18721 to matrix element file.
 Write ENERGY-WEIGHTED DENSITY             from file  10571 offset           0 length               18721 to matrix element file.
 Write ALPHA SCF DENSITY MATRIX            from file      0 offset           0 length               18721 to matrix element file.
 Write BETA SCF DENSITY MATRIX             from file      0 offset           0 length               18721 to matrix element file.
 No 2e integrals to process.
 Perform NBO analysis...

 *********************************** NBO 7.0 ***********************************
             N A T U R A L   A T O M I C   O R B I T A L   A N D
          N A T U R A L   B O N D   O R B I T A L   A N A L Y S I S
 **************************** Robert Paton (I101709) ***************************
  (c) Copyright 1996-2019 Board of Regents of the University of Wisconsin System
      on behalf of the Theoretical Chemistry Institute.  All rights reserved.

          Cite this program [NBO 7.0.5 (4-Jun-2019)] as:

          NBO 7.0.  E. D. Glendening, J. K. Badenhoop, A. E. Reed,
          J. E. Carpenter, J. A. Bohmann, C. M. Morales, P. Karafiloglou,
          C. R. Landis, and F. Weinhold, Theoretical Chemistry Institute,
          University of Wisconsin, Madison, WI (2018)

 Filename set to /home/rpaton/opt/dzvp/fukui/Gau-1744572

 Job title:  arbr37_wb97xd_popncreated by GaussianPrep


 NATURAL POPULATIONS:  Natural atomic orbital occupancies

  NAO Atom No lang   Type(AO)    Occupancy     Spin
 -----------------------------------------------------
   1   Br  1  s      Cor( 1s)     2.00000     0.00000
   2   Br  1  s      Cor( 2s)     2.00000     0.00000
   3   Br  1  s      Cor( 3s)     2.00000     0.00000
   4   Br  1  s      Val( 4s)     1.85852     0.00141
   5   Br  1  s      Ryd( 5s)     0.00284     0.00009
   6   Br  1  px     Cor( 2p)     2.00000     0.00000
   7   Br  1  px     Cor( 3p)     2.00000     0.00000
   8   Br  1  px     Val( 4p)     1.13767    -0.00973
   9   Br  1  px     Ryd( 5p)     0.00276     0.00007
  10   Br  1  py     Cor( 2p)     2.00000     0.00000
  11   Br  1  py     Cor( 3p)     2.00000     0.00000
  12   Br  1  py     Val( 4p)     1.93875    -0.00005
  13   Br  1  py     Ryd( 5p)     0.00130    -0.00001
  14   Br  1  pz     Cor( 2p)     2.00000     0.00000
  15   Br  1  pz     Cor( 3p)     2.00000     0.00000
  16   Br  1  pz     Val( 4p)     1.79113     0.14714
  17   Br  1  pz     Ryd( 5p)     0.00093     0.00033
  18   Br  1  dxy    Cor( 3d)     2.00000     0.00000
  19   Br  1  dxy    Ryd( 4d)     0.00191    -0.00006
  20   Br  1  dxy    Ryd( 5d)     0.00001     0.00000
  21   Br  1  dxz    Cor( 3d)     2.00000     0.00000
  22   Br  1  dxz    Ryd( 4d)     0.00295    -0.00055
  23   Br  1  dxz    Ryd( 5d)     0.00002     0.00000
  24   Br  1  dyz    Cor( 3d)     2.00000     0.00000
  25   Br  1  dyz    Ryd( 4d)     0.00016    -0.00003
  26   Br  1  dyz    Ryd( 5d)     0.00000     0.00000
  27   Br  1  dx2y2  Cor( 3d)     1.99999     0.00000
  28   Br  1  dx2y2  Ryd( 4d)     0.00538    -0.00009
  29   Br  1  dx2y2  Ryd( 5d)     0.00001     0.00000
  30   Br  1  dz2    Cor( 3d)     2.00000     0.00000
  31   Br  1  dz2    Ryd( 4d)     0.00203     0.00008
  32   Br  1  dz2    Ryd( 5d)     0.00000     0.00000

  33    C  2  s      Cor( 1s)     1.99996     0.00000
  34    C  2  s      Val( 2s)     0.95197     0.01102
  35    C  2  s      Ryd( 3s)     0.00102    -0.00002
  36    C  2  px     Val( 2p)     1.01446     0.00677
  37    C  2  px     Ryd( 3p)     0.00765    -0.00005
  38    C  2  py     Val( 2p)     1.09785     0.00455
  39    C  2  py     Ryd( 3p)     0.00820    -0.00009
  40    C  2  pz     Val( 2p)     0.92664     0.22455
  41    C  2  pz     Ryd( 3p)     0.00201    -0.00047
  42    C  2  dxy    Ryd( 3d)     0.00145     0.00001
  43    C  2  dxz    Ryd( 3d)     0.00117     0.00002
  44    C  2  dyz    Ryd( 3d)     0.00090     0.00005
  45    C  2  dx2y2  Ryd( 3d)     0.00189     0.00000
  46    C  2  dz2    Ryd( 3d)     0.00089    -0.00021

  47    C  3  s      Cor( 1s)     1.99995     0.00000
  48    C  3  s      Val( 2s)     0.95859    -0.00151
  49    C  3  s      Ryd( 3s)     0.00147     0.00002
  50    C  3  px     Val( 2p)     1.13810    -0.00111
  51    C  3  px     Ryd( 3p)     0.00685     0.00008
  52    C  3  py     Val( 2p)     1.14462    -0.00469
  53    C  3  py     Ryd( 3p)     0.00550     0.00004
  54    C  3  pz     Val( 2p)     0.94297     0.00737
  55    C  3  pz     Ryd( 3p)     0.00105     0.00006
  56    C  3  dxy    Ryd( 3d)     0.00080     0.00000
  57    C  3  dxz    Ryd( 3d)     0.00062    -0.00004
  58    C  3  dyz    Ryd( 3d)     0.00048     0.00022
  59    C  3  dx2y2  Ryd( 3d)     0.00104    -0.00001
  60    C  3  dz2    Ryd( 3d)     0.00066    -0.00003

  61    C  4  s      Cor( 1s)     1.99995     0.00000
  62    C  4  s      Val( 2s)     0.94961     0.00143
  63    C  4  s      Ryd( 3s)     0.00099     0.00001
  64    C  4  px     Val( 2p)     1.06779    -0.00046
  65    C  4  px     Ryd( 3p)     0.00422     0.00003
  66    C  4  py     Val( 2p)     1.19660    -0.00066
  67    C  4  py     Ryd( 3p)     0.00667     0.00004
  68    C  4  pz     Val( 2p)     0.91841     0.06144
  69    C  4  pz     Ryd( 3p)     0.00115     0.00001
  70    C  4  dxy    Ryd( 3d)     0.00103     0.00000
  71    C  4  dxz    Ryd( 3d)     0.00057     0.00003
  72    C  4  dyz    Ryd( 3d)     0.00051     0.00012
  73    C  4  dx2y2  Ryd( 3d)     0.00075    -0.00001
  74    C  4  dz2    Ryd( 3d)     0.00059    -0.00006

  75    C  5  s      Cor( 1s)     1.99996     0.00000
  76    C  5  s      Val( 2s)     0.88105     0.00619
  77    C  5  s      Ryd( 3s)     0.00221     0.00004
  78    C  5  px     Val( 2p)     1.09606     0.00364
  79    C  5  px     Ryd( 3p)     0.00430     0.00003
  80    C  5  py     Val( 2p)     1.09607     0.00059
  81    C  5  py     Ryd( 3p)     0.00483     0.00005
  82    C  5  pz     Val( 2p)     0.89141     0.17215
  83    C  5  pz     Ryd( 3p)     0.00074     0.00015
  84    C  5  dxy    Ryd( 3d)     0.00106     0.00001
  85    C  5  dxz    Ryd( 3d)     0.00086     0.00008
  86    C  5  dyz    Ryd( 3d)     0.00074     0.00010
  87    C  5  dx2y2  Ryd( 3d)     0.00103     0.00000
  88    C  5  dz2    Ryd( 3d)     0.00062    -0.00014

  89    C  6  s      Cor( 1s)     1.99996     0.00000
  90    C  6  s      Val( 2s)     0.86757     0.00332
  91    C  6  s      Ryd( 3s)     0.00205     0.00004
  92    C  6  px     Val( 2p)     1.09308     0.00270
  93    C  6  px     Ryd( 3p)     0.00459     0.00009
  94    C  6  py     Val( 2p)     1.06319    -0.00101
  95    C  6  py     Ryd( 3p)     0.00464     0.00004
  96    C  6  pz     Val( 2p)     0.91155     0.09321
  97    C  6  pz     Ryd( 3p)     0.00182     0.00007
  98    C  6  dxy    Ryd( 3d)     0.00090     0.00000
  99    C  6  dxz    Ryd( 3d)     0.00079    -0.00010
 100    C  6  dyz    Ryd( 3d)     0.00064     0.00014
 101    C  6  dx2y2  Ryd( 3d)     0.00113    -0.00001
 102    C  6  dz2    Ryd( 3d)     0.00059    -0.00008

 103    C  7  s      Cor( 1s)     1.99995     0.00000
 104    C  7  s      Val( 2s)     0.94202    -0.00342
 105    C  7  s      Ryd( 3s)     0.00166     0.00001
 106    C  7  px     Val( 2p)     1.08108    -0.00457
 107    C  7  px     Ryd( 3p)     0.00515     0.00006
 108    C  7  py     Val( 2p)     1.21196    -0.00372
 109    C  7  py     Ryd( 3p)     0.00763     0.00005
 110    C  7  pz     Val( 2p)     0.96264    -0.03220
 111    C  7  pz     Ryd( 3p)     0.00099     0.00006
 112    C  7  dxy    Ryd( 3d)     0.00101    -0.00001
 113    C  7  dxz    Ryd( 3d)     0.00047     0.00010
 114    C  7  dyz    Ryd( 3d)     0.00059     0.00009
 115    C  7  dx2y2  Ryd( 3d)     0.00077    -0.00001
 116    C  7  dz2    Ryd( 3d)     0.00067     0.00000

 117    C  8  s      Cor( 1s)     1.99994     0.00000
 118    C  8  s      Val( 2s)     1.03505    -0.00251
 119    C  8  s      Ryd( 3s)     0.00084     0.00001
 120    C  8  px     Val( 2p)     1.02293    -0.00810
 121    C  8  px     Ryd( 3p)     0.00316     0.00005
 122    C  8  py     Val( 2p)     1.16860    -0.00419
 123    C  8  py     Ryd( 3p)     0.00323     0.00003
 124    C  8  pz     Val( 2p)     1.26740    -0.00256
 125    C  8  pz     Ryd( 3p)     0.00176     0.00018
 126    C  8  dxy    Ryd( 3d)     0.00099    -0.00003
 127    C  8  dxz    Ryd( 3d)     0.00038     0.00016
 128    C  8  dyz    Ryd( 3d)     0.00079     0.00004
 129    C  8  dx2y2  Ryd( 3d)     0.00043     0.00000
 130    C  8  dz2    Ryd( 3d)     0.00078    -0.00001

 131    C  9  s      Cor( 1s)     1.99996     0.00000
 132    C  9  s      Val( 2s)     0.99466     0.01434
 133    C  9  s      Ryd( 3s)     0.00085     0.00001
 134    C  9  px     Val( 2p)     1.17286     0.00785
 135    C  9  px     Ryd( 3p)     0.00604     0.00007
 136    C  9  py     Val( 2p)     1.04742     0.00611
 137    C  9  py     Ryd( 3p)     0.00322     0.00001
 138    C  9  pz     Val( 2p)     0.76468     0.31148
 139    C  9  pz     Ryd( 3p)     0.00144     0.00053
 140    C  9  dxy    Ryd( 3d)     0.00096     0.00000
 141    C  9  dxz    Ryd( 3d)     0.00039     0.00000
 142    C  9  dyz    Ryd( 3d)     0.00106     0.00023
 143    C  9  dx2y2  Ryd( 3d)     0.00115     0.00001
 144    C  9  dz2    Ryd( 3d)     0.00066    -0.00026

 145    C 10  s      Cor( 1s)     1.99995     0.00000
 146    C 10  s      Val( 2s)     0.97773    -0.00264
 147    C 10  s      Ryd( 3s)     0.00121     0.00000
 148    C 10  px     Val( 2p)     1.07160    -0.00416
 149    C 10  px     Ryd( 3p)     0.00499     0.00009
 150    C 10  py     Val( 2p)     1.18428    -0.00514
 151    C 10  py     Ryd( 3p)     0.00553     0.00009
 152    C 10  pz     Val( 2p)     0.93129     0.00894
 153    C 10  pz     Ryd( 3p)     0.00101     0.00025
 154    C 10  dxy    Ryd( 3d)     0.00092     0.00000
 155    C 10  dxz    Ryd( 3d)     0.00036     0.00005
 156    C 10  dyz    Ryd( 3d)     0.00100     0.00038
 157    C 10  dx2y2  Ryd( 3d)     0.00106    -0.00002
 158    C 10  dz2    Ryd( 3d)     0.00061    -0.00002

 159    H 11  s      Val( 1s)     0.71866    -0.00037
 160    H 11  s      Ryd( 2s)     0.00132    -0.00001
 161    H 11  px     Ryd( 2p)     0.00053     0.00000
 162    H 11  py     Ryd( 2p)     0.00058     0.00000
 163    H 11  pz     Ryd( 2p)     0.00011     0.00000

 164    H 12  s      Val( 1s)     0.72809    -0.00233
 165    H 12  s      Ryd( 2s)     0.00118    -0.00002
 166    H 12  px     Ryd( 2p)     0.00011     0.00000
 167    H 12  py     Ryd( 2p)     0.00097    -0.00001
 168    H 12  pz     Ryd( 2p)     0.00011     0.00001

 169    H 13  s      Val( 1s)     0.71985     0.00096
 170    H 13  s      Ryd( 2s)     0.00130    -0.00001
 171    H 13  px     Ryd( 2p)     0.00017     0.00000
 172    H 13  py     Ryd( 2p)     0.00093     0.00000
 173    H 13  pz     Ryd( 2p)     0.00012     0.00000

 174    H 14  s      Val( 1s)     0.70276     0.00336
 175    H 14  s      Ryd( 2s)     0.00130     0.00007
 176    H 14  px     Ryd( 2p)     0.00008     0.00001
 177    H 14  py     Ryd( 2p)     0.00040     0.00000
 178    H 14  pz     Ryd( 2p)     0.00067     0.00000

 179    H 15  s      Val( 1s)     0.70277     0.00336
 180    H 15  s      Ryd( 2s)     0.00130     0.00007
 181    H 15  px     Ryd( 2p)     0.00008     0.00001
 182    H 15  py     Ryd( 2p)     0.00040     0.00000
 183    H 15  pz     Ryd( 2p)     0.00067     0.00000

 184    H 16  s      Val( 1s)     0.73654    -0.01091
 185    H 16  s      Ryd( 2s)     0.00080    -0.00001
 186    H 16  px     Ryd( 2p)     0.00104    -0.00003
 187    H 16  py     Ryd( 2p)     0.00011    -0.00001
 188    H 16  pz     Ryd( 2p)     0.00008     0.00005

 189    H 17  s      Val( 1s)     0.72780    -0.00028
 190    H 17  s      Ryd( 2s)     0.00088     0.00000
 191    H 17  px     Ryd( 2p)     0.00038     0.00000
 192    H 17  py     Ryd( 2p)     0.00071     0.00000
 193    H 17  pz     Ryd( 2p)     0.00008     0.00000


 Summary of Natural Population Analysis:

                                     Natural Population                 Natural
             Natural    ---------------------------------------------    Spin
  Atom No    Charge        Core      Valence    Rydberg      Total      Density
 -------------------------------------------------------------------------------
   Br  1    0.25366     27.99997     6.72607    0.02030    34.74634     0.13861
    C  2   -0.01607      1.99996     3.99092    0.02518     6.01607     0.24614
    C  3   -0.20269      1.99995     4.18428    0.01846     6.20269     0.00040
    C  4   -0.14884      1.99995     4.13242    0.01647     6.14884     0.06192
    C  5    0.01905      1.99996     3.96459    0.01639     5.98095     0.18287
    C  6    0.04752      1.99996     3.93539    0.01713     5.95248     0.09841
    C  7   -0.21660      1.99995     4.19770    0.01895     6.21660    -0.04355
    C  8   -0.50626      1.99994     4.49398    0.01235     6.50626    -0.01694
    C  9    0.00466      1.99996     3.97962    0.01577     5.99534     0.34037
    C 10   -0.18154      1.99995     4.16490    0.01669     6.18154    -0.00219
    H 11    0.27880      0.00000     0.71866    0.00254     0.72120    -0.00038
    H 12    0.26955      0.00000     0.72809    0.00236     0.73045    -0.00234
    H 13    0.27763      0.00000     0.71985    0.00252     0.72237     0.00095
    H 14    0.29478      0.00000     0.70276    0.00245     0.70522     0.00345
    H 15    0.29478      0.00000     0.70277    0.00245     0.70522     0.00345
    H 16    0.26143      0.00000     0.73654    0.00202     0.73857    -0.01091
    H 17    0.27014      0.00000     0.72780    0.00205     0.72986    -0.00028
 ===============================================================================
 * Total *  1.00000     45.99955    48.80636    0.19409    95.00000     1.00000

                                 Natural Population
 ---------------------------------------------------------
   Core                      45.99955 ( 99.9990% of   46)
   Valence                   48.80636 ( 99.6048% of   49)
   Natural Minimal Basis     94.80591 ( 99.7957% of   95)
   Natural Rydberg Basis      0.19409 (  0.2043% of   95)
 ---------------------------------------------------------

    Atom No         Natural Electron Configuration
 ----------------------------------------------------------------------------
     Br  1      [core]4s( 1.86)4p( 4.87)4d( 0.01)
      C  2      [core]2s( 0.95)2p( 3.04)3p( 0.02)3d( 0.01)
      C  3      [core]2s( 0.96)2p( 3.23)3p( 0.01)
      C  4      [core]2s( 0.95)2p( 3.18)3p( 0.01)
      C  5      [core]2s( 0.88)2p( 3.08)3p( 0.01)
      C  6      [core]2s( 0.87)2p( 3.07)3p( 0.01)
      C  7      [core]2s( 0.94)2p( 3.26)3p( 0.01)
      C  8      [core]2s( 1.04)2p( 3.46)3p( 0.01)
      C  9      [core]2s( 0.99)2p( 2.98)3p( 0.01)
      C 10      [core]2s( 0.98)2p( 3.19)3p( 0.01)
      H 11            1s( 0.72)
      H 12            1s( 0.73)
      H 13            1s( 0.72)
      H 14            1s( 0.70)
      H 15            1s( 0.70)
      H 16            1s( 0.74)
      H 17            1s( 0.73)


 ***************************************************
 *******         Alpha spin orbitals         *******
 ***************************************************


 NATURAL POPULATIONS:  Natural atomic orbital occupancies

  NAO Atom No lang   Type(AO)    Occupancy      Energy
 -------------------------------------------------------
   1   Br  1  s      Cor( 1s)     1.00000    -399.36619
   2   Br  1  s      Cor( 2s)     1.00000    -131.02916
   3   Br  1  s      Cor( 3s)     1.00000     -24.64781
   4   Br  1  s      Val( 4s)     0.92996      -0.93234
   5   Br  1  s      Ryd( 5s)     0.00147       0.43416
   6   Br  1  px     Cor( 2p)     1.00000     -38.48776
   7   Br  1  px     Cor( 3p)     1.00000     -24.95104
   8   Br  1  px     Val( 4p)     0.56397      -0.40602
   9   Br  1  px     Ryd( 5p)     0.00142       0.59028
  10   Br  1  py     Cor( 2p)     1.00000     -38.47864
  11   Br  1  py     Cor( 3p)     1.00000     -24.94245
  12   Br  1  py     Val( 4p)     0.96935      -0.52502
  13   Br  1  py     Ryd( 5p)     0.00064       0.60624
  14   Br  1  pz     Cor( 2p)     1.00000     -38.48085
  15   Br  1  pz     Cor( 3p)     1.00000     -24.94467
  16   Br  1  pz     Val( 4p)     0.96913      -0.53304
  17   Br  1  pz     Ryd( 5p)     0.00063       0.57294
  18   Br  1  dxy    Cor( 3d)     1.00000      -2.91186
  19   Br  1  dxy    Ryd( 4d)     0.00093       0.77158
  20   Br  1  dxy    Ryd( 5d)     0.00001       3.55280
  21   Br  1  dxz    Cor( 3d)     1.00000      -2.91413
  22   Br  1  dxz    Ryd( 4d)     0.00120       0.55949
  23   Br  1  dxz    Ryd( 5d)     0.00001       3.40239
  24   Br  1  dyz    Cor( 3d)     1.00000      -2.90308
  25   Br  1  dyz    Ryd( 4d)     0.00006       0.47966
  26   Br  1  dyz    Ryd( 5d)     0.00000       3.33088
  27   Br  1  dx2y2  Cor( 3d)     1.00000      -2.91201
  28   Br  1  dx2y2  Ryd( 4d)     0.00265       0.80720
  29   Br  1  dx2y2  Ryd( 5d)     0.00000       3.62278
  30   Br  1  dz2    Cor( 3d)     1.00000      -2.90764
  31   Br  1  dz2    Ryd( 4d)     0.00106       0.59638
  32   Br  1  dz2    Ryd( 5d)     0.00000       3.44749

  33    C  2  s      Cor( 1s)     0.99998     -10.55986
  34    C  2  s      Val( 2s)     0.48150      -0.35041
  35    C  2  s      Ryd( 3s)     0.00050       0.47159
  36    C  2  px     Val( 2p)     0.51062      -0.31751
  37    C  2  px     Ryd( 3p)     0.00380       0.86183
  38    C  2  py     Val( 2p)     0.55120      -0.25006
  39    C  2  py     Ryd( 3p)     0.00406       0.66225
  40    C  2  pz     Val( 2p)     0.57559      -0.36755
  41    C  2  pz     Ryd( 3p)     0.00077       0.48327
  42    C  2  dxy    Ryd( 3d)     0.00073       2.24511
  43    C  2  dxz    Ryd( 3d)     0.00059       1.67244
  44    C  2  dyz    Ryd( 3d)     0.00047       1.79243
  45    C  2  dx2y2  Ryd( 3d)     0.00095       2.15007
  46    C  2  dz2    Ryd( 3d)     0.00034       1.99813

  47    C  3  s      Cor( 1s)     0.99998     -10.49847
  48    C  3  s      Val( 2s)     0.47854      -0.26908
  49    C  3  s      Ryd( 3s)     0.00074       0.49189
  50    C  3  px     Val( 2p)     0.56849      -0.22629
  51    C  3  px     Ryd( 3p)     0.00346       0.75136
  52    C  3  py     Val( 2p)     0.56997      -0.23911
  53    C  3  py     Ryd( 3p)     0.00277       0.76506
  54    C  3  pz     Val( 2p)     0.47517      -0.28897
  55    C  3  pz     Ryd( 3p)     0.00056       0.47408
  56    C  3  dxy    Ryd( 3d)     0.00040       2.37144
  57    C  3  dxz    Ryd( 3d)     0.00029       1.79823
  58    C  3  dyz    Ryd( 3d)     0.00035       1.79985
  59    C  3  dx2y2  Ryd( 3d)     0.00051       2.30818
  60    C  3  dz2    Ryd( 3d)     0.00032       2.09420

  61    C  4  s      Cor( 1s)     0.99997     -10.50119
  62    C  4  s      Val( 2s)     0.47552      -0.26161
  63    C  4  s      Ryd( 3s)     0.00050       0.50112
  64    C  4  px     Val( 2p)     0.53367      -0.20009
  65    C  4  px     Ryd( 3p)     0.00212       0.62213
  66    C  4  py     Val( 2p)     0.59797      -0.24815
  67    C  4  py     Ryd( 3p)     0.00335       0.90798
  68    C  4  pz     Val( 2p)     0.48993      -0.29497
  69    C  4  pz     Ryd( 3p)     0.00058       0.47243
  70    C  4  dxy    Ryd( 3d)     0.00051       2.35615
  71    C  4  dxz    Ryd( 3d)     0.00030       1.83133
  72    C  4  dyz    Ryd( 3d)     0.00031       1.80552
  73    C  4  dx2y2  Ryd( 3d)     0.00037       2.40025
  74    C  4  dz2    Ryd( 3d)     0.00027       2.10994

  75    C  5  s      Cor( 1s)     0.99998     -10.52018
  76    C  5  s      Val( 2s)     0.44362      -0.24379
  77    C  5  s      Ryd( 3s)     0.00112       0.48963
  78    C  5  px     Val( 2p)     0.54985      -0.24028
  79    C  5  px     Ryd( 3p)     0.00217       0.99695
  80    C  5  py     Val( 2p)     0.54833      -0.23306
  81    C  5  py     Ryd( 3p)     0.00244       0.91438
  82    C  5  pz     Val( 2p)     0.53178      -0.32361
  83    C  5  pz     Ryd( 3p)     0.00045       0.52674
  84    C  5  dxy    Ryd( 3d)     0.00053       2.33263
  85    C  5  dxz    Ryd( 3d)     0.00047       1.77185
  86    C  5  dyz    Ryd( 3d)     0.00042       1.79493
  87    C  5  dx2y2  Ryd( 3d)     0.00051       2.35695
  88    C  5  dz2    Ryd( 3d)     0.00024       2.07608

  89    C  6  s      Cor( 1s)     0.99998     -10.51043
  90    C  6  s      Val( 2s)     0.43545      -0.23378
  91    C  6  s      Ryd( 3s)     0.00104       0.50451
  92    C  6  px     Val( 2p)     0.54789      -0.22119
  93    C  6  px     Ryd( 3p)     0.00234       1.00242
  94    C  6  py     Val( 2p)     0.53109      -0.22530
  95    C  6  py     Ryd( 3p)     0.00234       0.84984
  96    C  6  pz     Val( 2p)     0.50238      -0.30346
  97    C  6  pz     Ryd( 3p)     0.00094       0.53530
  98    C  6  dxy    Ryd( 3d)     0.00045       2.32482
  99    C  6  dxz    Ryd( 3d)     0.00035       1.83979
 100    C  6  dyz    Ryd( 3d)     0.00039       1.79532
 101    C  6  dx2y2  Ryd( 3d)     0.00056       2.36681
 102    C  6  dz2    Ryd( 3d)     0.00026       2.08263

 103    C  7  s      Cor( 1s)     0.99997     -10.49808
 104    C  7  s      Val( 2s)     0.46930      -0.25132
 105    C  7  s      Ryd( 3s)     0.00084       0.48184
 106    C  7  px     Val( 2p)     0.53825      -0.20729
 107    C  7  px     Ryd( 3p)     0.00261       0.60055
 108    C  7  py     Val( 2p)     0.60412      -0.26307
 109    C  7  py     Ryd( 3p)     0.00384       0.90570
 110    C  7  pz     Val( 2p)     0.46522      -0.28387
 111    C  7  pz     Ryd( 3p)     0.00053       0.47385
 112    C  7  dxy    Ryd( 3d)     0.00050       2.34593
 113    C  7  dxz    Ryd( 3d)     0.00028       1.82396
 114    C  7  dyz    Ryd( 3d)     0.00034       1.79418
 115    C  7  dx2y2  Ryd( 3d)     0.00038       2.34508
 116    C  7  dz2    Ryd( 3d)     0.00034       2.09794

 117    C  8  s      Cor( 1s)     0.99997     -10.48732
 118    C  8  s      Val( 2s)     0.51627      -0.33536
 119    C  8  s      Ryd( 3s)     0.00043       0.86359
 120    C  8  px     Val( 2p)     0.50741      -0.23924
 121    C  8  px     Ryd( 3p)     0.00161       0.50399
 122    C  8  py     Val( 2p)     0.58221      -0.26064
 123    C  8  py     Ryd( 3p)     0.00163       0.45763
 124    C  8  pz     Val( 2p)     0.63242      -0.29110
 125    C  8  pz     Ryd( 3p)     0.00097       0.62946
 126    C  8  dxy    Ryd( 3d)     0.00048       2.23202
 127    C  8  dxz    Ryd( 3d)     0.00027       1.88934
 128    C  8  dyz    Ryd( 3d)     0.00042       2.36692
 129    C  8  dx2y2  Ryd( 3d)     0.00021       2.06907
 130    C  8  dz2    Ryd( 3d)     0.00038       2.19066

 131    C  9  s      Cor( 1s)     0.99998     -10.51778
 132    C  9  s      Val( 2s)     0.50450      -0.32268
 133    C  9  s      Ryd( 3s)     0.00043       0.49138
 134    C  9  px     Val( 2p)     0.59035      -0.25215
 135    C  9  px     Ryd( 3p)     0.00305       0.87294
 136    C  9  py     Val( 2p)     0.52676      -0.21176
 137    C  9  py     Ryd( 3p)     0.00161       0.52322
 138    C  9  pz     Val( 2p)     0.53808      -0.33444
 139    C  9  pz     Ryd( 3p)     0.00099       0.44875
 140    C  9  dxy    Ryd( 3d)     0.00048       2.31323
 141    C  9  dxz    Ryd( 3d)     0.00020       1.79641
 142    C  9  dyz    Ryd( 3d)     0.00064       1.81846
 143    C  9  dx2y2  Ryd( 3d)     0.00058       2.30459
 144    C  9  dz2    Ryd( 3d)     0.00020       2.07068

 145    C 10  s      Cor( 1s)     0.99997     -10.50224
 146    C 10  s      Val( 2s)     0.48754      -0.28363
 147    C 10  s      Ryd( 3s)     0.00061       0.48059
 148    C 10  px     Val( 2p)     0.53372      -0.21838
 149    C 10  px     Ryd( 3p)     0.00254       0.64221
 150    C 10  py     Val( 2p)     0.58957      -0.24528
 151    C 10  py     Ryd( 3p)     0.00281       0.79038
 152    C 10  pz     Val( 2p)     0.47012      -0.29336
 153    C 10  pz     Ryd( 3p)     0.00063       0.45686
 154    C 10  dxy    Ryd( 3d)     0.00046       2.35243
 155    C 10  dxz    Ryd( 3d)     0.00020       1.79000
 156    C 10  dyz    Ryd( 3d)     0.00069       1.83214
 157    C 10  dx2y2  Ryd( 3d)     0.00052       2.34460
 158    C 10  dz2    Ryd( 3d)     0.00029       2.10582

 159    H 11  s      Val( 1s)     0.35915      -0.02719
 160    H 11  s      Ryd( 2s)     0.00065       0.26151
 161    H 11  px     Ryd( 2p)     0.00027       2.09657
 162    H 11  py     Ryd( 2p)     0.00029       2.13539
 163    H 11  pz     Ryd( 2p)     0.00005       1.58667

 164    H 12  s      Val( 1s)     0.36288      -0.03509
 165    H 12  s      Ryd( 2s)     0.00058       0.25813
 166    H 12  px     Ryd( 2p)     0.00005       1.93895
 167    H 12  py     Ryd( 2p)     0.00048       2.28547
 168    H 12  pz     Ryd( 2p)     0.00006       1.58277

 169    H 13  s      Val( 1s)     0.36041      -0.03638
 170    H 13  s      Ryd( 2s)     0.00064       0.26272
 171    H 13  px     Ryd( 2p)     0.00008       1.95328
 172    H 13  py     Ryd( 2p)     0.00046       2.29388
 173    H 13  pz     Ryd( 2p)     0.00006       1.59613

 174    H 14  s      Val( 1s)     0.35306      -0.03886
 175    H 14  s      Ryd( 2s)     0.00069       0.28082
 176    H 14  px     Ryd( 2p)     0.00005       1.68121
 177    H 14  py     Ryd( 2p)     0.00020       1.95324
 178    H 14  pz     Ryd( 2p)     0.00034       2.10276

 179    H 15  s      Val( 1s)     0.35306      -0.03887
 180    H 15  s      Ryd( 2s)     0.00069       0.28082
 181    H 15  px     Ryd( 2p)     0.00005       1.68121
 182    H 15  py     Ryd( 2p)     0.00020       1.95324
 183    H 15  pz     Ryd( 2p)     0.00034       2.10275

 184    H 16  s      Val( 1s)     0.36282      -0.03776
 185    H 16  s      Ryd( 2s)     0.00039       0.23709
 186    H 16  px     Ryd( 2p)     0.00050       2.28314
 187    H 16  py     Ryd( 2p)     0.00005       1.87594
 188    H 16  pz     Ryd( 2p)     0.00007       1.57425

 189    H 17  s      Val( 1s)     0.36376      -0.03443
 190    H 17  s      Ryd( 2s)     0.00044       0.24468
 191    H 17  px     Ryd( 2p)     0.00019       2.01357
 192    H 17  py     Ryd( 2p)     0.00035       2.17891
 193    H 17  pz     Ryd( 2p)     0.00004       1.57822


 Summary of Natural Population Analysis:

                                     Natural Population
             Natural    ---------------------------------------------
  Atom No    Charge        Core      Valence    Rydberg      Total
 --------------------------------------------------------------------
   Br  1    0.05752     13.99999     3.43242    0.01007    17.44248
    C  2   -0.13111      0.99998     2.11891    0.01222     3.13111
    C  3   -0.10155      0.99998     2.09217    0.00940     3.10155
    C  4   -0.10538      0.99997     2.09709    0.00832     3.10538
    C  5   -0.08191      0.99998     2.07358    0.00835     3.08191
    C  6   -0.02545      0.99998     2.01680    0.00866     3.02545
    C  7   -0.08652      0.99997     2.07690    0.00965     3.08652
    C  8   -0.24466      0.99997     2.23831    0.00639     3.24466
    C  9   -0.16786      0.99998     2.15970    0.00818     3.16786
    C 10   -0.08968      0.99997     2.08095    0.00875     3.08968
    H 11    0.13959      0.00000     0.35915    0.00126     0.36041
    H 12    0.13595      0.00000     0.36288    0.00117     0.36405
    H 13    0.13834      0.00000     0.36041    0.00125     0.36166
    H 14    0.14567      0.00000     0.35306    0.00127     0.35433
    H 15    0.14567      0.00000     0.35306    0.00127     0.35433
    H 16    0.13617      0.00000     0.36282    0.00101     0.36383
    H 17    0.13521      0.00000     0.36376    0.00103     0.36479
 ====================================================================
 * Total *  0.00000     22.99978    24.90196    0.09826    48.00000

[...]
   41. BD ( 1) C  8- C  9      64. BD*( 1) C  8- H 14      0.28    1.19   0.023
   41. BD ( 1) C  8- C  9      65. BD*( 1) C  8- H 15      0.28    1.19   0.023
   41. BD ( 1) C  8- C  9      66. BD*( 1) C  9- C 10      0.50    1.35   0.033
   41. BD ( 1) C  8- C  9      68. BD*( 1) C 10- H 17      2.36    1.21   0.067
   41. BD ( 1) C  8- C  9     122. RY ( 2) C  6            0.41    1.84   0.035
   41. BD ( 1) C  8- C  9     158. RY ( 2) C 10            0.98    1.57   0.049
   42. BD ( 1) C  8- H 14      57. BD*( 1) C  5- C  6      0.63    1.17   0.034
   42. BD ( 1) C  8- H 14      60. BD*( 2) C  6- C  7      2.74    0.66   0.054
   42. BD ( 1) C  8- H 14      66. BD*( 1) C  9- C 10      0.43    1.26   0.030
   42. BD ( 1) C  8- H 14      69. 3Cn( 1)C5-C9-C10        2.44    0.52   0.045
   42. BD ( 1) C  8- H 14      70. 3C*( 1)C5-C9-C10        2.28    0.71   0.051
   42. BD ( 1) C  8- H 14     123. RY ( 3) C  6            0.49    1.54   0.035
   42. BD ( 1) C  8- H 14     150. RY ( 3) C  9            0.45    1.67   0.034
   43. BD ( 1) C  8- H 15      57. BD*( 1) C  5- C  6      0.63    1.17   0.034
   43. BD ( 1) C  8- H 15      60. BD*( 2) C  6- C  7      2.74    0.66   0.054
   43. BD ( 1) C  8- H 15      66. BD*( 1) C  9- C 10      0.43    1.26   0.030
   43. BD ( 1) C  8- H 15      69. 3Cn( 1)C5-C9-C10        2.44    0.52   0.045
   43. BD ( 1) C  8- H 15      70. 3C*( 1)C5-C9-C10        2.28    0.71   0.051
   43. BD ( 1) C  8- H 15     123. RY ( 3) C  6            0.49    1.54   0.035
   43. BD ( 1) C  8- H 15     150. RY ( 3) C  9            0.45    1.67   0.034
   44. BD ( 1) C  9- C 10      55. BD*( 1) C  4- C  5      1.88    1.38   0.064
   44. BD ( 1) C  9- C 10      58. BD*( 1) C  5- C 10      0.76    1.27   0.039
   44. BD ( 1) C  9- C 10      63. BD*( 1) C  8- C  9      0.45    1.22   0.030
   44. BD ( 1) C  9- C 10      64. BD*( 1) C  8- H 14      0.35    1.27   0.027
   44. BD ( 1) C  9- C 10      65. BD*( 1) C  8- H 15      0.35    1.27   0.027
   44. BD ( 1) C  9- C 10      67. BD*( 1) C  9- H 16      0.76    1.30   0.040
   44. BD ( 1) C  9- C 10      68. BD*( 1) C 10- H 17      1.00    1.29   0.045
   44. BD ( 1) C  9- C 10     112. RY ( 1) C  5            0.64    1.89   0.044
   44. BD ( 1) C  9- C 10     113. RY ( 2) C  5            0.46    2.12   0.040
   44. BD ( 1) C  9- C 10     140. RY ( 2) C  8            0.79    1.48   0.043
   45. BD ( 1) C  9- H 16      58. BD*( 1) C  5- C 10      1.85    1.14   0.058
   45. BD ( 1) C  9- H 16      61. BD*( 1) C  6- C  8      0.91    1.09   0.040
   45. BD ( 1) C  9- H 16      66. BD*( 1) C  9- C 10      0.38    1.30   0.028
   46. BD ( 1) C 10- H 17      57. BD*( 1) C  5- C  6      1.13    1.21   0.047
   46. BD ( 1) C 10- H 17      63. BD*( 1) C  8- C  9      1.62    1.08   0.053
   46. BD ( 1) C 10- H 17      66. BD*( 1) C  9- C 10      0.54    1.30   0.033
   46. BD ( 1) C 10- H 17     148. RY ( 1) C  9            0.35    1.92   0.033
   47. 3C ( 1)C5-C9-C10        53. BD*( 2) C  3- C  4      6.68    0.49   0.072
   47. 3C ( 1)C5-C9-C10        60. BD*( 2) C  6- C  7      9.63    0.49   0.086
   47. 3C ( 1)C5-C9-C10        64. BD*( 1) C  8- H 14      0.86    0.92   0.036
   47. 3C ( 1)C5-C9-C10        65. BD*( 1) C  8- H 15      0.86    0.92   0.036
   47. 3C ( 1)C5-C9-C10        69. 3Cn( 1)C5-C9-C10        1.08    0.35   0.024
   47. 3C ( 1)C5-C9-C10       105. RY ( 3) C  4            0.86    1.23   0.041
   47. 3C ( 1)C5-C9-C10       123. RY ( 3) C  6            0.32    1.37   0.027


 NATURAL BOND ORBITALS (Summary):

                                                     Principal Delocalizations
           NBO                 Occupancy    Energy   (geminal,vicinal,remote)
 ===============================================================================
 Molecular unit  1  (C9H7Br)
 ------ Lewis --------------------------------------
    1. CR ( 1)Br  1             1.00000  -399.36573
    2. CR ( 2)Br  1             1.00000  -131.02878
    3. CR ( 3)Br  1             1.00000   -24.64743
    4. CR ( 4)Br  1             1.00000   -38.48761
    5. CR ( 5)Br  1             1.00000   -24.95092
    6. CR ( 6)Br  1             1.00000   -38.47843
    7. CR ( 7)Br  1             1.00000   -24.94224
    8. CR ( 8)Br  1             1.00000   -38.47973
    9. CR ( 9)Br  1             1.00000   -24.94322
   10. CR (10)Br  1             1.00000    -2.91178
   11. CR (11)Br  1             1.00000    -2.91341
   12. CR (12)Br  1             1.00000    -2.90234
   13. CR (13)Br  1             1.00000    -2.91193
   14. CR (14)Br  1             1.00000    -2.90670
   15. CR ( 1) C  2             0.99998   -10.55630
   16. CR ( 1) C  3             0.99998   -10.49853
   17. CR ( 1) C  4             0.99997   -10.50047
   18. CR ( 1) C  5             0.99998   -10.51779
   19. CR ( 1) C  6             0.99998   -10.50916
   20. CR ( 1) C  7             0.99997   -10.49872
   21. CR ( 1) C  8             0.99997   -10.48765
   22. CR ( 1) C  9             0.99998   -10.51356
   23. CR ( 1) C 10             0.99997   -10.50238
   24. LP ( 1)Br  1             0.99718    -0.91296  86(v),50(v),51(v)
   25. LP ( 2)Br  1             0.98722    -0.52786  50(v),51(v),85(v),52(r)
                                                     59(r)
   26. BD ( 1)Br  1- C  2       0.99158    -0.81583  59(v),52(v),94(v),130(v)
   27. BD ( 2)Br  1- C  2       0.96510    -0.54901  53(v),60(v),96(v),132(v)
   28. BD ( 1) C  2- C  3       0.99037    -0.89729  51(g),52(g),62(v),56(v)
                                                     54(g),104(v),130(v),103(v)
                                                     131(v)
   29. BD ( 1) C  2- C  7       0.98916    -0.89403  61(v),59(g),50(g),121(v)
                                                     54(v),62(g),94(v)
   30. BD ( 1) C  3- C  4       0.98578    -0.86591  48(v),58(v),112(v),50(g)
                                                     55(g),86(v),54(g),56(g)
                                                     85(v)
   31. BD ( 2) C  3- C  4       0.86006    -0.49480  49(v),69(v),70(v),87(v)
                                                     115(v),88(v),96(g)
   32. BD ( 1) C  3- H 11       0.98841    -0.73996  51(v),55(v),48(v),86(v)
                                                     52(g),50(g),56(v),103(v)
   33. BD ( 1) C  4- C  5       0.98818    -0.87940  57(g),58(g),52(g),61(v)
                                                     54(v),95(v),56(g),94(v)
                                                     157(v),121(v)
   34. BD ( 1) C  4- H 12       0.98935    -0.74170  57(v),50(v),52(g),55(g)
                                                     54(v),94(v)
   35. BD ( 1) C  5- C  6       0.98261    -0.85830  55(g),59(g),62(v),56(v)
                                                     68(v),58(g),61(g),103(v)
                                                     157(v),130(v),139(v),131(v)
                                                     64(v),65(v),63(v)
   36. BD ( 1) C  5- C 10       0.98642    -0.83614  67(v),59(v),55(g),57(g)
                                                     52(v),66(g),148(v),103(v)
                                                     68(g),122(v),121(v),63(v)
                                                     61(v)
   37. BD ( 1) C  6- C  7       0.98473    -0.87604  48(v),57(g),51(g),61(g)
                                                     58(v),62(g),85(v),86(v)
                                                     139(v),113(v),63(v)
   38. BD ( 2) C  6- C  7       0.85265    -0.49818  49(v),69(v),87(v),64(v)
                                                     65(v),70(v),141(v),116(v)
                                                     132(g),88(v)
   39. BD ( 1) C  6- C  8       0.98674    -0.81064  55(v),59(g),67(v),51(v)
                                                     57(g),130(v),113(v),149(v)
                                                     63(g),64(g),65(g),131(v)
                                                     58(v)
   40. BD ( 1) C  7- H 13       0.98850    -0.74339  57(v),50(v),86(v),59(g)
                                                     48(v),51(g),121(v)
   41. BD ( 1) C  8- C  9       0.98914    -0.80893  68(v),59(v),158(v),66(g)
                                                     58(v),122(v),61(g),64(g)
                                                     65(g),57(v)
   42. BD ( 1) C  8- H 14       0.97450    -0.72060  60(v),69(v),70(v),57(v)
                                                     123(v),150(v),66(v)
   43. BD ( 1) C  8- H 15       0.97450    -0.72060  60(v),69(v),70(v),57(v)
                                                     123(v),150(v),66(v)
   44. BD ( 1) C  9- C 10       0.99186    -0.89398  55(v),68(g),140(v),67(g)
                                                     58(g),112(v),113(v),63(g)
                                                     64(v),65(v)
   45. BD ( 1) C  9- H 16       0.99207    -0.75901  58(v),61(v),66(g)
   46. BD ( 1) C 10- H 17       0.99217    -0.75617  63(v),57(v),66(g),148(v)
   47. 3C ( 1) C  5- C  9- C 10 0.91484    -0.54700  60(v),53(v),69(g),64(v)
                                                     65(v),105(v),123(v)
 ------ non-Lewis ----------------------------------
   48. BD*( 1)Br  1- C  2       0.01366     0.01863
   49. BD*( 2)Br  1- C  2       0.20799    -0.22017
   50. BD*( 1) C  2- C  3       0.01292     0.46224
   51. BD*( 1) C  2- C  7       0.01255     0.46067
   52. BD*( 1) C  3- C  4       0.00763     0.48065
   53. BD*( 2) C  3- C  4       0.03691    -0.06159
   54. BD*( 1) C  3- H 11       0.00645     0.40614
   55. BD*( 1) C  4- C  5       0.01175     0.48239
   56. BD*( 1) C  4- H 12       0.00649     0.40021
   57. BD*( 1) C  5- C  6       0.01526     0.45248
   58. BD*( 1) C  5- C 10       0.01254     0.37774
   59. BD*( 1) C  6- C  7       0.01261     0.49362
   60. BD*( 2) C  6- C  7       0.05447    -0.06149
   61. BD*( 1) C  6- C  8       0.01029     0.33204
   62. BD*( 1) C  7- H 13       0.00721     0.39318
   63. BD*( 1) C  8- C  9       0.00554     0.32833
   64. BD*( 1) C  8- H 14       0.00603     0.37676
   65. BD*( 1) C  8- H 15       0.00603     0.37675
   66. BD*( 1) C  9- C 10       0.00426     0.54269
   67. BD*( 1) C  9- H 16       0.00622     0.40911
   68. BD*( 1) C 10- H 17       0.00725     0.40094
   69. 3Cn( 1) C  5- C  9- C 10 0.11615    -0.19953
   70. 3C*( 1) C  5- C  9- C 10 0.01724    -0.00667
   71. RY ( 1)Br  1             0.00060     0.61425
   72. RY ( 2)Br  1             0.00046     0.52400
   73. RY ( 3)Br  1             0.00014     0.50081
   74. RY ( 4)Br  1             0.00005     0.84782
   75. RY ( 5)Br  1             0.00002     0.46078
   76. RY ( 6)Br  1             0.00001     0.71770
   77. RY ( 7)Br  1             0.00000     0.87521
   78. RY ( 8)Br  1             0.00000     3.42135
   79. RY ( 9)Br  1             0.00000     0.82788
   80. RY (10)Br  1             0.00000     0.76563
   81. RY (11)Br  1             0.00000     3.26522
   82. RY (12)Br  1             0.00000     3.35032
   83. RY (13)Br  1             0.00000     3.52402
   84. RY (14)Br  1             0.00000     3.09728
   85. RY ( 1) C  2             0.00385     0.68862
   86. RY ( 2) C  2             0.00343     1.00199
   87. RY ( 3) C  2             0.00342     0.86273
   88. RY ( 4) C  2             0.00043     1.81516
   89. RY ( 5) C  2             0.00041     0.50564
   90. RY ( 6) C  2             0.00026     2.17074
   91. RY ( 7) C  2             0.00016     1.97324
   92. RY ( 8) C  2             0.00000     1.32255
   93. RY ( 9) C  2             0.00000     2.07974
   94. RY ( 1) C  3             0.00336     1.03074
   95. RY ( 2) C  3             0.00134     0.63796
   96. RY ( 3) C  3             0.00052     0.64990
   97. RY ( 4) C  3             0.00045     0.52582
   98. RY ( 5) C  3             0.00008     2.24957
   99. RY ( 6) C  3             0.00005     1.68182
  100. RY ( 7) C  3             0.00002     2.22116
  101. RY ( 8) C  3             0.00001     1.74464
  102. RY ( 9) C  3             0.00000     2.10266
  103. RY ( 1) C  4             0.00306     1.06885
  104. RY ( 2) C  4             0.00130     0.64633
  105. RY ( 3) C  4             0.00066     0.68760
  106. RY ( 4) C  4             0.00023     0.60579
  107. RY ( 5) C  4             0.00005     1.66259
  108. RY ( 6) C  4             0.00004     2.17736
  109. RY ( 7) C  4             0.00001     2.24662
  110. RY ( 8) C  4             0.00001     1.77233
  111. RY ( 9) C  4             0.00000     2.14651
  112. RY ( 1) C  5             0.00233     0.99288
  113. RY ( 2) C  5             0.00184     1.22546
  114. RY ( 3) C  5             0.00075     0.59222
  115. RY ( 4) C  5             0.00064     1.43230
  116. RY ( 5) C  5             0.00032     1.55687
  117. RY ( 6) C  5             0.00008     2.24183
  118. RY ( 7) C  5             0.00005     1.13884
  119. RY ( 8) C  5             0.00003     2.03205
  120. RY ( 9) C  5             0.00000     2.10457
  121. RY ( 1) C  6             0.00253     1.07374
  122. RY ( 2) C  6             0.00164     1.02678
  123. RY ( 3) C  6             0.00105     0.82308
  124. RY ( 4) C  6             0.00045     0.65915
  125. RY ( 5) C  6             0.00026     1.79826
  126. RY ( 6) C  6             0.00011     2.20713
  127. RY ( 7) C  6             0.00007     1.56636
  128. RY ( 8) C  6             0.00003     2.07980
  129. RY ( 9) C  6             0.00000     2.09305
  130. RY ( 1) C  7             0.00351     1.04084
  131. RY ( 2) C  7             0.00177     0.61067
  132. RY ( 3) C  7             0.00049     0.57305
  133. RY ( 4) C  7             0.00043     0.55758
  134. RY ( 5) C  7             0.00006     1.72842
  135. RY ( 6) C  7             0.00004     2.21481
  136. RY ( 7) C  7             0.00002     1.78618
  137. RY ( 8) C  7             0.00001     2.22651
  138. RY ( 9) C  7             0.00000     2.10704
  139. RY ( 1) C  8             0.00160     0.59890
  140. RY ( 2) C  8             0.00116     0.58842
  141. RY ( 3) C  8             0.00067     1.05365
  142. RY ( 4) C  8             0.00031     0.88249
  143. RY ( 5) C  8             0.00012     2.07346
  144. RY ( 6) C  8             0.00002     1.96662
  145. RY ( 7) C  8             0.00001     2.12460
  146. RY ( 8) C  8             0.00000     1.75695
  147. RY ( 9) C  8             0.00000     2.14020
  148. RY ( 1) C  9             0.00199     1.16352
  149. RY ( 2) C  9             0.00083     0.58263
  150. RY ( 3) C  9             0.00069     0.95208
  151. RY ( 4) C  9             0.00020     0.57656
  152. RY ( 5) C  9             0.00005     1.45231
  153. RY ( 6) C  9             0.00005     2.20762
  154. RY ( 7) C  9             0.00001     1.97232
  155. RY ( 8) C  9             0.00000     2.11306
  156. RY ( 9) C  9             0.00000     1.72050
  157. RY ( 1) C 10             0.00219     0.99742
  158. RY ( 2) C 10             0.00146     0.75868
  159. RY ( 3) C 10             0.00032     0.50295
  160. RY ( 4) C 10             0.00032     0.51469
  161. RY ( 5) C 10             0.00003     2.11350
  162. RY ( 6) C 10             0.00002     1.78897
  163. RY ( 7) C 10             0.00001     2.11315
  164. RY ( 8) C 10             0.00001     1.77982
  165. RY ( 9) C 10             0.00000     2.21508
  166. RY ( 1) H 11             0.00067     0.27963
  167. RY ( 2) H 11             0.00005     1.58668
  168. RY ( 3) H 11             0.00003     2.16174
  169. RY ( 4) H 11             0.00001     2.04035
  170. RY ( 1) H 12             0.00060     0.27442
  171. RY ( 2) H 12             0.00005     1.58299
  172. RY ( 3) H 12             0.00003     2.27827
  173. RY ( 4) H 12             0.00001     1.91856
  174. RY ( 1) H 13             0.00067     0.28451
  175. RY ( 2) H 13             0.00006     1.59597
  176. RY ( 3) H 13             0.00003     2.16744
  177. RY ( 4) H 13             0.00002     2.04633
  178. RY ( 1) H 14             0.00062     0.28724
  179. RY ( 2) H 14             0.00005     1.83815
  180. RY ( 3) H 14             0.00003     1.69012
  181. RY ( 4) H 14             0.00001     2.19286
  182. RY ( 1) H 15             0.00062     0.28724
  183. RY ( 2) H 15             0.00005     1.83816
  184. RY ( 3) H 15             0.00003     1.69012
  185. RY ( 4) H 15             0.00001     2.19286
  186. RY ( 1) H 16             0.00040     0.24332
  187. RY ( 2) H 16             0.00003     2.29256
  188. RY ( 3) H 16             0.00002     1.57554
  189. RY ( 4) H 16             0.00001     1.84837
  190. RY ( 1) H 17             0.00044     0.25338
  191. RY ( 2) H 17             0.00004     1.57824
  192. RY ( 3) H 17             0.00003     2.27202
  193. RY ( 4) H 17             0.00001     1.90003
          -------------------------------
                 Total Lewis   46.34289  ( 98.6019%)
           Valence non-Lewis    0.59744  (  1.2712%)
           Rydberg non-Lewis    0.05967  (  0.1270%)
          -------------------------------
               Total unit  1   47.00000  (100.0000%)
              Charge unit  1    1.00000

 $CHOOSE
  ALPHA
   LONE 1 3 END
   BOND S 1 2 D 2 3 S 2 7 S 3 4 S 3 11 D 4 5 S 4 12 S 5 6 S 5 10 D 6 7 S 6 8
        S 7 13 S 8 9 S 8 14 S 8 15 D 9 10 S 9 16 S 10 17 END
  END
  BETA
   LONE 1 2 END
   BOND D 1 2 S 2 3 S 2 7 D 3 4 S 3 11 S 4 5 S 4 12 S 5 6 S 5 10 D 6 7 S 6 8
        S 7 13 S 8 9 S 8 14 S 8 15 S 9 10 S 9 16 S 10 17 END
     3C S 5 9 10 END
  END
 $END

 NBO analysis completed in 1.78 CPU seconds (2 wall seconds)
 Maximum scratch memory used by NBO was 821049 words (6.26 MB)
 Maximum scratch memory used by G16NBO was 83875 words (0.64 MB)

 Opening RunExU unformatted file "/home/rpaton/opt/dzvp/fukui/Gau-1744572.EUF"
 Read unf file /home/rpaton/opt/dzvp/fukui/Gau-1744572.EUF:
 Label Gaussian matrix elements                                         IVers= 2 NLab= 2 Version=ES64L-G16RevC.01
 Title arbr37_wb97xd_popncreated by GaussianPrep                       
 NAtoms=    17 NBasis=   193 NBsUse=   193 ICharg=     1 Multip=     2 NE=    95 Len12L=8 Len4L=8 IOpCl= 1 ICGU=112
 GAUSSIAN SCALARS                    NI= 1 NR= 1 NTot=       1 LenBuf=    2 NRI=1 N=    1000
 NPA CHARGES                         NI= 0 NR= 1 NTot=      17 LenBuf= 2048 NRI=1 N=      17
 Recovered energy= -2920.40105962     dipole=     -2.657175968360      0.045289513251      0.000002059598
 Unable to Open any file for archive entry.
 1\1\GINC-DYNAMO\SP\UwB97XD\def2SVP\C9H7Br1(1+,2)\RPATON\27-Sep-2024\0\
 \# pop=(nbo6,hirshfeld) wb97xd/def2svp\\arbr37_wb97xd_popncreated by G
 aussianPrep\\1,2\Br,0,-2.657969,-0.219239,0.\C,0,-0.800785,0.158792,0.
 000001\C,0,-0.375752,1.489412,0.\C,0,0.987563,1.784087,0.\C,0,1.907351
 ,0.736706,0.\C,0,1.46336,-0.59884,0.000001\C,0,0.10876,-0.901878,0.000
 001\C,0,2.661849,-1.510705,-0.000003\C,0,3.815073,-0.542328,0.000004\C
 ,0,3.375071,0.728796,-0.000002\H,0,-1.113771,2.292891,-0.000001\H,0,1.
 320172,2.824375,-0.000001\H,0,-0.24558,-1.934291,0.\H,0,2.678408,-2.17
 126,-0.884188\H,0,2.678408,-2.171269,0.884176\H,0,4.859451,-0.85604,0.
 000007\H,0,3.996898,1.624698,-0.000003\\Version=ES64L-G16RevC.01\State
 =2-A\HF=-2920.4010596\S2=0.777596\S2-1=0.\S2A=0.750299\RMSD=2.976e-09\
 Dipole=2.657176,0.0452897,-0.0000021\Quadrupole=17.2012117,-2.0494674,
 -15.1517443,-1.8685415,0.0000004,0.000001\PG=C01 [X(C9H7Br1)]\\@
 The archive entry for this job was punched.


 Once you get people laughing, they're
 listening and you can tell them almost anything.
                                 -- Herb Gardner
 Job cpu time:       0 days  0 hours 12 minutes 34.0 seconds.
 Elapsed time:       0 days  0 hours  0 minutes 31.7 seconds.
 File lengths (MBytes):  RWF=     41 Int=      0 D2E=      0 Chk=      4 Scr=      1
 Normal termination of Gaussian 16 at Fri Sep 27 18:36:05 2024.
