 Entering Gaussian System, Link 0=/usr/local/Gaussian/G16C/g16/g16
 Input=arbr32_wb97xd_red.com
 Output=arbr32_wb97xd_red.log
 Initial command:
 /usr/local/Gaussian/G16C/g16/l1.exe "/home/rpaton/arbr500/dzvp/fukui/Gau-1909709.inp" -scrdir="/home/rpaton/arbr500/dzvp/fukui/"
 Entering Link 1 = /usr/local/Gaussian/G16C/g16/l1.exe PID=   1909710.
  
 Copyright (c) 1988-2019, Gaussian, Inc.  All Rights Reserved.
  
 This is part of the Gaussian(R) 16 program.  It is based on
 the Gaussian(R) 09 system (copyright 2009, Gaussian, Inc.),
 the Gaussian(R) 03 system (copyright 2003, Gaussian, Inc.),
 the Gaussian(R) 98 system (copyright 1998, Gaussian, Inc.),
 the Gaussian(R) 94 system (copyright 1995, Gaussian, Inc.),
 the Gaussian 92(TM) system (copyright 1992, Gaussian, Inc.),
 the Gaussian 90(TM) system (copyright 1990, Gaussian, Inc.),
 the Gaussian 88(TM) system (copyright 1988, Gaussian, Inc.),
 the Gaussian 86(TM) system (copyright 1986, Carnegie Mellon
 University), and the Gaussian 82(TM) system (copyright 1983,
 Carnegie Mellon University). Gaussian is a federally registered
 trademark of Gaussian, Inc.
  
 This software contains proprietary and confidential information,
 including trade secrets, belonging to Gaussian, Inc.
  
 This software is provided under written license and may be
 used, copied, transmitted, or stored only in accord with that
 written license.
  
 The following legend is applicable only to US Government
 contracts under FAR:
  
                    RESTRICTED RIGHTS LEGEND
  
 Use, reproduction and disclosure by the US Government is
 subject to restrictions as set forth in subparagraphs (a)
 and (c) of the Commercial Computer Software - Restricted
 Rights clause in FAR 52.227-19.
  
 Gaussian, Inc.
 340 Quinnipiac St., Bldg. 40, Wallingford CT 06492
  
  
 ---------------------------------------------------------------
 Warning -- This program may not be used in any manner that
 competes with the business of Gaussian, Inc. or will provide
 assistance to any competitor of Gaussian, Inc.  The licensee
 of this program is prohibited from giving any competitor of
 Gaussian, Inc. access to this program.  By using this program,
 the user acknowledges that Gaussian, Inc. is engaged in the
 business of creating and licensing software in the field of
 computational chemistry and represents and warrants to the
 licensee that it is not a competitor of Gaussian, Inc. and that
 it will not use this program in any manner prohibited above.
 ---------------------------------------------------------------
  

 Cite this work as:
 Gaussian 16, Revision C.01,
 M. J. Frisch, G. W. Trucks, H. B. Schlegel, G. E. Scuseria, 
 M. A. Robb, J. R. Cheeseman, G. Scalmani, V. Barone, 
 G. A. Petersson, H. Nakatsuji, X. Li, M. Caricato, A. V. Marenich, 
 J. Bloino, B. G. Janesko, R. Gomperts, B. Mennucci, H. P. Hratchian, 
 J. V. Ortiz, A. F. Izmaylov, J. L. Sonnenberg, D. Williams-Young, 
 F. Ding, F. Lipparini, F. Egidi, J. Goings, B. Peng, A. Petrone, 
 T. Henderson, D. Ranasinghe, V. G. Zakrzewski, J. Gao, N. Rega, 
 G. Zheng, W. Liang, M. Hada, M. Ehara, K. Toyota, R. Fukuda, 
 J. Hasegawa, M. Ishida, T. Nakajima, Y. Honda, O. Kitao, H. Nakai, 
 T. Vreven, K. Throssell, J. A. Montgomery, Jr., J. E. Peralta, 
 F. Ogliaro, M. J. Bearpark, J. J. Heyd, E. N. Brothers, K. N. Kudin, 
 V. N. Staroverov, T. A. Keith, R. Kobayashi, J. Normand, 
 K. Raghavachari, A. P. Rendell, J. C. Burant, S. S. Iyengar, 
 J. Tomasi, M. Cossi, J. M. Millam, M. Klene, C. Adamo, R. Cammi, 
 J. W. Ochterski, R. L. Martin, K. Morokuma, O. Farkas, 
 J. B. Foresman, and D. J. Fox, Gaussian, Inc., Wallingford CT, 2019.
 
 ******************************************
 Gaussian 16:  ES64L-G16RevC.01  3-Jul-2019
                28-Sep-2024 
 ******************************************
 %chk=arbr32_wb97xd_red.chk
 %mem=48GB
 %nprocshared=24
 Will use up to   24 processors via shared memory.
 -------------------------------------
 # pop=(nbo6,hirshfeld) wb97xd/def2svp
 -------------------------------------
 1/38=1,172=1/1;
 2/12=2,17=6,18=5,40=1/2;
 3/5=43,7=101,11=2,25=1,30=1,74=-58/1,2,3;
 4//1;
 5/5=2,38=5/2;
 6/7=2,8=2,9=2,10=2,28=1,40=1,79=1,113=1,114=1,124=3103,126=1/1,12;
 99/5=1,9=1/99;
 ----------------------------------------
 arbr32_wb97xd_redcreated by GaussianPrep
 ----------------------------------------
 Symbolic Z-matrix:
 Charge = -1 Multiplicity = 2
 O                    -3.34068   1.89388  -0.20837 
 C                    -2.86601   0.8018   -0.06711 
 O                    -3.66834  -0.27469   0.02096 
 C                    -3.13815  -1.52021   0.4543 
 C                    -1.86309  -1.87719  -0.28622 
 C                    -0.87797  -0.74984  -0.13874 
 C                     0.50337  -0.94466  -0.13477 
 C                     1.35242   0.15208  -0.00203 
 Br                    3.22132  -0.12408   0.01395 
 C                     0.84913   1.44881   0.12152 
 C                    -0.5267    1.63964   0.10967 
 C                    -1.39058   0.54866  -0.01343 
 H                    -3.93103  -2.25745   0.2775 
 H                    -2.94883  -1.47405   1.54098 
 H                    -1.45216  -2.8189    0.10628 
 H                    -2.08711  -2.04015  -1.35441 
 H                     0.91749  -1.95012  -0.23101 
 H                     1.5291    2.29555   0.222 
 H                    -0.95589   2.63993   0.1907 
 
                          Input orientation:                          
 ---------------------------------------------------------------------
 Center     Atomic      Atomic             Coordinates (Angstroms)
 Number     Number       Type             X           Y           Z
 ---------------------------------------------------------------------
      1          8           0       -3.340682    1.893880   -0.208365
      2          6           0       -2.866008    0.801802   -0.067112
      3          8           0       -3.668340   -0.274690    0.020962
      4          6           0       -3.138147   -1.520211    0.454301
      5          6           0       -1.863093   -1.877194   -0.286221
      6          6           0       -0.877967   -0.749843   -0.138737
      7          6           0        0.503370   -0.944659   -0.134769
      8          6           0        1.352418    0.152077   -0.002033
      9         35           0        3.221316   -0.124081    0.013945
     10          6           0        0.849127    1.448810    0.121517
     11          6           0       -0.526696    1.639640    0.109666
     12          6           0       -1.390575    0.548660   -0.013426
     13          1           0       -3.931033   -2.257445    0.277500
     14          1           0       -2.948830   -1.474045    1.540983
     15          1           0       -1.452163   -2.818895    0.106275
     16          1           0       -2.087111   -2.040154   -1.354414
     17          1           0        0.917485   -1.950120   -0.231014
     18          1           0        1.529096    2.295549    0.222004
     19          1           0       -0.955890    2.639931    0.190698
 ---------------------------------------------------------------------
                    Distance matrix (angstroms):
                    1          2          3          4          5
     1  O    0.000000
     2  C    1.199126   0.000000
     3  O    2.205141   1.345485   0.000000
     4  C    3.483700   2.395345   1.421341   0.000000
     5  C    4.050967   2.868949   2.433372   1.517093   0.000000
     6  C    3.613736   2.522903   2.835041   2.460401   1.504375
     7  C    4.779064   3.795710   4.228034   3.733485   2.548079
     8  C    5.010154   4.268664   5.038916   4.813519   3.812901
     9  Br   6.868872   6.157868   6.891306   6.525784   5.386531
    10  C    4.226276   3.775769   4.836122   4.982387   4.310996
    11  C    2.843290   2.491105   3.680007   4.113771   3.782962
    12  C    2.377085   1.497954   2.422251   2.748273   2.486455
    13  H    4.221147   3.257611   2.016466   1.097014   2.176867
    14  H    3.815322   2.787886   2.065578   1.104015   2.163337
    15  H    5.086821   3.890818   3.375159   2.156443   1.099872
    16  H    4.285031   3.215671   2.740220   2.155567   1.103529
    17  H    5.736622   4.681320   4.888798   4.135533   2.782082
    18  H    4.905231   4.651001   5.801714   6.033005   5.401576
    19  H    2.530430   2.663407   3.985124   4.705158   4.631942
                    6          7          8          9         10
     6  C    0.000000
     7  C    1.395013   0.000000
     8  C    2.409723   1.393317   0.000000
     9  Br   4.149580   2.843008   1.889259   0.000000
    10  C    2.807964   2.431856   1.396454   2.848304   0.000000
    11  C    2.427905   2.792738   2.399248   4.143364   1.389045
    12  C    1.401635   2.414902   2.771537   4.660780   2.417591
    13  H    3.430354   4.642984   5.813673   7.468387   6.050668
    14  H    2.763042   3.873768   4.850351   6.498073   4.998244
    15  H    2.161182   2.719370   4.087062   5.395549   4.848657
    16  H    2.145880   3.065654   4.297112   5.807163   4.792988
    17  H    2.161672   1.091653   2.158896   2.949926   3.417847
    18  H    3.898525   3.417360   2.162378   2.959984   1.090606
    19  H    3.406636   3.883897   3.399242   5.011991   2.163710
                   11         12         13         14         15
    11  C    0.000000
    12  C    1.397024   0.000000
    13  H    5.177350   3.796418   0.000000
    14  H    4.196479   2.989261   1.781805   0.000000
    15  H    4.553574   3.370245   2.547418   2.471239   0.000000
    16  H    4.256678   2.997561   2.471924   3.073494   1.772910
    17  H    3.884340   3.408576   4.884789   4.279604   2.546324
    18  H    2.160814   3.410502   7.109560   6.000114   5.921050
    19  H    1.091492   2.145701   5.730908   4.766537   5.481988
                   16         17         18         19
    16  H    0.000000
    17  H    3.209008   0.000000
    18  H    5.861772   4.313351   0.000000
    19  H    5.056701   4.975534   2.508931   0.000000
 Stoichiometry    C9H7BrO2(1-,2)
 Framework group  C1[X(C9H7BrO2)]
 Deg. of freedom    51
 Full point group                 C1      NOp   1
 Largest Abelian subgroup         C1      NOp   1
 Largest concise Abelian subgroup C1      NOp   1
                         Standard orientation:                         
 ---------------------------------------------------------------------
 Center     Atomic      Atomic             Coordinates (Angstroms)
 Number     Number       Type             X           Y           Z
 ---------------------------------------------------------------------
      1          8           0       -3.340682    1.893880   -0.208365
      2          6           0       -2.866008    0.801802   -0.067112
      3          8           0       -3.668340   -0.274690    0.020962
      4          6           0       -3.138147   -1.520211    0.454301
      5          6           0       -1.863093   -1.877194   -0.286221
      6          6           0       -0.877967   -0.749843   -0.138737
      7          6           0        0.503370   -0.944659   -0.134769
      8          6           0        1.352418    0.152077   -0.002033
      9         35           0        3.221316   -0.124081    0.013945
     10          6           0        0.849127    1.448810    0.121517
     11          6           0       -0.526696    1.639640    0.109666
     12          6           0       -1.390575    0.548660   -0.013426
     13          1           0       -3.931033   -2.257445    0.277500
     14          1           0       -2.948830   -1.474045    1.540983
     15          1           0       -1.452163   -2.818895    0.106275
     16          1           0       -2.087111   -2.040154   -1.354414
     17          1           0        0.917485   -1.950120   -0.231014
     18          1           0        1.529096    2.295549    0.222004
     19          1           0       -0.955890    2.639931    0.190698
 ---------------------------------------------------------------------
 Rotational constants (GHZ):           1.9368797           0.3200333           0.2775058
 Standard basis: def2SVP (5D, 7F)
 There are   235 symmetry adapted cartesian basis functions of A   symmetry.
 There are   221 symmetry adapted basis functions of A   symmetry.
   221 basis functions,   404 primitive gaussians,   235 cartesian basis functions
    57 alpha electrons       56 beta electrons
       nuclear repulsion energy       912.5256268404 Hartrees.
 NAtoms=   19 NActive=   19 NUniq=   19 SFac= 1.00D+00 NAtFMM=   60 NAOKFM=F Big=F
 Integral buffers will be    131072 words long.
 Raffenetti 2 integral format.
 Two-electron integral symmetry is turned on.
 Nuclear repulsion after empirical dispersion term =      912.5142630114 Hartrees.
 One-electron integrals computed using PRISM.
   1 Symmetry operations used in ECPInt.
 ECPInt:  NShTT=    4950 NPrTT=   19707 LenC2=    4733 LenP2D=   13980.
 LDataN:  DoStor=T MaxTD1= 4 Len=   56
 NBasis=   221 RedAO= T EigKep=  2.57D-04  NBF=   221
 NBsUse=   221 1.00D-06 EigRej= -1.00D+00 NBFU=   221
 ExpMin= 1.22D-01 ExpMax= 1.13D+05 ExpMxC= 1.70D+04 IAcc=3 IRadAn=         5 AccDes= 0.00D+00
 Harris functional with IExCor= 4639 and IRadAn=       5 diagonalized for initial guess.
 HarFok:  IExCor= 4639 AccDes= 0.00D+00 IRadAn=         5 IDoV= 1 UseB2=F ITyADJ=14
 ICtDFT=  3500011 ScaDFX=  1.000000  1.000000  1.000000  1.000000
 FoFCou: FMM=F IPFlag=           0 FMFlag=      100000 FMFlg1=           0
         NFxFlg=           0 DoJE=T BraDBF=F KetDBF=T FulRan=T
         wScrn=  0.000000 ICntrl=       500 IOpCl=  0 I1Cent=   200000004 NGrid=           0
         NMat0=    1 NMatS0=      1 NMatT0=    0 NMatD0=    1 NMtDS0=    0 NMtDT0=    0
 Petite list used in FoFCou.
 Initial guess <Sx>= 0.0000 <Sy>= 0.0000 <Sz>= 0.5000 <S**2>= 0.7500 S= 0.5000
 Requested convergence on RMS density matrix=1.00D-08 within 128 cycles.
 Requested convergence on MAX density matrix=1.00D-06.
 Requested convergence on             energy=1.00D-06.
 No special actions if energy rises.
 Integral accuracy reduced to 1.0D-05 until final iterations.
 Initial convergence to 1.0D-05 achieved.  Increase integral accuracy.
 SCF Done:  E(UwB97XD) =  -3071.01536758     A.U. after   29 cycles
            NFock= 29  Conv=0.89D-08     -V/T= 2.0024
 <Sx>= 0.0000 <Sy>= 0.0000 <Sz>= 0.5000 <S**2>= 0.7662 S= 0.5081
 <L.S>= 0.000000000000E+00
 Annihilation of the first spin contaminant:
 S**2 before annihilation     0.7662,   after     0.7502

 **********************************************************************

            Population analysis using the SCF Density.

 **********************************************************************

 Orbital symmetries:
 Alpha Orbitals:
       Occupied  (A) (A) (A) (A) (A) (A) (A) (A) (A) (A) (A) (A)
                 (A) (A) (A) (A) (A) (A) (A) (A) (A) (A) (A) (A)
                 (A) (A) (A) (A) (A) (A) (A) (A) (A) (A) (A) (A)
                 (A) (A) (A) (A) (A) (A) (A) (A) (A) (A) (A) (A)
                 (A) (A) (A) (A) (A) (A) (A) (A) (A)
       Virtual   (A) (A) (A) (A) (A) (A) (A) (A) (A) (A) (A) (A)
                 (A) (A) (A) (A) (A) (A) (A) (A) (A) (A) (A) (A)
                 (A) (A) (A) (A) (A) (A) (A) (A) (A) (A) (A) (A)
                 (A) (A) (A) (A) (A) (A) (A) (A) (A) (A) (A) (A)
                 (A) (A) (A) (A) (A) (A) (A) (A) (A) (A) (A) (A)
                 (A) (A) (A) (A) (A) (A) (A) (A) (A) (A) (A) (A)
                 (A) (A) (A) (A) (A) (A) (A) (A) (A) (A) (A) (A)
                 (A) (A) (A) (A) (A) (A) (A) (A) (A) (A) (A) (A)
                 (A) (A) (A) (A) (A) (A) (A) (A) (A) (A) (A) (A)
                 (A) (A) (A) (A) (A) (A) (A) (A) (A) (A) (A) (A)
                 (A) (A) (A) (A) (A) (A) (A) (A) (A) (A) (A) (A)
                 (A) (A) (A) (A) (A) (A) (A) (A) (A) (A) (A) (A)
                 (A) (A) (A) (A) (A) (A) (A) (A) (A) (A) (A) (A)
                 (A) (A) (A) (A) (A) (A) (A) (A)
 Beta  Orbitals:
       Occupied  (A) (A) (A) (A) (A) (A) (A) (A) (A) (A) (A) (A)
                 (A) (A) (A) (A) (A) (A) (A) (A) (A) (A) (A) (A)
                 (A) (A) (A) (A) (A) (A) (A) (A) (A) (A) (A) (A)
                 (A) (A) (A) (A) (A) (A) (A) (A) (A) (A) (A) (A)
                 (A) (A) (A) (A) (A) (A) (A) (A)
       Virtual   (A) (A) (A) (A) (A) (A) (A) (A) (A) (A) (A) (A)
                 (A) (A) (A) (A) (A) (A) (A) (A) (A) (A) (A) (A)
                 (A) (A) (A) (A) (A) (A) (A) (A) (A) (A) (A) (A)
                 (A) (A) (A) (A) (A) (A) (A) (A) (A) (A) (A) (A)
                 (A) (A) (A) (A) (A) (A) (A) (A) (A) (A) (A) (A)
                 (A) (A) (A) (A) (A) (A) (A) (A) (A) (A) (A) (A)
                 (A) (A) (A) (A) (A) (A) (A) (A) (A) (A) (A) (A)
                 (A) (A) (A) (A) (A) (A) (A) (A) (A) (A) (A) (A)
                 (A) (A) (A) (A) (A) (A) (A) (A) (A) (A) (A) (A)
                 (A) (A) (A) (A) (A) (A) (A) (A) (A) (A) (A) (A)
                 (A) (A) (A) (A) (A) (A) (A) (A) (A) (A) (A) (A)
                 (A) (A) (A) (A) (A) (A) (A) (A) (A) (A) (A) (A)
                 (A) (A) (A) (A) (A) (A) (A) (A) (A) (A) (A) (A)
                 (A) (A) (A) (A) (A) (A) (A) (A) (A)
 The electronic state is 2-A.
 Alpha  occ. eigenvalues -- -482.91266 -62.49467 -56.30200 -56.29899 -56.29896
 Alpha  occ. eigenvalues --  -19.13011 -19.04349 -10.23085 -10.22644 -10.17506
 Alpha  occ. eigenvalues --  -10.16836 -10.14726 -10.14668 -10.14492 -10.13158
 Alpha  occ. eigenvalues --  -10.11612  -8.66422  -6.48853  -6.47726  -6.47698
 Alpha  occ. eigenvalues --   -2.59256  -2.58924  -2.58903  -2.57997  -2.57997
 Alpha  occ. eigenvalues --   -1.02726  -0.93268  -0.80888  -0.76222  -0.72963
 Alpha  occ. eigenvalues --   -0.67978  -0.66602  -0.60562  -0.54976  -0.52829
 Alpha  occ. eigenvalues --   -0.48691  -0.46805  -0.43125  -0.42650  -0.38918
 Alpha  occ. eigenvalues --   -0.37219  -0.36681  -0.35279  -0.35129  -0.34192
 Alpha  occ. eigenvalues --   -0.32856  -0.30763  -0.30367  -0.26928  -0.25429
 Alpha  occ. eigenvalues --   -0.24571  -0.22798  -0.22262  -0.18069  -0.17894
 Alpha  occ. eigenvalues --   -0.16774   0.00417
 Alpha virt. eigenvalues --    0.21375   0.23458   0.25864   0.27551   0.30298
 Alpha virt. eigenvalues --    0.30934   0.32000   0.33144   0.34648   0.35765
 Alpha virt. eigenvalues --    0.37482   0.41000   0.42421   0.44867   0.47193
 Alpha virt. eigenvalues --    0.49868   0.51045   0.51463   0.54454   0.54652
 Alpha virt. eigenvalues --    0.57174   0.58193   0.60826   0.63123   0.64989
 Alpha virt. eigenvalues --    0.65401   0.67648   0.67854   0.68708   0.70177
 Alpha virt. eigenvalues --    0.70317   0.71108   0.72744   0.73560   0.74806
 Alpha virt. eigenvalues --    0.75224   0.76213   0.77291   0.77843   0.80936
 Alpha virt. eigenvalues --    0.82385   0.83634   0.84183   0.85209   0.85326
 Alpha virt. eigenvalues --    0.86517   0.87523   0.88470   0.89315   0.89887
 Alpha virt. eigenvalues --    0.90587   0.91104   0.92233   0.94178   0.95995
 Alpha virt. eigenvalues --    0.97120   0.97837   0.98514   0.99662   1.00788
 Alpha virt. eigenvalues --    1.02858   1.04832   1.06094   1.08192   1.09670
 Alpha virt. eigenvalues --    1.15980   1.18122   1.22427   1.25828   1.29944
 Alpha virt. eigenvalues --    1.30489   1.34247   1.35866   1.36863   1.39537
 Alpha virt. eigenvalues --    1.43607   1.46470   1.48261   1.49600   1.50470
 Alpha virt. eigenvalues --    1.51993   1.53816   1.56353   1.57807   1.61017
 Alpha virt. eigenvalues --    1.66710   1.71397   1.74974   1.76072   1.79724
 Alpha virt. eigenvalues --    1.81901   1.87068   1.90286   1.92523   1.94273
 Alpha virt. eigenvalues --    1.96085   1.96887   1.97799   1.98004   1.98942
 Alpha virt. eigenvalues --    1.99719   2.01146   2.02962   2.04424   2.06695
 Alpha virt. eigenvalues --    2.07336   2.08764   2.11164   2.12507   2.13683
 Alpha virt. eigenvalues --    2.16992   2.21225   2.22295   2.22784   2.25989
 Alpha virt. eigenvalues --    2.29281   2.31895   2.34652   2.37242   2.38284
 Alpha virt. eigenvalues --    2.42002   2.44576   2.49183   2.50982   2.52701
 Alpha virt. eigenvalues --    2.53856   2.55549   2.56079   2.59697   2.62662
 Alpha virt. eigenvalues --    2.68412   2.70999   2.77096   2.80954   2.81511
 Alpha virt. eigenvalues --    2.87900   2.88408   2.90268   2.91668   2.98020
 Alpha virt. eigenvalues --    2.98790   3.00271   3.03597   3.09601   3.10219
 Alpha virt. eigenvalues --    3.12655   3.17407   3.18523   3.21205   3.24570
 Alpha virt. eigenvalues --    3.30171   3.33737   3.42809   3.46873   3.52489
 Alpha virt. eigenvalues --    3.66898   3.67078   3.70615   3.75379   3.75480
 Alpha virt. eigenvalues --    3.87482   3.94956   3.95697   4.07134
  Beta  occ. eigenvalues -- -482.91266 -62.49464 -56.30206 -56.29898 -56.29882
  Beta  occ. eigenvalues --  -19.12957 -19.04023 -10.22957 -10.22637 -10.17518
  Beta  occ. eigenvalues --  -10.16342 -10.14742 -10.14573 -10.14564 -10.12979
  Beta  occ. eigenvalues --  -10.11367  -8.66419  -6.48866  -6.47725  -6.47677
  Beta  occ. eigenvalues --   -2.59262  -2.58930  -2.58890  -2.57987  -2.57986
  Beta  occ. eigenvalues --   -1.02471  -0.92691  -0.80353  -0.75875  -0.72703
  Beta  occ. eigenvalues --   -0.67658  -0.66036  -0.60439  -0.54037  -0.52503
  Beta  occ. eigenvalues --   -0.48436  -0.46627  -0.42807  -0.42347  -0.38555
  Beta  occ. eigenvalues --   -0.36781  -0.36377  -0.34924  -0.34841  -0.33369
  Beta  occ. eigenvalues --   -0.32262  -0.30158  -0.29519  -0.26669  -0.25171
  Beta  occ. eigenvalues --   -0.23735  -0.22766  -0.20979  -0.17388  -0.16659
  Beta  occ. eigenvalues --   -0.14157
  Beta virt. eigenvalues --    0.20448   0.21686   0.24062   0.26114   0.29626
  Beta virt. eigenvalues --    0.30522   0.32037   0.32112   0.33385   0.34805
  Beta virt. eigenvalues --    0.35896   0.37600   0.42475   0.43372   0.45055
  Beta virt. eigenvalues --    0.47512   0.50093   0.51175   0.51816   0.54588
  Beta virt. eigenvalues --    0.54948   0.57646   0.58399   0.60960   0.63274
  Beta virt. eigenvalues --    0.65187   0.65573   0.67840   0.68148   0.68894
  Beta virt. eigenvalues --    0.70346   0.70910   0.71801   0.72984   0.73777
  Beta virt. eigenvalues --    0.75187   0.75482   0.76475   0.77559   0.78127
  Beta virt. eigenvalues --    0.80989   0.82683   0.83795   0.84322   0.85254
  Beta virt. eigenvalues --    0.85398   0.86610   0.87788   0.88748   0.89614
  Beta virt. eigenvalues --    0.90364   0.90697   0.91250   0.92450   0.94496
  Beta virt. eigenvalues --    0.96173   0.97570   0.98260   0.98896   1.00318
  Beta virt. eigenvalues --    1.01270   1.03109   1.04960   1.06293   1.08468
  Beta virt. eigenvalues --    1.09976   1.16286   1.18253   1.22683   1.26000
  Beta virt. eigenvalues --    1.30130   1.30688   1.34900   1.36318   1.37211
  Beta virt. eigenvalues --    1.39755   1.43785   1.46720   1.48513   1.49786
  Beta virt. eigenvalues --    1.51106   1.52197   1.54111   1.56705   1.58064
  Beta virt. eigenvalues --    1.61660   1.66947   1.71917   1.75435   1.76289
  Beta virt. eigenvalues --    1.80082   1.82190   1.87381   1.90569   1.92764
  Beta virt. eigenvalues --    1.94424   1.96250   1.97181   1.98029   1.98467
  Beta virt. eigenvalues --    1.99214   2.00180   2.01465   2.03281   2.04717
  Beta virt. eigenvalues --    2.07092   2.07742   2.09026   2.11353   2.12680
  Beta virt. eigenvalues --    2.13924   2.17181   2.21519   2.22811   2.23314
  Beta virt. eigenvalues --    2.26275   2.29403   2.32221   2.35115   2.38177
  Beta virt. eigenvalues --    2.38609   2.42309   2.44900   2.49425   2.51596
  Beta virt. eigenvalues --    2.52978   2.54447   2.56373   2.56610   2.59992
  Beta virt. eigenvalues --    2.62889   2.68526   2.71348   2.77778   2.81229
  Beta virt. eigenvalues --    2.81896   2.88270   2.89191   2.90626   2.92375
  Beta virt. eigenvalues --    2.98248   2.99277   3.00816   3.03859   3.10044
  Beta virt. eigenvalues --    3.10422   3.12950   3.17554   3.18734   3.21375
  Beta virt. eigenvalues --    3.24717   3.30401   3.33871   3.42990   3.47862
  Beta virt. eigenvalues --    3.52722   3.67102   3.67165   3.70648   3.75463
  Beta virt. eigenvalues --    3.75658   3.87501   3.95183   3.96042   4.07160
          Condensed to atoms (all electrons):
               1          2          3          4          5          6
     1  O    7.714398   0.783956  -0.073578   0.002040  -0.000919   0.002333
     2  C    0.783956   4.636551   0.330848  -0.039085  -0.038439  -0.067283
     3  O   -0.073578   0.330848   8.030033   0.296178  -0.030919  -0.022564
     4  C    0.002040  -0.039085   0.296178   4.523811   0.322478  -0.024817
     5  C   -0.000919  -0.038439  -0.030919   0.322478   4.921255   0.312476
     6  C    0.002333  -0.067283  -0.022564  -0.024817   0.312476   5.313257
     7  C    0.000007   0.007267  -0.000051   0.006880  -0.070254   0.480818
     8  C   -0.000066  -0.000468  -0.000046  -0.000369   0.013683   0.052504
     9  Br   0.000000   0.000013  -0.000000   0.000002  -0.000209   0.003597
    10  C    0.001723   0.016745   0.000005  -0.000156  -0.000502  -0.114686
    11  C    0.018430  -0.054495   0.007312  -0.002492   0.017592   0.010768
    12  C   -0.168136   0.245821  -0.130393   0.002753  -0.080015   0.193714
    13  H   -0.000134   0.000512  -0.024819   0.368289  -0.019390   0.006462
    14  H    0.000351   0.003342  -0.037156   0.380105  -0.035571  -0.003776
    15  H    0.000013   0.001303   0.004143  -0.014643   0.343155  -0.016155
    16  H   -0.000065   0.005700  -0.000176  -0.025236   0.343753  -0.011394
    17  H    0.000002  -0.000142   0.000012   0.000723  -0.022024  -0.062018
    18  H   -0.000011  -0.000329   0.000001  -0.000000   0.000037  -0.001251
    19  H    0.017611  -0.012751   0.000645  -0.000048  -0.000369   0.016367
               7          8          9         10         11         12
     1  O    0.000007  -0.000066   0.000000   0.001723   0.018430  -0.168136
     2  C    0.007267  -0.000468   0.000013   0.016745  -0.054495   0.245821
     3  O   -0.000051  -0.000046  -0.000000   0.000005   0.007312  -0.130393
     4  C    0.006880  -0.000369   0.000002  -0.000156  -0.002492   0.002753
     5  C   -0.070254   0.013683  -0.000209  -0.000502   0.017592  -0.080015
     6  C    0.480818   0.052504   0.003597  -0.114686   0.010768   0.193714
     7  C    5.003871   0.276435  -0.053493   0.059649  -0.094667   0.018615
     8  C    0.276435   5.556849   0.155061   0.246396   0.059780  -0.129941
     9  Br  -0.053493   0.155061  35.137632  -0.051576   0.002599   0.001184
    10  C    0.059649   0.246396  -0.051576   5.074206   0.362759   0.044485
    11  C   -0.094667   0.059780   0.002599   0.362759   5.148162   0.219213
    12  C    0.018615  -0.129941   0.001184   0.044485   0.219213   5.989676
    13  H   -0.000529   0.000007  -0.000000  -0.000000   0.000116   0.002560
    14  H    0.001208  -0.000009   0.000000  -0.000015  -0.000775  -0.005545
    15  H   -0.010265   0.000378  -0.000026   0.000020  -0.000264   0.008541
    16  H   -0.000747  -0.000215   0.000004   0.000115  -0.000778  -0.008963
    17  H    0.431152  -0.078829  -0.000894   0.014189  -0.001760   0.017651
    18  H    0.013772  -0.080504  -0.001703   0.435937  -0.062796   0.014879
    19  H   -0.001594   0.015200  -0.000197  -0.079551   0.448385  -0.077129
              13         14         15         16         17         18
     1  O   -0.000134   0.000351   0.000013  -0.000065   0.000002  -0.000011
     2  C    0.000512   0.003342   0.001303   0.005700  -0.000142  -0.000329
     3  O   -0.024819  -0.037156   0.004143  -0.000176   0.000012   0.000001
     4  C    0.368289   0.380105  -0.014643  -0.025236   0.000723  -0.000000
     5  C   -0.019390  -0.035571   0.343155   0.343753  -0.022024   0.000037
     6  C    0.006462  -0.003776  -0.016155  -0.011394  -0.062018  -0.001251
     7  C   -0.000529   0.001208  -0.010265  -0.000747   0.431152   0.013772
     8  C    0.000007  -0.000009   0.000378  -0.000215  -0.078829  -0.080504
     9  Br  -0.000000   0.000000  -0.000026   0.000004  -0.000894  -0.001703
    10  C   -0.000000  -0.000015   0.000020   0.000115   0.014189   0.435937
    11  C    0.000116  -0.000775  -0.000264  -0.000778  -0.001760  -0.062796
    12  C    0.002560  -0.005545   0.008541  -0.008963   0.017651   0.014879
    13  H    0.727446  -0.042805  -0.000393  -0.012201   0.000004   0.000000
    14  H   -0.042805   0.728760  -0.006453   0.010072  -0.000064  -0.000001
    15  H   -0.000393  -0.006453   0.715771  -0.026218   0.006351  -0.000001
    16  H   -0.012201   0.010072  -0.026218   0.704891   0.000723  -0.000001
    17  H    0.000004  -0.000064   0.006351   0.000723   0.751212  -0.000326
    18  H    0.000000  -0.000001  -0.000001  -0.000001  -0.000326   0.734615
    19  H    0.000001   0.000021   0.000013   0.000012   0.000031  -0.012929
              19
     1  O    0.017611
     2  C   -0.012751
     3  O    0.000645
     4  C   -0.000048
     5  C   -0.000369
     6  C    0.016367
     7  C   -0.001594
     8  C    0.015200
     9  Br  -0.000197
    10  C   -0.079551
    11  C    0.448385
    12  C   -0.077129
    13  H    0.000001
    14  H    0.000021
    15  H    0.000013
    16  H    0.000012
    17  H    0.000031
    18  H   -0.012929
    19  H    0.710747
          Atomic-Atomic Spin Densities.
               1          2          3          4          5          6
     1  O    0.190603  -0.056102   0.003171   0.000354  -0.000332   0.001069
     2  C   -0.056102   0.107794  -0.014077  -0.000175   0.003009  -0.014413
     3  O    0.003171  -0.014077   0.029602   0.002766  -0.001294   0.002445
     4  C    0.000354  -0.000175   0.002766   0.094242  -0.090052   0.008334
     5  C   -0.000332   0.003009  -0.001294  -0.090052   0.078935  -0.012828
     6  C    0.001069  -0.014413   0.002445   0.008334  -0.012828   0.215862
     7  C    0.000019  -0.001029   0.000046  -0.000675   0.000717   0.064838
     8  C   -0.000012   0.000460  -0.000005   0.000280  -0.000379  -0.029246
     9  Br   0.000000  -0.000001   0.000000  -0.000001   0.000004   0.000379
    10  C    0.000037  -0.000882   0.000006  -0.000029  -0.000055   0.007916
    11  C    0.003863  -0.013940   0.000654  -0.002042   0.002341   0.011991
    12  C   -0.014364   0.085975  -0.008493  -0.000661   0.007990  -0.124304
    13  H    0.000004   0.000212   0.000151   0.000392  -0.000068  -0.000010
    14  H   -0.000065   0.000412  -0.000637   0.005394  -0.004855  -0.000483
    15  H    0.000000  -0.000018  -0.000043   0.003588  -0.002965   0.000555
    16  H   -0.000060   0.001061  -0.000707  -0.016071   0.018268  -0.012758
    17  H    0.000000  -0.000007  -0.000000   0.000154   0.000232  -0.000619
    18  H   -0.000000  -0.000001  -0.000000   0.000000  -0.000000  -0.000030
    19  H   -0.000228   0.000314  -0.000007  -0.000018   0.000031  -0.000175
               7          8          9         10         11         12
     1  O    0.000019  -0.000012   0.000000   0.000037   0.003863  -0.014364
     2  C   -0.001029   0.000460  -0.000001  -0.000882  -0.013940   0.085975
     3  O    0.000046  -0.000005   0.000000   0.000006   0.000654  -0.008493
     4  C   -0.000675   0.000280  -0.000001  -0.000029  -0.002042  -0.000661
     5  C    0.000717  -0.000379   0.000004  -0.000055   0.002341   0.007990
     6  C    0.064838  -0.029246   0.000379   0.007916   0.011991  -0.124304
     7  C   -0.039206  -0.086914   0.003758   0.004815   0.009057  -0.016269
     8  C   -0.086914   0.621247  -0.033390  -0.075001  -0.031771   0.020204
     9  Br   0.003758  -0.033390   0.023803   0.003238   0.000404  -0.000193
    10  C    0.004815  -0.075001   0.003238  -0.058261   0.055931  -0.014326
    11  C    0.009057  -0.031771   0.000404   0.055931   0.260871  -0.134469
    12  C   -0.016269   0.020204  -0.000193  -0.014326  -0.134469   0.417959
    13  H    0.000000   0.000001  -0.000000   0.000000  -0.000003  -0.000103
    14  H   -0.000148   0.000041  -0.000000  -0.000009  -0.000262   0.001760
    15  H    0.000004   0.000012   0.000000  -0.000004  -0.000010   0.000134
    16  H   -0.001669   0.000219  -0.000001  -0.000041   0.000033   0.004529
    17  H    0.001792  -0.000740   0.000238   0.000034  -0.000048  -0.000030
    18  H    0.000045  -0.000834   0.000226   0.001555  -0.000822   0.000142
    19  H   -0.000008  -0.000014   0.000001  -0.000189   0.005059  -0.001633
              13         14         15         16         17         18
     1  O    0.000004  -0.000065   0.000000  -0.000060   0.000000  -0.000000
     2  C    0.000212   0.000412  -0.000018   0.001061  -0.000007  -0.000001
     3  O    0.000151  -0.000637  -0.000043  -0.000707  -0.000000  -0.000000
     4  C    0.000392   0.005394   0.003588  -0.016071   0.000154   0.000000
     5  C   -0.000068  -0.004855  -0.002965   0.018268   0.000232  -0.000000
     6  C   -0.000010  -0.000483   0.000555  -0.012758  -0.000619  -0.000030
     7  C    0.000000  -0.000148   0.000004  -0.001669   0.001792   0.000045
     8  C    0.000001   0.000041   0.000012   0.000219  -0.000740  -0.000834
     9  Br  -0.000000  -0.000000   0.000000  -0.000001   0.000238   0.000226
    10  C    0.000000  -0.000009  -0.000004  -0.000041   0.000034   0.001555
    11  C   -0.000003  -0.000262  -0.000010   0.000033  -0.000048  -0.000822
    12  C   -0.000103   0.001760   0.000134   0.004529  -0.000030   0.000142
    13  H   -0.001811   0.000426   0.000140  -0.000122   0.000000   0.000000
    14  H    0.000426  -0.001558  -0.000015  -0.000326   0.000007   0.000000
    15  H    0.000140  -0.000015  -0.000128  -0.000784   0.000057   0.000000
    16  H   -0.000122  -0.000326  -0.000784   0.015040  -0.000150   0.000000
    17  H    0.000000   0.000007   0.000057  -0.000150   0.000311   0.000004
    18  H    0.000000   0.000000   0.000000   0.000000   0.000004   0.001242
    19  H   -0.000000  -0.000003  -0.000000   0.000002  -0.000001   0.000228
              19
     1  O   -0.000228
     2  C    0.000314
     3  O   -0.000007
     4  C   -0.000018
     5  C    0.000031
     6  C   -0.000175
     7  C   -0.000008
     8  C   -0.000014
     9  Br   0.000001
    10  C   -0.000189
    11  C    0.005059
    12  C   -0.001633
    13  H   -0.000000
    14  H   -0.000003
    15  H   -0.000000
    16  H    0.000002
    17  H   -0.000001
    18  H    0.000228
    19  H   -0.012565
 Mulliken charges and spin densities:
               1          2
     1  O   -0.297954   0.127958
     2  C    0.180931   0.098594
     3  O   -0.349476   0.013576
     4  C    0.203586   0.005778
     5  C    0.024183  -0.001302
     6  C   -0.068350   0.118523
     7  C   -0.068075  -0.060826
     8  C   -0.085845   0.384159
     9  Br  -0.191994  -0.001535
    10  C   -0.009744  -0.075266
    11  C   -0.077091   0.166835
    12  C   -0.158968   0.223850
    13  H   -0.005126  -0.000790
    14  H    0.008310  -0.000321
    15  H   -0.005269   0.000524
    16  H    0.020725   0.006462
    17  H   -0.055991   0.001234
    18  H   -0.039389   0.001755
    19  H   -0.024464  -0.009205
 Sum of Mulliken charges =  -1.00000   1.00000
 Mulliken charges and spin densities with hydrogens summed into heavy atoms:
               1          2
     1  O   -0.297954   0.127958
     2  C    0.180931   0.098594
     3  O   -0.349476   0.013576
     4  C    0.206770   0.004666
     5  C    0.039640   0.005683
     6  C   -0.068350   0.118523
     7  C   -0.124066  -0.059592
     8  C   -0.085845   0.384159
     9  Br  -0.191994  -0.001535
    10  C   -0.049133  -0.073511
    11  C   -0.101555   0.157630
    12  C   -0.158968   0.223850
 Electronic spatial extent (au):  <R**2>=           3472.0781
 Charge=             -1.0000 electrons
 Dipole moment (field-independent basis, Debye):
    X=              4.0406    Y=             -4.5416    Z=              0.6434  Tot=              6.1128
 Quadrupole moment (field-independent basis, Debye-Ang):
   XX=           -126.3917   YY=            -90.3011   ZZ=            -86.2937
   XY=             14.9684   XZ=             -2.3006   YZ=              0.8771
 Traceless Quadrupole moment (field-independent basis, Debye-Ang):
   XX=            -25.3962   YY=             10.6944   ZZ=             14.7018
   XY=             14.9684   XZ=             -2.3006   YZ=              0.8771
 Octapole moment (field-independent basis, Debye-Ang**2):
  XXX=            167.6002  YYY=            -18.1319  ZZZ=             -0.2285  XYY=             50.0678
  XXY=            -49.5110  XXZ=              7.8184  XZZ=             22.8107  YZZ=             -2.3271
  YYZ=              3.2150  XYZ=             -2.0094
 Hexadecapole moment (field-independent basis, Debye-Ang**3):
 XXXX=          -3621.7909 YYYY=           -811.3935 ZZZZ=           -124.5663 XXXY=            144.7585
 XXXZ=            -22.5286 YYYX=             34.8460 YYYZ=              2.5915 ZZZX=              2.9777
 ZZZY=             -2.7841 XXYY=           -725.5248 XXZZ=           -537.6254 YYZZ=           -157.9513
 XXYZ=              8.4815 YYXZ=             -7.1194 ZZXY=             -7.8499
 N-N= 9.125142630114D+02 E-N=-9.153654953849D+03  KE= 3.063705088123D+03
 There are a total of      434372 grid points.
 ElSum from          density=      112.9999911994
 ElSum from atomic densities=      111.9999845301
 Hirshfeld populations at iteration   1 (CA, CB, DipXYZ):
               1          2          3          4          5
     1  O    4.250067   4.127288   0.085341  -0.124172   0.017033
     2  C    2.991967   2.876647  -0.053285  -0.080825   0.010673
     3  O    4.102565   4.077509   0.170464  -0.032683   0.039123
     4  C    2.989272   2.982432  -0.011680   0.053500  -0.034355
     5  C    3.036839   3.026364  -0.008640   0.009142   0.013106
     6  C    3.072618   2.970952  -0.057428  -0.038665  -0.013795
     7  C    3.058842   3.041423   0.009403  -0.025429  -0.008614
     8  C    3.155066   2.917500   0.062781  -0.008159  -0.000644
     9  Br  17.602656  17.565741  -0.166714   0.028509  -0.001592
    10  C    3.052659   3.041314   0.024478   0.025234   0.001757
    11  C    3.103860   2.979637  -0.040296   0.019315  -0.005652
    12  C    3.136053   2.968674  -0.002183   0.004279  -0.011345
    13  H    0.488973   0.488896  -0.095142  -0.093979  -0.022170
    14  H    0.491355   0.489262   0.017252  -0.005737   0.129353
    15  H    0.490077   0.488179   0.047023  -0.114399   0.048291
    16  H    0.493768   0.486466  -0.027217  -0.021131  -0.129937
    17  H    0.495058   0.493583   0.039201  -0.129542  -0.013228
    18  H    0.493312   0.492311   0.073495   0.119798   0.013084
    19  H    0.494990   0.485818  -0.041234   0.132587   0.012385
       Tot  56.999996  55.999995   0.025620  -0.282357   0.043471

 Dip from Atomic Chgs              1.564071  -1.504468   0.209655
         Total Dipole              1.589691  -1.786826   0.253126

 Hirshfeld charges, spin densities, dipoles, and CM5 charges using IRadAn=      5:
              Q-H        S-H        Dx         Dy         Dz        Q-CM5   
     1  O   -0.377355   0.122780   0.085341  -0.124172   0.017033  -0.421534
     2  C    0.131386   0.115320  -0.053285  -0.080825   0.010673   0.192809
     3  O   -0.180074   0.025056   0.170464  -0.032683   0.039123  -0.257865
     4  C    0.028296   0.006841  -0.011680   0.053500  -0.034355  -0.049890
     5  C   -0.063203   0.010475  -0.008640   0.009142   0.013106  -0.161569
     6  C   -0.043571   0.101666  -0.057428  -0.038665  -0.013795  -0.054233
     7  C   -0.100264   0.017419   0.009403  -0.025429  -0.008614  -0.150638
     8  C   -0.072566   0.237566   0.062781  -0.008159  -0.000644  -0.093879
     9  Br  -0.168397   0.036915  -0.166714   0.028509  -0.001592  -0.153204
    10  C   -0.093973   0.011345   0.024478   0.025234   0.001757  -0.146507
    11  C   -0.083497   0.124223  -0.040296   0.019315  -0.005652  -0.133906
    12  C   -0.104727   0.167380  -0.002183   0.004279  -0.011345  -0.105791
    13  H    0.022131   0.000077  -0.095142  -0.093979  -0.022170   0.085066
    14  H    0.019383   0.002093   0.017252  -0.005737   0.129353   0.081864
    15  H    0.021744   0.001898   0.047023  -0.114399   0.048291   0.076698
    16  H    0.019766   0.007302  -0.027217  -0.021131  -0.129937   0.076062
    17  H    0.011359   0.001475   0.039201  -0.129542  -0.013228   0.067825
    18  H    0.014377   0.001001   0.073495   0.119798   0.013084   0.070167
    19  H    0.019192   0.009172  -0.041234   0.132587   0.012385   0.078534
       Tot  -0.999991   1.000001   0.025620  -0.282357   0.043471  -0.999991
 Hirshfeld charges and spin densities with hydrogens summed into heavy atoms:
              Q-H        S-H       Q-CM5   
     1  O   -0.377355   0.122780  -0.421534
     2  C    0.131386   0.115320   0.192809
     3  O   -0.180074   0.025056  -0.257865
     4  C    0.069811   0.009010   0.117040
     5  C   -0.021693   0.019675  -0.008809
     6  C   -0.043571   0.101666  -0.054233
     7  C   -0.088905   0.018894  -0.082813
     8  C   -0.072566   0.237566  -0.093879
     9  Br  -0.168397   0.036915  -0.153204
    10  C   -0.079595   0.012346  -0.076340
    11  C   -0.064305   0.133394  -0.055372
    12  C   -0.104727   0.167380  -0.105791
 
 EQQ= 0.938396137337E-01 EQD=-0.153109571016E-01 EDD=-0.100129905465E-03
 EQQ+QD+DD= 0.784285267266E-01
 
                          Isotropic Fermi Contact Couplings
        Atom                 a.u.       MegaHertz       Gauss      10(-4) cm-1
     1  O(17)              0.05233     -31.72158     -11.31905     -10.58118
     2  C(13)              0.00243       2.72884       0.97372       0.91024
     3  O(17)              0.00603      -3.65581      -1.30448      -1.21945
     4  C(13)              0.00045       0.51114       0.18239       0.17050
     5  C(13)             -0.00678      -7.62686      -2.72145      -2.54405
     6  C(13)              0.01442      16.20939       5.78391       5.40687
     7  C(13)             -0.02391     -26.88384      -9.59282      -8.96748
     8  C(13)              0.07772      87.37662      31.17815      29.14570
     9  Br(79)            -0.00239      -2.69091      -0.96018      -0.89759
    10  C(13)             -0.02699     -30.34256     -10.82698     -10.12119
    11  C(13)              0.01870      21.02535       7.50237       7.01330
    12  C(13)              0.01852      20.81847       7.42855       6.94429
    13  H(1)              -0.00027      -1.18540      -0.42298      -0.39541
    14  H(1)              -0.00026      -1.13983      -0.40672      -0.38020
    15  H(1)               0.00049       2.17874       0.77743       0.72675
    16  H(1)               0.00292      13.07079       4.66398       4.35995
    17  H(1)               0.00024       1.06579       0.38030       0.35551
    18  H(1)               0.00045       2.02731       0.72339       0.67624
    19  H(1)              -0.00262     -11.73304      -4.18664      -3.91372
 --------------------------------------------------------
       Center         ----  Spin Dipole Couplings  ----
                      3XX-RR        3YY-RR        3ZZ-RR
 --------------------------------------------------------
     1   Atom       -0.265032     -0.260362      0.525395
     2   Atom       -0.071220     -0.071644      0.142864
     3   Atom       -0.054937     -0.044934      0.099871
     4   Atom        0.002347      0.002161     -0.004508
     5   Atom        0.000828      0.003220     -0.004048
     6   Atom       -0.072338     -0.069350      0.141689
     7   Atom        0.018573      0.011467     -0.030040
     8   Atom       -0.209837     -0.221813      0.431650
     9   Atom       -0.305010     -0.024801      0.329812
    10   Atom        0.023469      0.020835     -0.044304
    11   Atom       -0.083381     -0.083511      0.166892
    12   Atom       -0.120697     -0.124852      0.245549
    13   Atom        0.000101      0.002114     -0.002215
    14   Atom       -0.000419      0.001259     -0.000841
    15   Atom       -0.002081      0.004768     -0.002687
    16   Atom       -0.000427      0.002583     -0.002155
    17   Atom        0.001916      0.002198     -0.004114
    18   Atom        0.003248      0.001247     -0.004495
    19   Atom       -0.005908      0.009580     -0.003672
 --------------------------------------------------------
                        XY            XZ            YZ
 --------------------------------------------------------
     1   Atom       -0.008843     -0.069807      0.115634
     2   Atom       -0.009894     -0.012682      0.027858
     3   Atom        0.002238      0.014683      0.035737
     4   Atom       -0.000399     -0.004446      0.002004
     5   Atom        0.000319     -0.000161      0.000789
     6   Atom       -0.003957      0.001437     -0.026681
     7   Atom        0.005244     -0.003315      0.002611
     8   Atom       -0.001204     -0.015642     -0.071797
     9   Atom        0.043577     -0.018459     -0.038384
    10   Atom       -0.006504      0.002480      0.005888
    11   Atom        0.003307     -0.010951     -0.032438
    12   Atom       -0.000502     -0.007536     -0.048271
    13   Atom        0.002573     -0.000401     -0.000196
    14   Atom        0.002265     -0.001648     -0.003565
    15   Atom        0.002214     -0.000151     -0.000466
    16   Atom        0.002215      0.001208      0.003428
    17   Atom       -0.001678     -0.000250      0.001234
    18   Atom        0.000572      0.000308      0.000568
    19   Atom       -0.008234     -0.000975      0.000954
 --------------------------------------------------------


 ---------------------------------------------------------------------------------
              Anisotropic Spin Dipole Couplings in Principal Axis System
 ---------------------------------------------------------------------------------

       Atom             a.u.   MegaHertz   Gauss  10(-4) cm-1        Axes

              Baa    -0.2773    20.062     7.159     6.692 -0.1910  0.9691 -0.1562
     1 O(17)  Bbb    -0.2709    19.601     6.994     6.538  0.9778  0.2018  0.0564
              Bcc     0.5481   -39.663   -14.153   -13.230 -0.0862  0.1420  0.9861
 
              Baa    -0.0820   -11.002    -3.926    -3.670  0.6366  0.7689 -0.0594
     2 C(13)  Bbb    -0.0653    -8.764    -3.127    -2.923  0.7686 -0.6263  0.1306
              Bcc     0.1473    19.766     7.053     6.593 -0.0633  0.1288  0.9897
 
              Baa    -0.0567     4.100     1.463     1.368  0.9429  0.2943 -0.1556
     3 O(17)  Bbb    -0.0529     3.826     1.365     1.276 -0.3206  0.9287 -0.1864
              Bcc     0.1095    -7.926    -2.828    -2.644  0.0897  0.2257  0.9701
 
              Baa    -0.0070    -0.938    -0.335    -0.313  0.4171 -0.1771  0.8914
     4 C(13)  Bbb     0.0019     0.253     0.090     0.084  0.4502  0.8923 -0.0333
              Bcc     0.0051     0.685     0.244     0.228  0.7895 -0.4152 -0.4519
 
              Baa    -0.0041    -0.556    -0.198    -0.185  0.0391 -0.1082  0.9934
     5 C(13)  Bbb     0.0008     0.107     0.038     0.036  0.9922 -0.1138 -0.0514
              Bcc     0.0033     0.448     0.160     0.150  0.1186  0.9876  0.1029
 
              Baa    -0.0763   -10.234    -3.652    -3.414  0.6920  0.7170  0.0832
     6 C(13)  Bbb    -0.0688    -9.227    -3.292    -3.078  0.7218 -0.6860 -0.0919
              Bcc     0.1450    19.461     6.944     6.492  0.0088 -0.1237  0.9923
 
              Baa    -0.0305    -4.090    -1.459    -1.364  0.0749 -0.0713  0.9946
     7 C(13)  Bbb     0.0091     1.216     0.434     0.406 -0.4543  0.8855  0.0976
              Bcc     0.0214     2.873     1.025     0.958  0.8877  0.4592 -0.0339
 
              Baa    -0.2300   -30.868   -11.014   -10.296  0.1439  0.9834  0.1101
     8 C(13)  Bbb    -0.2098   -28.151   -10.045    -9.390  0.9893 -0.1457  0.0078
              Bcc     0.4398    59.019    21.059    19.686 -0.0237 -0.1078  0.9939
 
              Baa    -0.3119   -41.834   -14.927   -13.954  0.9889 -0.1475  0.0196
     9 Br(79) Bbb    -0.0229    -3.068    -1.095    -1.024  0.1443  0.9829  0.1145
              Bcc     0.3348    44.903    16.022    14.978 -0.0362 -0.1104  0.9932
 
              Baa    -0.0450    -6.034    -2.153    -2.013 -0.0449 -0.0934  0.9946
    10 C(13)  Bbb     0.0161     2.165     0.773     0.722  0.6409  0.7610  0.1004
              Bcc     0.0288     3.869     1.381     1.291  0.7663 -0.6420 -0.0257
 
              Baa    -0.0884   -11.867    -4.234    -3.958 -0.3837  0.9180  0.1002
    11 C(13)  Bbb    -0.0831   -11.150    -3.979    -3.719  0.9224  0.3759  0.0892
              Bcc     0.1715    23.017     8.213     7.678 -0.0442 -0.1266  0.9910
 
              Baa    -0.1312   -17.612    -6.284    -5.875  0.1386  0.9820  0.1286
    12 C(13)  Bbb    -0.1206   -16.189    -5.777    -5.400  0.9902 -0.1400  0.0019
              Bcc     0.2519    33.800    12.061    11.275 -0.0199 -0.1270  0.9917
 
              Baa    -0.0023    -1.234    -0.440    -0.412  0.2956 -0.1298  0.9465
    13 H(1)   Bbb    -0.0016    -0.844    -0.301    -0.281  0.7705 -0.5533 -0.3165
              Bcc     0.0039     2.078     0.742     0.693  0.5648  0.8228 -0.0635
 
              Baa    -0.0035    -1.872    -0.668    -0.624 -0.0183  0.6044  0.7965
    14 H(1)   Bbb    -0.0018    -0.955    -0.341    -0.319  0.8978 -0.3406  0.2791
              Bcc     0.0053     2.827     1.009     0.943  0.4399  0.7202 -0.5364
 
              Baa    -0.0027    -1.463    -0.522    -0.488  0.8555 -0.2232  0.4672
    15 H(1)   Bbb    -0.0027    -1.446    -0.516    -0.482 -0.4339  0.1834  0.8821
              Bcc     0.0055     2.908     1.038     0.970  0.2826  0.9573 -0.0601
 
              Baa    -0.0040    -2.109    -0.753    -0.704 -0.0148 -0.4604  0.8876
    16 H(1)   Bbb    -0.0015    -0.804    -0.287    -0.268  0.9191 -0.3559 -0.1693
              Bcc     0.0055     2.914     1.040     0.972  0.3938  0.8132  0.4285
 
              Baa    -0.0043    -2.319    -0.828    -0.774 -0.0111 -0.1880  0.9821
    17 H(1)   Bbb     0.0005     0.245     0.087     0.082  0.7582  0.6388  0.1309
              Bcc     0.0039     2.075     0.740     0.692 -0.6520  0.7461  0.1354
 
              Baa    -0.0046    -2.432    -0.868    -0.811 -0.0324 -0.0942  0.9950
    18 H(1)   Bbb     0.0011     0.605     0.216     0.202 -0.2715  0.9589  0.0819
              Bcc     0.0034     1.827     0.652     0.610  0.9619  0.2675  0.0566
 
              Baa    -0.0095    -5.076    -1.811    -1.693  0.9162  0.3906  0.0892
    19 H(1)   Bbb    -0.0037    -1.985    -0.708    -0.662 -0.0524 -0.1037  0.9932
              Bcc     0.0132     7.061     2.519     2.355 -0.3972  0.9147  0.0745
 

 ---------------------------------------------------------------------------------

 Running external command "gaunbo6 R"
         input file       "/home/rpaton/arbr500/dzvp/fukui/Gau-1909710.EIn"
         output file      "/home/rpaton/arbr500/dzvp/fukui/Gau-1909710.EOu"
         message file     "/home/rpaton/arbr500/dzvp/fukui/Gau-1909710.EMs"
         fchk file        "/home/rpaton/arbr500/dzvp/fukui/Gau-1909710.EFC"
         mat. el file     "/home/rpaton/arbr500/dzvp/fukui/Gau-1909710.EUF"

 Writing WrtUnf unformatted file "/home/rpaton/arbr500/dzvp/fukui/Gau-1909710.EUF"
 Gaussian matrix elements                                         Version   2 NLab=11 Len12L=8 Len4L=8
 Write SHELL TO ATOM MAP                   from file      0 offset           0 length                  99 to matrix element file.
 Write SHELL TYPES                         from file      0 offset           0 length                  99 to matrix element file.
 Write NUMBER OF PRIMITIVES PER SHELL      from file      0 offset           0 length                  99 to matrix element file.
 Write PRIMITIVE EXPONENTS                 from file      0 offset           0 length                 197 to matrix element file.
 Write CONTRACTION COEFFICIENTS            from file      0 offset           0 length                 197 to matrix element file.
 Write P(S=P) CONTRACTION COEFFICIENTS     from file      0 offset           0 length                 197 to matrix element file.
 Write COORDINATES OF EACH SHELL           from file      0 offset           0 length                 297 to matrix element file.
 Write BONDS PER ATOM                      from file      0 offset           0 length                  19 to matrix element file.
 Write BONDED ATOMS                        from file      0 offset           0 length                  40 to matrix element file.
 Write BOND TYPES                          from file      0 offset           0 length                  40 to matrix element file.
 Write ONIOM CHARGE/MULT                   from file      0 offset           0 length                  32 to matrix element file.
 Write ONIOM ATOM LAYERS                   from file      0 offset           0 length                  19 to matrix element file.
 Write ONIOM ATOM MODIFIERS                from file      0 offset           0 length                  19 to matrix element file.
 Write ONIOM ATOM TYPES                    from file      0 offset           0 length                  19 to matrix element file.
 Write ONIOM LINK ATOMS                    from file      0 offset           0 length                  19 to matrix element file.
 Write ONIOM LINK CHARGES                  from file      0 offset           0 length                  19 to matrix element file.
 Write ONIOM LINK DISTANCES                from file      0 offset           0 length                  76 to matrix element file.
 Write SYMINF INTS                         from file      0 offset           0 length                  26 to matrix element file.
 Write ROTTR TO SO                         from file      0 offset           0 length                  12 to matrix element file.
 Write GAUSSIAN SCALARS                    from file    501 offset           0 to matrix element file.
 Write OPTIMIZATION FLAGS                  from file      0 offset           0 length                  19 to matrix element file.
 Write INTEGER ISO                         from file      0 offset           0 length                  19 to matrix element file.
 Write INTEGER SPIN                        from file      0 offset           0 length                  19 to matrix element file.
 Write REAL ZEFFECTIVE                     from file      0 offset           0 length                  19 to matrix element file.
 Write REAL QUADRUPOLEMOMENT               from file      0 offset           0 length                  19 to matrix element file.
 Write REAL GFACTOR                        from file      0 offset           0 length                  19 to matrix element file.
 Write REAL ZNUCLEAR                       from file      0 offset           0 length                  19 to matrix element file.
 Write MULLIKEN CHARGES                    from file      0 offset           0 length                  19 to matrix element file.
 Write TYPE 6 CHARGES                      from file      0 offset           0 length                  19 to matrix element file.
 Write TYPE 7 CHARGES                      from file      0 offset           0 length                  19 to matrix element file.
 Write NUCLEAR GRADIENT                    from file  10584 offset           0 length                  57 to matrix element file.
 Array NUCLEAR FORCE CONSTANTS              on  file  10585 does not exist.
 Write ELECTRIC DIPOLE MOMENT              from file      0 offset           0 length                   3 to matrix element file.
 Write NON-ADIABATIC COUPLING              from file  10810 offset           0 length                  57 to matrix element file.
 Write FINITE EM FIELD                     from file  10521 offset           0 length                  35 to matrix element file.
 Write OVERLAP                             from file  10514 offset           0 length               24531 to matrix element file.
 Write CORE HAMILTONIAN ALPHA              from file  10515 offset           0 length               24531 to matrix element file.
 Write CORE HAMILTONIAN BETA               from file  10515 offset       24531 length               24531 to matrix element file.
 Write KINETIC ENERGY                      from file  10516 offset           0 length               24531 to matrix element file.
 Write ORTHOGONAL BASIS                    from file  10685 offset           0 length               48841 to matrix element file.
 Write DIPOLE INTEGRALS                    from file  10518 offset           0 length               73593 to matrix element file.
 Array DIP VEL INTEGRALS                    on  file  10572 does not exist.
 Array R X DEL INTEGRALS                    on  file  10572 does not exist.
 Write ALPHA ORBITAL ENERGIES              from file      0 offset           0 length                 221 to matrix element file.
 Write BETA ORBITAL ENERGIES               from file      0 offset           0 length                 221 to matrix element file.
 Write ALPHA MO COEFFICIENTS               from file  10524 offset           0 length               48841 to matrix element file.
 Write BETA MO COEFFICIENTS                from file  10526 offset           0 length               48841 to matrix element file.
 Write ALPHA DENSITY MATRIX                from file      0 offset           0 length               24531 to matrix element file.
 Write BETA DENSITY MATRIX                 from file      0 offset           0 length               24531 to matrix element file.
 Write ALPHA FOCK MATRIX                   from file  10536 offset           0 length               24531 to matrix element file.
 Write BETA FOCK MATRIX                    from file  10538 offset           0 length               24531 to matrix element file.
 Write ENERGY-WEIGHTED DENSITY             from file  10571 offset           0 length               24531 to matrix element file.
 Write ALPHA SCF DENSITY MATRIX            from file      0 offset           0 length               24531 to matrix element file.
 Write BETA SCF DENSITY MATRIX             from file      0 offset           0 length               24531 to matrix element file.
 No 2e integrals to process.
 Perform NBO analysis...

 *********************************** NBO 7.0 ***********************************
             N A T U R A L   A T O M I C   O R B I T A L   A N D
          N A T U R A L   B O N D   O R B I T A L   A N A L Y S I S
 **************************** Robert Paton (I101709) ***************************
  (c) Copyright 1996-2019 Board of Regents of the University of Wisconsin System
      on behalf of the Theoretical Chemistry Institute.  All rights reserved.

          Cite this program [NBO 7.0.5 (4-Jun-2019)] as:

          NBO 7.0.  E. D. Glendening, J. K. Badenhoop, A. E. Reed,
          J. E. Carpenter, J. A. Bohmann, C. M. Morales, P. Karafiloglou,
          C. R. Landis, and F. Weinhold, Theoretical Chemistry Institute,
          University of Wisconsin, Madison, WI (2018)

 Filename set to /home/rpaton/arbr500/dzvp/fukui/Gau-1909710

 Job title:  arbr32_wb97xd_redcreated by GaussianPrep


 NATURAL POPULATIONS:  Natural atomic orbital occupancies

  NAO Atom No lang   Type(AO)    Occupancy     Spin
 -----------------------------------------------------
   1    O  1  s      Cor( 1s)     1.99995     0.00000
   2    O  1  s      Val( 2s)     1.67960     0.00250
   3    O  1  s      Ryd( 3s)     0.00142    -0.00001
   4    O  1  px     Val( 2p)     1.81540     0.00104
   5    O  1  px     Ryd( 3p)     0.00178    -0.00001
   6    O  1  py     Val( 2p)     1.65282     0.00223
   7    O  1  py     Ryd( 3p)     0.00114     0.00001
   8    O  1  pz     Val( 2p)     1.54270     0.12403
   9    O  1  pz     Ryd( 3p)     0.00174     0.00117
  10    O  1  dxy    Ryd( 3d)     0.00238    -0.00001
  11    O  1  dxz    Ryd( 3d)     0.00043    -0.00002
  12    O  1  dyz    Ryd( 3d)     0.00208    -0.00007
  13    O  1  dx2y2  Ryd( 3d)     0.00250    -0.00001
  14    O  1  dz2    Ryd( 3d)     0.00090     0.00000

  15    C  2  s      Cor( 1s)     1.99994     0.00000
  16    C  2  s      Val( 2s)     0.72292     0.00158
  17    C  2  s      Ryd( 3s)     0.00668    -0.00001
  18    C  2  px     Val( 2p)     0.87476    -0.00243
  19    C  2  px     Ryd( 3p)     0.01323    -0.00009
  20    C  2  py     Val( 2p)     0.68953     0.00061
  21    C  2  py     Ryd( 3p)     0.01636    -0.00009
  22    C  2  pz     Val( 2p)     0.87599     0.11110
  23    C  2  pz     Ryd( 3p)     0.00283     0.00080
  24    C  2  dxy    Ryd( 3d)     0.00429    -0.00002
  25    C  2  dxz    Ryd( 3d)     0.00190     0.00062
  26    C  2  dyz    Ryd( 3d)     0.00362     0.00012
  27    C  2  dx2y2  Ryd( 3d)     0.00370    -0.00002
  28    C  2  dz2    Ryd( 3d)     0.00102    -0.00006

  29    O  3  s      Cor( 1s)     1.99995     0.00000
  30    O  3  s      Val( 2s)     1.58641     0.00031
  31    O  3  s      Ryd( 3s)     0.00129    -0.00001
  32    O  3  px     Val( 2p)     1.78399    -0.00137
  33    O  3  px     Ryd( 3p)     0.00228     0.00002
  34    O  3  py     Val( 2p)     1.42320     0.00046
  35    O  3  py     Ryd( 3p)     0.00085     0.00000
  36    O  3  pz     Val( 2p)     1.81230     0.01695
  37    O  3  pz     Ryd( 3p)     0.00172     0.00006
  38    O  3  dxy    Ryd( 3d)     0.00185    -0.00001
  39    O  3  dxz    Ryd( 3d)     0.00119    -0.00001
  40    O  3  dyz    Ryd( 3d)     0.00039     0.00003
  41    O  3  dx2y2  Ryd( 3d)     0.00091     0.00000
  42    O  3  dz2    Ryd( 3d)     0.00081     0.00000

  43    C  4  s      Cor( 1s)     1.99994     0.00000
  44    C  4  s      Val( 2s)     0.99408     0.00035
  45    C  4  s      Ryd( 3s)     0.00174     0.00039
  46    C  4  px     Val( 2p)     1.06550     0.00284
  47    C  4  px     Ryd( 3p)     0.00563     0.00049
  48    C  4  py     Val( 2p)     0.83689    -0.00019
  49    C  4  py     Ryd( 3p)     0.00486    -0.00001
  50    C  4  pz     Val( 2p)     1.12956     0.00070
  51    C  4  pz     Ryd( 3p)     0.00139     0.00002
  52    C  4  dxy    Ryd( 3d)     0.00179     0.00000
  53    C  4  dxz    Ryd( 3d)     0.00076     0.00000
  54    C  4  dyz    Ryd( 3d)     0.00121     0.00000
  55    C  4  dx2y2  Ryd( 3d)     0.00125     0.00000
  56    C  4  dz2    Ryd( 3d)     0.00151     0.00000

  57    C  5  s      Cor( 1s)     1.99994     0.00000
  58    C  5  s      Val( 2s)     1.01164    -0.00091
  59    C  5  s      Ryd( 3s)     0.00130     0.00015
  60    C  5  px     Val( 2p)     1.08894    -0.00021
  61    C  5  px     Ryd( 3p)     0.00362     0.00035
  62    C  5  py     Val( 2p)     1.16296    -0.00164
  63    C  5  py     Ryd( 3p)     0.00317     0.00014
  64    C  5  pz     Val( 2p)     1.19365    -0.00129
  65    C  5  pz     Ryd( 3p)     0.00147    -0.00002
  66    C  5  dxy    Ryd( 3d)     0.00072     0.00000
  67    C  5  dxz    Ryd( 3d)     0.00079     0.00008
  68    C  5  dyz    Ryd( 3d)     0.00056     0.00003
  69    C  5  dx2y2  Ryd( 3d)     0.00062     0.00000
  70    C  5  dz2    Ryd( 3d)     0.00087     0.00000

  71    C  6  s      Cor( 1s)     1.99996     0.00000
  72    C  6  s      Val( 2s)     0.83438     0.00346
  73    C  6  s      Ryd( 3s)     0.00141     0.00001
  74    C  6  px     Val( 2p)     1.08010     0.00178
  75    C  6  px     Ryd( 3p)     0.00422     0.00004
  76    C  6  py     Val( 2p)     1.07303     0.00205
  77    C  6  py     Ryd( 3p)     0.00435     0.00003
  78    C  6  pz     Val( 2p)     1.05323     0.10104
  79    C  6  pz     Ryd( 3p)     0.00418     0.00132
  80    C  6  dxy    Ryd( 3d)     0.00090    -0.00001
  81    C  6  dxz    Ryd( 3d)     0.00089     0.00024
  82    C  6  dyz    Ryd( 3d)     0.00073     0.00013
  83    C  6  dx2y2  Ryd( 3d)     0.00086     0.00000
  84    C  6  dz2    Ryd( 3d)     0.00060    -0.00007

  85    C  7  s      Cor( 1s)     1.99995     0.00000
  86    C  7  s      Val( 2s)     0.91608    -0.00387
  87    C  7  s      Ryd( 3s)     0.00141     0.00005
  88    C  7  px     Val( 2p)     1.09849    -0.00589
  89    C  7  px     Ryd( 3p)     0.00476     0.00010
  90    C  7  py     Val( 2p)     1.17460    -0.00410
  91    C  7  py     Ryd( 3p)     0.00639     0.00004
  92    C  7  pz     Val( 2p)     1.06698    -0.01907
  93    C  7  pz     Ryd( 3p)     0.00359     0.00239
  94    C  7  dxy    Ryd( 3d)     0.00091    -0.00002
  95    C  7  dxz    Ryd( 3d)     0.00098     0.00052
  96    C  7  dyz    Ryd( 3d)     0.00044     0.00007
  97    C  7  dx2y2  Ryd( 3d)     0.00071     0.00001
  98    C  7  dz2    Ryd( 3d)     0.00066     0.00000

  99    C  8  s      Cor( 1s)     1.99996     0.00000
 100    C  8  s      Val( 2s)     0.89900     0.01562
 101    C  8  s      Ryd( 3s)     0.00091     0.00002
 102    C  8  px     Val( 2p)     0.92398     0.01198
 103    C  8  px     Ryd( 3p)     0.00614     0.00002
 104    C  8  py     Val( 2p)     1.10550     0.01129
 105    C  8  py     Ryd( 3p)     0.00573     0.00003
 106    C  8  pz     Val( 2p)     1.26608     0.29702
 107    C  8  pz     Ryd( 3p)     0.00411     0.00300
 108    C  8  dxy    Ryd( 3d)     0.00111     0.00000
 109    C  8  dxz    Ryd( 3d)     0.00074     0.00001
 110    C  8  dyz    Ryd( 3d)     0.00069    -0.00010
 111    C  8  dx2y2  Ryd( 3d)     0.00183     0.00002
 112    C  8  dz2    Ryd( 3d)     0.00093    -0.00021

 113   Br  9  s      Cor( 1s)     2.00000     0.00000
 114   Br  9  s      Cor( 2s)     2.00000     0.00000
 115   Br  9  s      Cor( 3s)     2.00000     0.00000
 116   Br  9  s      Val( 4s)     1.83918     0.00048
 117   Br  9  s      Ryd( 5s)     0.00305     0.00014
 118   Br  9  px     Cor( 2p)     2.00000     0.00000
 119   Br  9  px     Cor( 3p)     2.00000     0.00000
 120   Br  9  px     Val( 4p)     1.26017    -0.01688
 121   Br  9  px     Ryd( 5p)     0.00277     0.00006
 122   Br  9  py     Cor( 2p)     2.00000     0.00000
 123   Br  9  py     Cor( 3p)     2.00000     0.00000
 124   Br  9  py     Val( 4p)     1.96446    -0.00005
 125   Br  9  py     Ryd( 5p)     0.00116     0.00003
 126   Br  9  pz     Cor( 2p)     2.00000     0.00000
 127   Br  9  pz     Cor( 3p)     2.00000     0.00000
 128   Br  9  pz     Val( 4p)     1.96719     0.01859
 129   Br  9  pz     Ryd( 5p)     0.00171     0.00079
 130   Br  9  dxy    Cor( 3d)     2.00000     0.00000
 131   Br  9  dxy    Ryd( 4d)     0.00126     0.00000
 132   Br  9  dxy    Ryd( 5d)     0.00000     0.00000
 133   Br  9  dxz    Cor( 3d)     2.00000     0.00000
 134   Br  9  dxz    Ryd( 4d)     0.00455     0.00203
 135   Br  9  dxz    Ryd( 5d)     0.00000     0.00000
 136   Br  9  dyz    Cor( 3d)     2.00000     0.00000
 137   Br  9  dyz    Ryd( 4d)     0.00016     0.00005
 138   Br  9  dyz    Ryd( 5d)     0.00000     0.00000
 139   Br  9  dx2y2  Cor( 3d)     1.99999     0.00000
 140   Br  9  dx2y2  Ryd( 4d)     0.00469    -0.00003
 141   Br  9  dx2y2  Ryd( 5d)     0.00000     0.00000
 142   Br  9  dz2    Cor( 3d)     2.00000     0.00000
 143   Br  9  dz2    Ryd( 4d)     0.00170     0.00001
 144   Br  9  dz2    Ryd( 5d)     0.00000     0.00000

 145    C 10  s      Cor( 1s)     1.99995     0.00000
 146    C 10  s      Val( 2s)     0.92973    -0.00454
 147    C 10  s      Ryd( 3s)     0.00114     0.00004
 148    C 10  px     Val( 2p)     1.12990    -0.00519
 149    C 10  px     Ryd( 3p)     0.00588     0.00012
 150    C 10  py     Val( 2p)     1.14179    -0.00608
 151    C 10  py     Ryd( 3p)     0.00503     0.00003
 152    C 10  pz     Val( 2p)     1.05183    -0.03053
 153    C 10  pz     Ryd( 3p)     0.00314     0.00193
 154    C 10  dxy    Ryd( 3d)     0.00088    -0.00001
 155    C 10  dxz    Ryd( 3d)     0.00082     0.00037
 156    C 10  dyz    Ryd( 3d)     0.00062     0.00020
 157    C 10  dx2y2  Ryd( 3d)     0.00081     0.00000
 158    C 10  dz2    Ryd( 3d)     0.00065     0.00001

 159    C 11  s      Cor( 1s)     1.99995     0.00000
 160    C 11  s      Val( 2s)     0.92137     0.00475
 161    C 11  s      Ryd( 3s)     0.00116     0.00001
 162    C 11  px     Val( 2p)     1.07692     0.00192
 163    C 11  px     Ryd( 3p)     0.00522     0.00002
 164    C 11  py     Val( 2p)     1.17523     0.00378
 165    C 11  py     Ryd( 3p)     0.00612     0.00006
 166    C 11  pz     Val( 2p)     1.03845     0.13732
 167    C 11  pz     Ryd( 3p)     0.00501     0.00423
 168    C 11  dxy    Ryd( 3d)     0.00086    -0.00002
 169    C 11  dxz    Ryd( 3d)     0.00087     0.00027
 170    C 11  dyz    Ryd( 3d)     0.00040    -0.00002
 171    C 11  dx2y2  Ryd( 3d)     0.00078     0.00001
 172    C 11  dz2    Ryd( 3d)     0.00059    -0.00008

 173    C 12  s      Cor( 1s)     1.99996     0.00000
 174    C 12  s      Val( 2s)     0.86227     0.00490
 175    C 12  s      Ryd( 3s)     0.00270     0.00014
 176    C 12  px     Val( 2p)     1.11721    -0.00073
 177    C 12  px     Ryd( 3p)     0.00510     0.00007
 178    C 12  py     Val( 2p)     1.10247     0.00338
 179    C 12  py     Ryd( 3p)     0.00432     0.00001
 180    C 12  pz     Val( 2p)     1.19914     0.18927
 181    C 12  pz     Ryd( 3p)     0.00576     0.00457
 182    C 12  dxy    Ryd( 3d)     0.00076    -0.00002
 183    C 12  dxz    Ryd( 3d)     0.00083     0.00049
 184    C 12  dyz    Ryd( 3d)     0.00050    -0.00004
 185    C 12  dx2y2  Ryd( 3d)     0.00092     0.00000
 186    C 12  dz2    Ryd( 3d)     0.00061    -0.00012

 187    H 13  s      Val( 1s)     0.80509    -0.00054
 188    H 13  s      Ryd( 2s)     0.00181    -0.00002
 189    H 13  px     Ryd( 2p)     0.00060     0.00000
 190    H 13  py     Ryd( 2p)     0.00043     0.00000
 191    H 13  pz     Ryd( 2p)     0.00013     0.00000

 192    H 14  s      Val( 1s)     0.81120     0.00012
 193    H 14  s      Ryd( 2s)     0.00323     0.00012
 194    H 14  px     Ryd( 2p)     0.00013     0.00000
 195    H 14  py     Ryd( 2p)     0.00009     0.00000
 196    H 14  pz     Ryd( 2p)     0.00101     0.00000

 197    H 15  s      Val( 1s)     0.77717     0.00041
 198    H 15  s      Ryd( 2s)     0.00211    -0.00004
 199    H 15  px     Ryd( 2p)     0.00025     0.00001
 200    H 15  py     Ryd( 2p)     0.00064     0.00000
 201    H 15  pz     Ryd( 2p)     0.00021     0.00000

 202    H 16  s      Val( 1s)     0.77673     0.00742
 203    H 16  s      Ryd( 2s)     0.00365     0.00044
 204    H 16  px     Ryd( 2p)     0.00011     0.00000
 205    H 16  py     Ryd( 2p)     0.00009     0.00000
 206    H 16  pz     Ryd( 2p)     0.00091     0.00001

 207    H 17  s      Val( 1s)     0.78499     0.00081
 208    H 17  s      Ryd( 2s)     0.00198     0.00002
 209    H 17  px     Ryd( 2p)     0.00019     0.00000
 210    H 17  py     Ryd( 2p)     0.00079     0.00000
 211    H 17  pz     Ryd( 2p)     0.00024     0.00000

 212    H 18  s      Val( 1s)     0.78299     0.00126
 213    H 18  s      Ryd( 2s)     0.00179     0.00001
 214    H 18  px     Ryd( 2p)     0.00041     0.00000
 215    H 18  py     Ryd( 2p)     0.00057     0.00000
 216    H 18  pz     Ryd( 2p)     0.00023    -0.00001

 217    H 19  s      Val( 1s)     0.76975    -0.00532
 218    H 19  s      Ryd( 2s)     0.00290    -0.00006
 219    H 19  px     Ryd( 2p)     0.00029    -0.00001
 220    H 19  py     Ryd( 2p)     0.00077    -0.00001
 221    H 19  pz     Ryd( 2p)     0.00020     0.00006


 Summary of Natural Population Analysis:

                                     Natural Population                 Natural
             Natural    ---------------------------------------------    Spin
  Atom No    Charge        Core      Valence    Rydberg      Total      Density
 -------------------------------------------------------------------------------
    O  1   -0.70485      1.99995     6.69052    0.01438     8.70485     0.13085
    C  2    0.78323      1.99994     3.16319    0.05363     5.21677     0.11211
    O  3   -0.61713      1.99995     6.60589    0.01128     8.61713     0.01641
    C  4   -0.04610      1.99994     4.02603    0.02013     6.04610     0.00459
    C  5   -0.47023      1.99994     4.45719    0.01311     6.47023    -0.00333
    C  6   -0.05884      1.99996     4.04074    0.01814     6.05884     0.11003
    C  7   -0.27596      1.99995     4.25615    0.01986     6.27596    -0.02977
    C  8   -0.21672      1.99996     4.19456    0.02220     6.21672     0.33868
   Br  9   -0.05206     27.99997     7.03101    0.02108    35.05206     0.00521
    C 10   -0.27216      1.99995     4.25324    0.01896     6.27216    -0.04365
    C 11   -0.23294      1.99995     4.21198    0.02102     6.23294     0.15224
    C 12   -0.30255      1.99996     4.28109    0.02151     6.30255     0.20194
    H 13    0.19193      0.00000     0.80509    0.00298     0.80807    -0.00057
    H 14    0.18434      0.00000     0.81120    0.00446     0.81566     0.00024
    H 15    0.21963      0.00000     0.77717    0.00320     0.78037     0.00038
    H 16    0.21851      0.00000     0.77673    0.00476     0.78149     0.00788
    H 17    0.21180      0.00000     0.78499    0.00320     0.78820     0.00083
    H 18    0.21401      0.00000     0.78299    0.00300     0.78599     0.00126
    H 19    0.22609      0.00000     0.76975    0.00416     0.77391    -0.00534
 ===============================================================================
 * Total * -1.00000     49.99944    62.71950    0.28106   113.00000     1.00000

                                 Natural Population
 ---------------------------------------------------------
   Core                      49.99944 ( 99.9989% of   50)
   Valence                   62.71950 ( 99.5548% of   63)
   Natural Minimal Basis    112.71894 ( 99.7513% of  113)
   Natural Rydberg Basis      0.28106 (  0.2487% of  113)
 ---------------------------------------------------------

    Atom No         Natural Electron Configuration
 ----------------------------------------------------------------------------
      O  1      [core]2s( 1.68)2p( 5.01)3d( 0.01)
      C  2      [core]2s( 0.72)2p( 2.44)3s( 0.01)3p( 0.03)3d( 0.01)
      O  3      [core]2s( 1.59)2p( 5.02)3d( 0.01)
      C  4      [core]2s( 0.99)2p( 3.03)3p( 0.01)3d( 0.01)
      C  5      [core]2s( 1.01)2p( 3.45)3p( 0.01)
      C  6      [core]2s( 0.83)2p( 3.21)3p( 0.01)
      C  7      [core]2s( 0.92)2p( 3.34)3p( 0.01)
      C  8      [core]2s( 0.90)2p( 3.30)3p( 0.02)3d( 0.01)
     Br  9      [core]4s( 1.84)4p( 5.19)4d( 0.01)5p( 0.01)
      C 10      [core]2s( 0.93)2p( 3.32)3p( 0.01)
      C 11      [core]2s( 0.92)2p( 3.29)3p( 0.02)
      C 12      [core]2s( 0.86)2p( 3.42)3p( 0.02)
      H 13            1s( 0.81)
      H 14            1s( 0.81)
      H 15            1s( 0.78)
      H 16            1s( 0.78)
      H 17            1s( 0.78)
      H 18            1s( 0.78)
      H 19            1s( 0.77)


 ***************************************************
 *******         Alpha spin orbitals         *******
 ***************************************************


 NATURAL POPULATIONS:  Natural atomic orbital occupancies

  NAO Atom No lang   Type(AO)    Occupancy      Energy
 -------------------------------------------------------
   1    O  1  s      Cor( 1s)     0.99998     -19.04233
   2    O  1  s      Val( 2s)     0.84105      -0.52586
   3    O  1  s      Ryd( 3s)     0.00071       1.80779
   4    O  1  px     Val( 2p)     0.90822      -0.14794
   5    O  1  px     Ryd( 3p)     0.00089       1.46852
   6    O  1  py     Val( 2p)     0.82753      -0.16254
   7    O  1  py     Ryd( 3p)     0.00058       1.37128
   8    O  1  pz     Val( 2p)     0.83336      -0.13682
   9    O  1  pz     Ryd( 3p)     0.00146       1.34864
  10    O  1  dxy    Ryd( 3d)     0.00118       3.33881
  11    O  1  dxz    Ryd( 3d)     0.00021       2.95437
  12    O  1  dyz    Ryd( 3d)     0.00100       3.09423
  13    O  1  dx2y2  Ryd( 3d)     0.00125       3.30680
  14    O  1  dz2    Ryd( 3d)     0.00045       3.11485

  15    C  2  s      Cor( 1s)     0.99997     -10.22999
  16    C  2  s      Val( 2s)     0.36225       0.15664
  17    C  2  s      Ryd( 3s)     0.00334       0.80366
  18    C  2  px     Val( 2p)     0.43617       0.20070
  19    C  2  px     Ryd( 3p)     0.00657       0.84132
  20    C  2  py     Val( 2p)     0.34507       0.27964
  21    C  2  py     Ryd( 3p)     0.00813       0.92930
  22    C  2  pz     Val( 2p)     0.49354       0.05068
  23    C  2  pz     Ryd( 3p)     0.00181       0.78574
  24    C  2  dxy    Ryd( 3d)     0.00214       2.75650
  25    C  2  dxz    Ryd( 3d)     0.00126       2.15854
  26    C  2  dyz    Ryd( 3d)     0.00187       2.26859
  27    C  2  dx2y2  Ryd( 3d)     0.00184       2.68472
  28    C  2  dz2    Ryd( 3d)     0.00048       2.40357

  29    O  3  s      Cor( 1s)     0.99998     -19.12956
  30    O  3  s      Val( 2s)     0.79336      -0.59514
  31    O  3  s      Ryd( 3s)     0.00064       1.82335
  32    O  3  px     Val( 2p)     0.89131      -0.24713
  33    O  3  px     Ryd( 3p)     0.00115       1.45645
  34    O  3  py     Val( 2p)     0.71183      -0.18356
  35    O  3  py     Ryd( 3p)     0.00043       1.76643
  36    O  3  pz     Val( 2p)     0.91462      -0.23704
  37    O  3  pz     Ryd( 3p)     0.00089       1.40588
  38    O  3  dxy    Ryd( 3d)     0.00092       3.39607
  39    O  3  dxz    Ryd( 3d)     0.00059       2.94545
  40    O  3  dyz    Ryd( 3d)     0.00021       3.05483
  41    O  3  dx2y2  Ryd( 3d)     0.00045       3.14254
  42    O  3  dz2    Ryd( 3d)     0.00041       3.09375

  43    C  4  s      Cor( 1s)     0.99997     -10.22526
  44    C  4  s      Val( 2s)     0.49722      -0.03320
  45    C  4  s      Ryd( 3s)     0.00107       1.03003
  46    C  4  px     Val( 2p)     0.53417       0.05794
  47    C  4  px     Ryd( 3p)     0.00306       0.84538
  48    C  4  py     Val( 2p)     0.41835       0.08875
  49    C  4  py     Ryd( 3p)     0.00242       0.83680
  50    C  4  pz     Val( 2p)     0.56513       0.03901
  51    C  4  pz     Ryd( 3p)     0.00070       0.83364
  52    C  4  dxy    Ryd( 3d)     0.00090       2.54714
  53    C  4  dxz    Ryd( 3d)     0.00038       2.38286
  54    C  4  dyz    Ryd( 3d)     0.00061       2.28220
  55    C  4  dx2y2  Ryd( 3d)     0.00062       2.34212
  56    C  4  dz2    Ryd( 3d)     0.00075       2.62624

  57    C  5  s      Cor( 1s)     0.99997     -10.17357
  58    C  5  s      Val( 2s)     0.50537      -0.01258
  59    C  5  s      Ryd( 3s)     0.00073       1.13733
  60    C  5  px     Val( 2p)     0.54437       0.05787
  61    C  5  px     Ryd( 3p)     0.00198       0.84175
  62    C  5  py     Val( 2p)     0.58066       0.04939
  63    C  5  py     Ryd( 3p)     0.00166       0.80611
  64    C  5  pz     Val( 2p)     0.59618       0.03638
  65    C  5  pz     Ryd( 3p)     0.00072       0.90804
  66    C  5  dxy    Ryd( 3d)     0.00036       2.52275
  67    C  5  dxz    Ryd( 3d)     0.00043       2.38874
  68    C  5  dyz    Ryd( 3d)     0.00029       2.37373
  69    C  5  dx2y2  Ryd( 3d)     0.00031       2.45833
  70    C  5  dz2    Ryd( 3d)     0.00044       2.60581

  71    C  6  s      Cor( 1s)     0.99998     -10.14620
  72    C  6  s      Val( 2s)     0.41892       0.14532
  73    C  6  s      Ryd( 3s)     0.00071       0.80952
  74    C  6  px     Val( 2p)     0.54094       0.13294
  75    C  6  px     Ryd( 3p)     0.00213       1.30464
  76    C  6  py     Val( 2p)     0.53754       0.13157
  77    C  6  py     Ryd( 3p)     0.00219       1.25594
  78    C  6  pz     Val( 2p)     0.57713       0.03633
  79    C  6  pz     Ryd( 3p)     0.00275       0.89508
  80    C  6  dxy    Ryd( 3d)     0.00045       2.67361
  81    C  6  dxz    Ryd( 3d)     0.00056       2.20179
  82    C  6  dyz    Ryd( 3d)     0.00043       2.19167
  83    C  6  dx2y2  Ryd( 3d)     0.00043       2.71594
  84    C  6  dz2    Ryd( 3d)     0.00027       2.43745

  85    C  7  s      Cor( 1s)     0.99998     -10.14575
  86    C  7  s      Val( 2s)     0.45610       0.11263
[...]
   54. BD ( 1) C 10- H 18      76. BD*( 1) C 10- C 11      0.50    1.26   0.032
   54. BD ( 1) C 10- H 18      79. BD*( 1) C 11- C 12      1.71    1.26   0.059
   54. BD ( 1) C 10- H 18     144. RY ( 1) C  8            0.56    1.77   0.040
   54. BD ( 1) C 10- H 18     176. RY ( 1) C 11            0.31    1.79   0.030
   55. BD ( 1) C 11- C 12      59. BD*( 1) C  2- O  3      1.29    1.14   0.048
   55. BD ( 1) C 11- C 12      60. BD*( 1) C  2- C 12      1.55    1.20   0.054
   55. BD ( 1) C 11- C 12      65. BD*( 1) C  5- C  6      1.62    1.16   0.055
   55. BD ( 1) C 11- C 12      69. BD*( 1) C  6- C 12      2.59    1.33   0.074
   55. BD ( 1) C 11- C 12      76. BD*( 1) C 10- C 11      1.58    1.34   0.058
   55. BD ( 1) C 11- C 12      78. BD*( 1) C 10- H 18      1.37    1.20   0.051
   55. BD ( 1) C 11- C 12      80. BD*( 1) C 11- H 19      0.91    1.22   0.042
   55. BD ( 1) C 11- C 12      90. RY ( 1) C  2            0.71    1.30   0.038
   55. BD ( 1) C 11- C 12     126. RY ( 1) C  6            0.58    1.98   0.043
   55. BD ( 1) C 11- C 12     167. RY ( 1) C 10            0.45    1.84   0.036
   55. BD ( 1) C 11- C 12     168. RY ( 2) C 10            0.81    1.44   0.043
   56. BD ( 1) C 11- H 19      60. BD*( 1) C  2- C 12      0.29    1.10   0.023
   56. BD ( 1) C 11- H 19      69. BD*( 1) C  6- C 12      2.22    1.23   0.066
   56. BD ( 1) C 11- H 19      75. BD*( 1) C  8- C 10      1.93    1.21   0.061
   56. BD ( 1) C 11- H 19      76. BD*( 1) C 10- C 11      0.44    1.24   0.030
   56. BD ( 1) C 11- H 19      78. BD*( 1) C 10- H 18      0.30    1.10   0.023
   56. BD ( 1) C 11- H 19      79. BD*( 1) C 11- C 12      0.49    1.24   0.031
   56. BD ( 1) C 11- H 19     167. RY ( 1) C 10            0.29    1.74   0.028
   56. BD ( 1) C 11- H 19     185. RY ( 1) C 12            0.37    1.87   0.033


 NATURAL BOND ORBITALS (Summary):

                                                     Principal Delocalizations
           NBO                 Occupancy    Energy   (geminal,vicinal,remote)
 ===============================================================================
 Molecular unit  1  (C9H7O2Br)
 ------ Lewis --------------------------------------
    1. CR ( 1) O  1             0.99998   -19.03905
    2. CR ( 1) C  2             0.99997   -10.22869
    3. CR ( 1) O  3             0.99998   -19.12902
    4. CR ( 1) C  4             0.99997   -10.22520
    5. CR ( 1) C  5             0.99997   -10.17369
    6. CR ( 1) C  6             0.99998   -10.14468
    7. CR ( 1) C  7             0.99997   -10.14638
    8. CR ( 1) C  8             0.99998   -10.16274
    9. CR ( 1)Br  9             1.00000  -400.91131
   10. CR ( 2)Br  9             1.00000  -128.47241
   11. CR ( 3)Br  9             1.00000   -24.68759
   12. CR ( 4)Br  9             1.00000   -36.93523
   13. CR ( 5)Br  9             1.00000   -25.85515
   14. CR ( 6)Br  9             1.00000   -36.92792
   15. CR ( 7)Br  9             1.00000   -25.84857
   16. CR ( 8)Br  9             1.00000   -36.92746
   17. CR ( 9)Br  9             1.00000   -25.84811
   18. CR (10)Br  9             1.00000    -2.58933
   19. CR (11)Br  9             1.00000    -2.58872
   20. CR (12)Br  9             1.00000    -2.58006
   21. CR (13)Br  9             1.00000    -2.58952
   22. CR (14)Br  9             1.00000    -2.58290
   23. CR ( 1) C 10             0.99998   -10.14472
   24. CR ( 1) C 11             0.99997   -10.12873
   25. CR ( 1) C 12             0.99998   -10.11263
   26. LP ( 1) O  1             0.98813    -0.42245  90(v),60(v),59(v)
   27. LP ( 2) O  1             0.92212    -0.14086  59(v),60(v),91(v),93(v)
                                                     61(r),94(v),87(g),69(r)
   28. LP ( 1) O  3             0.97871    -0.38188  60(v),62(v),57(v),63(v)
                                                     91(v),108(v),109(v)
   29. LP ( 2) O  3             0.91517    -0.23623  58(v),64(v),62(v),92(v)
                                                     57(v),110(v),63(v),66(r)
   30. LP ( 1)Br  9             0.99760    -0.59566  144(v),71(v),75(v)
   31. LP ( 2)Br  9             0.99036    -0.22737  75(v),71(v),145(v),68(r)
                                                     76(r)
   32. LP ( 3)Br  9             0.97443    -0.22190  72(v)
   33. BD ( 1) O  1- C  2       0.99676    -0.82179  60(g),61(v),69(v),186(v)
   34. BD ( 2) O  1- C  2       0.99120    -0.28166  70(v),188(v)
   35. BD ( 1) C  2- O  3       0.99655    -0.74741  109(v),79(v),63(v),186(v)
   36. BD ( 1) C  2- C 12       0.98866    -0.47046  68(v),69(g),79(g),76(v)
                                                     57(g),81(v),176(v),126(v)
                                                     99(v)
   37. BD ( 1) O  3- C  4       0.99415    -0.68684  57(v),66(v),94(v),58(v)
                                                     91(v)
   38. BD ( 1) C  4- C  5       0.99259    -0.50567  68(v),127(v),65(g),99(v)
                                                     70(v),63(g),66(g)
   39. BD ( 1) C  4- H 13       0.99278    -0.44738  65(v),59(v),100(v)
   40. BD ( 1) C  4- H 14       0.99327    -0.44145  67(v),117(v)
   41. BD ( 1) C  5- C  6       0.98513    -0.47618  79(v),68(g),69(g),63(v)
                                                     71(v),135(v),62(g),185(v)
                                                     108(v),66(g),67(g),136(v)
                                                     61(v),206(v)
   42. BD ( 1) C  5- H 15       0.98740    -0.42412  61(v),69(v),70(v),128(v)
                                                     65(g)
   43. BD ( 1) C  5- H 16       0.98423    -0.41457  70(v),64(v),109(v),65(g)
                                                     61(v),127(v),128(v)
   44. BD ( 1) C  6- C  7       0.98127    -0.50443  74(v),69(g),71(g),60(v)
                                                     65(g),73(g),144(v),117(v)
                                                     62(v),185(v),145(v)
   45. BD ( 1) C  6- C 12       0.98072    -0.49446  79(g),68(g),73(v),60(g)
                                                     65(g),80(v),57(v),176(v)
                                                     66(v),117(v),135(v)
   46. BD ( 2) C  6- C 12       0.80813    -0.11720  77(v),72(v),58(v),67(v)
                                                     137(v),178(v),66(v),95(v)
                                                     70(g),62(v),139(v),63(r)
   47. BD ( 1) C  7- C  8       0.98742    -0.52885  75(g),68(g),65(v),78(v)
                                                     73(g),126(v),167(v),210(v)
                                                     128(v)
   48. BD ( 2) C  7- C  8       0.84149    -0.14868  70(v),77(v),169(v),153(v)
                                                     129(v),127(v)
   49. BD ( 1) C  7- H 17       0.98960    -0.41394  69(v),75(v),68(g),144(v)
                                                     74(v),71(g),126(v)
   50. BD ( 1) C  8-Br  9       0.99341    -0.49134  68(v),76(v),167(v),135(v)
   51. BD ( 1) C  8- C 10       0.98809    -0.52741  71(g),76(g),73(v),80(v)
                                                     78(g),177(v),135(v),176(v)
                                                     214(v),136(v)
   52. BD ( 1) C 10- C 11       0.98390    -0.50219  74(v),75(g),79(g),60(v)
                                                     185(v),78(g),80(g),144(v)
                                                     145(v),214(v),218(v),186(v)
   53. BD ( 2) C 10- C 11       0.83669    -0.13650  72(v),70(v),147(v),146(v)
                                                     188(v),169(g),189(v)
   54. BD ( 1) C 10- H 18       0.98975    -0.41198  71(v),79(v),144(v),74(v)
                                                     76(g),75(g),176(v)
   55. BD ( 1) C 11- C 12       0.98313    -0.49009  69(g),65(v),76(g),60(g)
                                                     78(v),59(v),80(g),168(v)
                                                     90(v),126(v),167(v)
   56. BD ( 1) C 11- H 19       0.98894    -0.38920  69(v),75(v),79(g),76(g)
                                                     185(v),78(v),60(v),167(v)
 ------ non-Lewis ----------------------------------
   57. BD*( 1) O  1- C  2       0.01003     0.91353
   58. BD*( 2) O  1- C  2       0.09767     0.29891
   59. BD*( 1) C  2- O  3       0.05018     0.64938
   60. BD*( 1) C  2- C 12       0.03466     0.71083
   61. BD*( 1) O  3- C  4       0.01365     0.52039
   62. BD*( 1) C  4- C  5       0.01011     0.61154
   63. BD*( 1) C  4- H 13       0.00804     0.66840
   64. BD*( 1) C  4- H 14       0.01353     0.65408
   65. BD*( 1) C  5- C  6       0.01218     0.66982
   66. BD*( 1) C  5- H 15       0.00629     0.65867
   67. BD*( 1) C  5- H 16       0.00988     0.65808
   68. BD*( 1) C  6- C  7       0.01323     0.83921
   69. BD*( 1) C  6- C 12       0.01652     0.84442
   70. BD*( 2) C  6- C 12       0.17164     0.28261
   71. BD*( 1) C  7- C  8       0.01258     0.82905
   72. BD*( 2) C  7- C  8       0.18486     0.24636
   73. BD*( 1) C  7- H 17       0.00780     0.69770
   74. BD*( 1) C  8-Br  9       0.01605     0.36009
   75. BD*( 1) C  8- C 10       0.01337     0.82461
   76. BD*( 1) C 10- C 11       0.00878     0.85097
   77. BD*( 2) C 10- C 11       0.15347     0.26591
   78. BD*( 1) C 10- H 18       0.00760     0.70995
   79. BD*( 1) C 11- C 12       0.01141     0.85227
   80. BD*( 1) C 11- H 19       0.00805     0.73339
   81. RY ( 1) O  1             0.00087     1.47618
   82. RY ( 2) O  1             0.00029     1.37343
   83. RY ( 3) O  1             0.00019     1.87071
   84. RY ( 4) O  1             0.00004     1.51701
   85. RY ( 5) O  1             0.00001     3.28548
   86. RY ( 6) O  1             0.00001     2.94744
   87. RY ( 7) O  1             0.00000     3.19620
   88. RY ( 8) O  1             0.00000     3.08938
   89. RY ( 9) O  1             0.00000     3.09943
   90. RY ( 1) C  2             0.00949     0.80635
   91. RY ( 2) C  2             0.00638     1.54059
   92. RY ( 3) C  2             0.00201     2.11270
   93. RY ( 4) C  2             0.00150     1.95392
   94. RY ( 5) C  2             0.00121     1.43722
   95. RY ( 6) C  2             0.00074     1.56328
   96. RY ( 7) C  2             0.00023     2.19197
   97. RY ( 8) C  2             0.00014     1.58214
   98. RY ( 9) C  2             0.00001     2.42694
   99. RY ( 1) O  3             0.00121     1.52426
  100. RY ( 2) O  3             0.00090     1.54845
  101. RY ( 3) O  3             0.00059     1.82803
  102. RY ( 4) O  3             0.00012     2.69794
  103. RY ( 5) O  3             0.00008     2.96164
  104. RY ( 6) O  3             0.00001     2.74337
  105. RY ( 7) O  3             0.00001     2.85558
  106. RY ( 8) O  3             0.00000     2.99889
  107. RY ( 9) O  3             0.00000     2.93264
  108. RY ( 1) C  4             0.00202     1.17608
  109. RY ( 2) C  4             0.00188     1.00512
  110. RY ( 3) C  4             0.00077     2.04606
  111. RY ( 4) C  4             0.00048     1.74470
  112. RY ( 5) C  4             0.00019     1.34284
  113. RY ( 6) C  4             0.00012     2.19125
  114. RY ( 7) C  4             0.00009     1.77599
  115. RY ( 8) C  4             0.00004     2.13774
  116. RY ( 9) C  4             0.00000     2.27977
  117. RY ( 1) C  5             0.00241     1.07193
  118. RY ( 2) C  5             0.00089     1.24353
  119. RY ( 3) C  5             0.00063     0.99520
  120. RY ( 4) C  5             0.00029     1.40740
  121. RY ( 5) C  5             0.00013     1.92963
  122. RY ( 6) C  5             0.00007     2.36935
  123. RY ( 7) C  5             0.00003     2.21031
  124. RY ( 8) C  5             0.00001     2.45185
  125. RY ( 9) C  5             0.00000     2.34649
  126. RY ( 1) C  6             0.00268     1.48964
  127. RY ( 2) C  6             0.00194     1.10939
  128. RY ( 3) C  6             0.00129     1.23407
  129. RY ( 4) C  6             0.00044     2.19135
  130. RY ( 5) C  6             0.00031     0.88203
  131. RY ( 6) C  6             0.00009     2.52699
  132. RY ( 7) C  6             0.00008     2.15247
  133. RY ( 8) C  6             0.00002     2.48531
  134. RY ( 9) C  6             0.00001     2.44463
  135. RY ( 1) C  7             0.00322     1.34760
  136. RY ( 2) C  7             0.00159     0.94375
  137. RY ( 3) C  7             0.00055     0.81559
  138. RY ( 4) C  7             0.00037     0.84206
  139. RY ( 5) C  7             0.00028     2.16112
  140. RY ( 6) C  7             0.00004     2.60115
  141. RY ( 7) C  7             0.00001     2.56787
  142. RY ( 8) C  7             0.00001     2.17658
  143. RY ( 9) C  7             0.00000     2.44390
  144. RY ( 1) C  8             0.00318     1.36174
  145. RY ( 2) C  8             0.00235     1.00456
  146. RY ( 3) C  8             0.00084     1.28867
  147. RY ( 4) C  8             0.00047     2.16018
  148. RY ( 5) C  8             0.00041     0.81456
  149. RY ( 6) C  8             0.00027     2.62058
  150. RY ( 7) C  8             0.00014     2.28812
  151. RY ( 8) C  8             0.00006     1.63610
  152. RY ( 9) C  8             0.00000     2.46842
  153. RY ( 1)Br  9             0.00146     0.82491
  154. RY ( 2)Br  9             0.00073     0.92163
  155. RY ( 3)Br  9             0.00025     0.75580
  156. RY ( 4)Br  9             0.00005     1.18962
  157. RY ( 5)Br  9             0.00003     0.76393
  158. RY ( 6)Br  9             0.00000     1.19185
  159. RY ( 7)Br  9             0.00000     1.07538
  160. RY ( 8)Br  9             0.00000     0.83603
  161. RY ( 9)Br  9             0.00000     1.07232
  162. RY (10)Br  9             0.00000     3.71707
  163. RY (11)Br  9             0.00000     3.58783
  164. RY (12)Br  9             0.00000     3.66926
  165. RY (13)Br  9             0.00000     3.83962
  166. RY (14)Br  9             0.00000     3.64062
  167. RY ( 1) C 10             0.00295     1.34766
  168. RY ( 2) C 10             0.00131     0.94785
  169. RY ( 3) C 10             0.00049     1.02477
  170. RY ( 4) C 10             0.00035     0.84466
  171. RY ( 5) C 10             0.00025     1.97762
  172. RY ( 6) C 10             0.00006     2.59446
  173. RY ( 7) C 10             0.00002     2.58037
  174. RY ( 8) C 10             0.00001     2.11046
  175. RY ( 9) C 10             0.00000     2.45246
  176. RY ( 1) C 11             0.00323     1.37577
  177. RY ( 2) C 11             0.00166     0.99539
  178. RY ( 3) C 11             0.00039     1.84334
  179. RY ( 4) C 11             0.00036     1.20758
  180. RY ( 5) C 11             0.00030     0.84337
  181. RY ( 6) C 11             0.00006     2.67070
  182. RY ( 7) C 11             0.00002     2.65537
  183. RY ( 8) C 11             0.00000     2.48336
  184. RY ( 9) C 11             0.00000     2.15419
  185. RY ( 1) C 12             0.00273     1.47627
  186. RY ( 2) C 12             0.00183     1.25936
  187. RY ( 3) C 12             0.00102     0.93209
  188. RY ( 4) C 12             0.00055     0.95537
  189. RY ( 5) C 12             0.00030     2.20741
  190. RY ( 6) C 12             0.00013     2.64299
  191. RY ( 7) C 12             0.00010     2.15957
  192. RY ( 8) C 12             0.00004     2.57727
  193. RY ( 9) C 12             0.00001     2.46708
  194. RY ( 1) H 13             0.00092     0.51846
  195. RY ( 2) H 13             0.00005     2.03810
  196. RY ( 3) H 13             0.00004     2.09967
  197. RY ( 4) H 13             0.00001     2.37832
  198. RY ( 1) H 14             0.00158     0.55558
  199. RY ( 2) H 14             0.00005     1.95709
  200. RY ( 3) H 14             0.00004     2.14722
  201. RY ( 4) H 14             0.00001     2.43369
  202. RY ( 1) H 15             0.00108     0.57479
  203. RY ( 2) H 15             0.00005     2.05497
  204. RY ( 3) H 15             0.00004     1.98484
  205. RY ( 4) H 15             0.00001     2.52645
  206. RY ( 1) H 16             0.00162     0.56647
  207. RY ( 2) H 16             0.00004     2.12683
  208. RY ( 3) H 16             0.00004     1.99748
  209. RY ( 4) H 16             0.00001     2.50531
  210. RY ( 1) H 17             0.00100     0.59303
  211. RY ( 2) H 17             0.00012     1.91129
  212. RY ( 3) H 17             0.00003     2.38252
  213. RY ( 4) H 17             0.00002     2.44020
  214. RY ( 1) H 18             0.00090     0.58909
  215. RY ( 2) H 18             0.00011     1.90417
  216. RY ( 3) H 18             0.00003     2.33807
  217. RY ( 4) H 18             0.00002     2.47393
  218. RY ( 1) H 19             0.00150     0.61317
  219. RY ( 2) H 19             0.00007     1.92523
  220. RY ( 3) H 19             0.00003     2.33425
  221. RY ( 4) H 19             0.00002     2.52063
          -------------------------------
                 Total Lewis   55.02149  ( 98.2527%)
           Valence non-Lewis    0.89157  (  1.5921%)
           Rydberg non-Lewis    0.08694  (  0.1552%)
          -------------------------------
               Total unit  1   56.00000  (100.0000%)
              Charge unit  1    0.00000

 $CHOOSE
  ALPHA
   LONE 1 3 3 2 8 1 9 3 END
   BOND S 1 2 S 2 3 D 2 12 S 3 4 S 4 5 S 4 13 S 4 14 S 5 6 S 5 15 S 5 16 D 6 7
        S 6 12 S 7 8 S 7 17 S 8 9 S 8 10 D 10 11 S 10 18 S 11 12 S 11 19 END
  END
  BETA
   LONE 1 2 3 2 9 3 END
   BOND D 1 2 S 2 3 S 2 12 S 3 4 S 4 5 S 4 13 S 4 14 S 5 6 S 5 15 S 5 16 S 6 7
        D 6 12 D 7 8 S 7 17 S 8 9 S 8 10 D 10 11 S 10 18 S 11 12 S 11 19 END
  END
 $END

 NBO analysis completed in 2.52 CPU seconds (3 wall seconds)
 Maximum scratch memory used by NBO was 920717 words (7.02 MB)
 Maximum scratch memory used by G16NBO was 107253 words (0.82 MB)

 Opening RunExU unformatted file "/home/rpaton/arbr500/dzvp/fukui/Gau-1909710.EUF"
 Read unf file /home/rpaton/arbr500/dzvp/fukui/Gau-1909710.EUF:
 Label Gaussian matrix elements                                         IVers= 2 NLab= 2 Version=ES64L-G16RevC.01
 Title arbr32_wb97xd_redcreated by GaussianPrep                        
 NAtoms=    19 NBasis=   221 NBsUse=   221 ICharg=    -1 Multip=     2 NE=   113 Len12L=8 Len4L=8 IOpCl= 1 ICGU=112
 GAUSSIAN SCALARS                    NI= 1 NR= 1 NTot=       1 LenBuf=    2 NRI=1 N=    1000
 NPA CHARGES                         NI= 0 NR= 1 NTot=      19 LenBuf= 2048 NRI=1 N=      19
 Recovered energy= -3071.01536758     dipole=      1.589709146005     -1.786799621119      0.253151398332
 Unable to Open any file for archive entry.
 1\1\GINC-DYNAMO\SP\UwB97XD\def2SVP\C9H7Br1O2(1-,2)\RPATON\28-Sep-2024\
 0\\# pop=(nbo6,hirshfeld) wb97xd/def2svp\\arbr32_wb97xd_redcreated by 
 GaussianPrep\\-1,2\O,0,-3.340682,1.89388,-0.208365\C,0,-2.866008,0.801
 802,-0.067112\O,0,-3.66834,-0.27469,0.020962\C,0,-3.138147,-1.520211,0
 .454301\C,0,-1.863093,-1.877194,-0.286221\C,0,-0.877967,-0.749843,-0.1
 38737\C,0,0.50337,-0.944659,-0.134769\C,0,1.352418,0.152077,-0.002033\
 Br,0,3.221316,-0.124081,0.013945\C,0,0.849127,1.44881,0.121517\C,0,-0.
 526696,1.63964,0.109666\C,0,-1.390575,0.54866,-0.013426\H,0,-3.931033,
 -2.257445,0.2775\H,0,-2.94883,-1.474045,1.540983\H,0,-1.452163,-2.8188
 95,0.106275\H,0,-2.087111,-2.040154,-1.354414\H,0,0.917485,-1.95012,-0
 .231014\H,0,1.529096,2.295549,0.222004\H,0,-0.95589,2.639931,0.190698\
 \Version=ES64L-G16RevC.01\State=2-A\HF=-3071.0153676\S2=0.766239\S2-1=
 0.\S2A=0.750154\RMSD=8.948e-09\Dipole=1.5897091,-1.7867997,0.2531514\Q
 uadrupole=-18.8814665,7.9510015,10.9304651,11.1286319,-1.7104415,0.652
 0654\PG=C01 [X(C9H7Br1O2)]\\@
 The archive entry for this job was punched.


 LOVE IS BLIND, THAT'S WHY ALL THE WORLD LOVES A LOUVER.
 Job cpu time:       0 days  0 hours 18 minutes  2.1 seconds.
 Elapsed time:       0 days  0 hours  0 minutes 45.5 seconds.
 File lengths (MBytes):  RWF=     51 Int=      0 D2E=      0 Chk=      5 Scr=      1
 Normal termination of Gaussian 16 at Sat Sep 28 11:19:29 2024.
