 Entering Gaussian System, Link 0=/usr/local/Gaussian/G16C/g16/g16
 Input=arbr31_wb97xd_oxd.com
 Output=arbr31_wb97xd_oxd.log
 Initial command:
 /usr/local/Gaussian/G16C/g16/l1.exe "/home/rpaton/opt/dzvp/fukui/Gau-1718482.inp" -scrdir="/home/rpaton/opt/dzvp/fukui/"
 Entering Link 1 = /usr/local/Gaussian/G16C/g16/l1.exe PID=   1718483.
  
 Copyright (c) 1988-2019, Gaussian, Inc.  All Rights Reserved.
  
 This is part of the Gaussian(R) 16 program.  It is based on
 the Gaussian(R) 09 system (copyright 2009, Gaussian, Inc.),
 the Gaussian(R) 03 system (copyright 2003, Gaussian, Inc.),
 the Gaussian(R) 98 system (copyright 1998, Gaussian, Inc.),
 the Gaussian(R) 94 system (copyright 1995, Gaussian, Inc.),
 the Gaussian 92(TM) system (copyright 1992, Gaussian, Inc.),
 the Gaussian 90(TM) system (copyright 1990, Gaussian, Inc.),
 the Gaussian 88(TM) system (copyright 1988, Gaussian, Inc.),
 the Gaussian 86(TM) system (copyright 1986, Carnegie Mellon
 University), and the Gaussian 82(TM) system (copyright 1983,
 Carnegie Mellon University). Gaussian is a federally registered
 trademark of Gaussian, Inc.
  
 This software contains proprietary and confidential information,
 including trade secrets, belonging to Gaussian, Inc.
  
 This software is provided under written license and may be
 used, copied, transmitted, or stored only in accord with that
 written license.
  
 The following legend is applicable only to US Government
 contracts under FAR:
  
                    RESTRICTED RIGHTS LEGEND
  
 Use, reproduction and disclosure by the US Government is
 subject to restrictions as set forth in subparagraphs (a)
 and (c) of the Commercial Computer Software - Restricted
 Rights clause in FAR 52.227-19.
  
 Gaussian, Inc.
 340 Quinnipiac St., Bldg. 40, Wallingford CT 06492
  
  
 ---------------------------------------------------------------
 Warning -- This program may not be used in any manner that
 competes with the business of Gaussian, Inc. or will provide
 assistance to any competitor of Gaussian, Inc.  The licensee
 of this program is prohibited from giving any competitor of
 Gaussian, Inc. access to this program.  By using this program,
 the user acknowledges that Gaussian, Inc. is engaged in the
 business of creating and licensing software in the field of
 computational chemistry and represents and warrants to the
 licensee that it is not a competitor of Gaussian, Inc. and that
 it will not use this program in any manner prohibited above.
 ---------------------------------------------------------------
  

 Cite this work as:
 Gaussian 16, Revision C.01,
 M. J. Frisch, G. W. Trucks, H. B. Schlegel, G. E. Scuseria, 
 M. A. Robb, J. R. Cheeseman, G. Scalmani, V. Barone, 
 G. A. Petersson, H. Nakatsuji, X. Li, M. Caricato, A. V. Marenich, 
 J. Bloino, B. G. Janesko, R. Gomperts, B. Mennucci, H. P. Hratchian, 
 J. V. Ortiz, A. F. Izmaylov, J. L. Sonnenberg, D. Williams-Young, 
 F. Ding, F. Lipparini, F. Egidi, J. Goings, B. Peng, A. Petrone, 
 T. Henderson, D. Ranasinghe, V. G. Zakrzewski, J. Gao, N. Rega, 
 G. Zheng, W. Liang, M. Hada, M. Ehara, K. Toyota, R. Fukuda, 
 J. Hasegawa, M. Ishida, T. Nakajima, Y. Honda, O. Kitao, H. Nakai, 
 T. Vreven, K. Throssell, J. A. Montgomery, Jr., J. E. Peralta, 
 F. Ogliaro, M. J. Bearpark, J. J. Heyd, E. N. Brothers, K. N. Kudin, 
 V. N. Staroverov, T. A. Keith, R. Kobayashi, J. Normand, 
 K. Raghavachari, A. P. Rendell, J. C. Burant, S. S. Iyengar, 
 J. Tomasi, M. Cossi, J. M. Millam, M. Klene, C. Adamo, R. Cammi, 
 J. W. Ochterski, R. L. Martin, K. Morokuma, O. Farkas, 
 J. B. Foresman, and D. J. Fox, Gaussian, Inc., Wallingford CT, 2019.
 
 ******************************************
 Gaussian 16:  ES64L-G16RevC.01  3-Jul-2019
                27-Sep-2024 
 ******************************************
 %chk=arbr31_wb97xd_popn.chk
 %mem=48GB
 %nprocshared=24
 Will use up to   24 processors via shared memory.
 -------------------------------------
 # pop=(nbo6,hirshfeld) wb97xd/def2svp
 -------------------------------------
 1/38=1,172=1/1;
 2/12=2,17=6,18=5,40=1/2;
 3/5=43,7=101,11=2,25=1,30=1,74=-58/1,2,3;
 4//1;
 5/5=2,38=5/2;
 6/7=2,8=2,9=2,10=2,28=1,40=1,79=1,113=1,114=1,124=3103,126=1/1,12;
 99/5=1,9=1/99;
 -----------------------------------------
 arbr31_wb97xd_popncreated by GaussianPrep
 -----------------------------------------
 Symbolic Z-matrix:
 Charge =  1 Multiplicity = 2
 O                     3.85177   1.39068  -0.00035 
 C                     3.10031   0.44923   0.00069 
 C                     3.50025  -1.02884  -0.00031 
 C                     2.19117  -1.83915  -0.00001 
 C                     1.09489  -0.79664   0.00019 
 C                    -0.28506  -0.99306   0.00016 
 C                    -1.10641   0.13394   0.00006 
 Br                   -2.98305  -0.09959  -0.00006 
 C                    -0.5871    1.43677  -0.00003 
 C                     0.79013   1.62031   0.00004 
 C                     1.61489   0.49613   0.00022 
 H                     4.12945  -1.22186  -0.88207 
 H                     4.13027  -1.22257   0.88071 
 H                     2.10463  -2.49172   0.88234 
 H                     2.10427  -2.49162  -0.8824 
 H                    -0.71931  -1.99439   0.00012 
 H                    -1.26587   2.29061  -0.0001 
 H                     1.23073   2.61955   0.00008 
 
                          Input orientation:                          
 ---------------------------------------------------------------------
 Center     Atomic      Atomic             Coordinates (Angstroms)
 Number     Number       Type             X           Y           Z
 ---------------------------------------------------------------------
      1          8           0        3.851771    1.390675   -0.000345
      2          6           0        3.100310    0.449233    0.000691
      3          6           0        3.500245   -1.028843   -0.000305
      4          6           0        2.191172   -1.839151   -0.000010
      5          6           0        1.094893   -0.796639    0.000188
      6          6           0       -0.285064   -0.993061    0.000162
      7          6           0       -1.106407    0.133939    0.000063
      8         35           0       -2.983050   -0.099586   -0.000057
      9          6           0       -0.587096    1.436771   -0.000029
     10          6           0        0.790127    1.620314    0.000036
     11          6           0        1.614887    0.496126    0.000219
     12          1           0        4.129454   -1.221860   -0.882074
     13          1           0        4.130272   -1.222566    0.880714
     14          1           0        2.104630   -2.491724    0.882340
     15          1           0        2.104270   -2.491621   -0.882402
     16          1           0       -0.719309   -1.994394    0.000120
     17          1           0       -1.265866    2.290607   -0.000104
     18          1           0        1.230727    2.619550    0.000082
 ---------------------------------------------------------------------
                    Distance matrix (angstroms):
                    1          2          3          4          5
     1  O    0.000000
     2  C    1.204578   0.000000
     3  C    2.444921   1.531228   0.000000
     4  C    3.631717   2.462363   1.539569   0.000000
     5  C    3.519193   2.360910   2.416534   1.512831   0.000000
     6  C    4.774474   3.679806   3.785478   2.616794   1.393866
     7  C    5.114970   4.218516   4.751137   3.842800   2.389916
     8  Br   6.995402   6.108066   6.549552   5.458815   4.137089
     9  C    4.439106   3.817354   4.773427   4.295397   2.795927
    10  C    3.070244   2.590053   3.789825   3.732402   2.436092
    11  C    2.409122   1.486163   2.424893   2.405332   1.393426
    12  H    2.771262   2.151967   1.100307   2.217210   3.188692
    13  H    2.771797   2.151784   1.100299   2.217197   3.189085
    14  H    4.347949   3.227679   2.206088   1.100855   2.161267
    15  H    4.347874   3.228091   2.206028   1.100856   2.161197
    16  H    5.688011   4.534402   4.328617   2.914618   2.173924
    17  H    5.196161   4.738581   5.808146   5.385723   3.886421
    18  H    2.894824   2.864545   4.296683   4.560972   3.418888
                    6          7          8          9         10
     6  C    0.000000
     7  C    1.394537   0.000000
     8  Br   2.842081   1.891117   0.000000
     9  C    2.448532   1.402517   2.846224   0.000000
    10  C    2.825910   2.409596   4.146676   1.389400   0.000000
    11  C    2.414020   2.745291   4.636367   2.394482   1.394284
    12  H    4.507622   5.480018   7.254321   5.485633   4.472938
    13  H    4.508130   5.480735   7.255080   5.486469   4.473715
    14  H    2.955481   4.240669   5.690820   4.843247   4.406272
    15  H    2.955253   4.240372   5.690447   4.842964   4.406096
    16  H    1.091438   2.163249   2.952088   3.433711   3.917207
    17  H    3.427017   2.162555   2.943084   1.090763   2.162499
    18  H    3.917726   3.411811   5.014939   2.168743   1.092063
                   11         12         13         14         15
    11  C    0.000000
    12  H    3.170641   0.000000
    13  H    3.171173   1.762788   0.000000
    14  H    3.153606   2.970795   2.390395   0.000000
    15  H    3.153593   2.390327   2.970482   1.764742   0.000000
    16  H    3.413380   4.988545   4.988948   3.000047   2.999780
    17  H    3.393951   6.498059   6.498964   5.916894   5.916584
    18  H    2.157894   4.892571   4.893335   5.259963   5.259841
                   16         17         18
    16  H    0.000000
    17  H    4.319717   0.000000
    18  H    5.009104   2.518170   0.000000
 Stoichiometry    C9H7BrO(1+,2)
 Framework group  C1[X(C9H7BrO)]
 Deg. of freedom    48
 Full point group                 C1      NOp   1
 Largest Abelian subgroup         C1      NOp   1
 Largest concise Abelian subgroup C1      NOp   1
                         Standard orientation:                         
 ---------------------------------------------------------------------
 Center     Atomic      Atomic             Coordinates (Angstroms)
 Number     Number       Type             X           Y           Z
 ---------------------------------------------------------------------
      1          8           0       -3.851771    1.390675    0.000345
      2          6           0       -3.100310    0.449233   -0.000691
      3          6           0       -3.500245   -1.028843    0.000305
      4          6           0       -2.191172   -1.839151    0.000010
      5          6           0       -1.094893   -0.796639   -0.000188
      6          6           0        0.285064   -0.993061   -0.000162
      7          6           0        1.106407    0.133939   -0.000063
      8         35           0        2.983050   -0.099586    0.000057
      9          6           0        0.587096    1.436771    0.000029
     10          6           0       -0.790127    1.620314   -0.000036
     11          6           0       -1.614887    0.496126   -0.000219
     12          1           0       -4.129454   -1.221860    0.882074
     13          1           0       -4.130272   -1.222566   -0.880714
     14          1           0       -2.104630   -2.491724   -0.882340
     15          1           0       -2.104270   -2.491621    0.882402
     16          1           0        0.719309   -1.994394   -0.000120
     17          1           0        1.265866    2.290607    0.000104
     18          1           0       -1.230727    2.619550   -0.000082
 ---------------------------------------------------------------------
 Rotational constants (GHZ):           2.5177440           0.3672646           0.3217911
 Standard basis: def2SVP (5D, 7F)
 There are   220 symmetry adapted cartesian basis functions of A   symmetry.
 There are   207 symmetry adapted basis functions of A   symmetry.
   207 basis functions,   379 primitive gaussians,   220 cartesian basis functions
    52 alpha electrons       51 beta electrons
       nuclear repulsion energy       787.2541437406 Hartrees.
 NAtoms=   18 NActive=   18 NUniq=   18 SFac= 1.00D+00 NAtFMM=   60 NAOKFM=F Big=F
 Integral buffers will be    131072 words long.
 Raffenetti 2 integral format.
 Two-electron integral symmetry is turned on.
 Nuclear repulsion after empirical dispersion term =      787.2437241851 Hartrees.
 One-electron integrals computed using PRISM.
   1 Symmetry operations used in ECPInt.
 ECPInt:  NShTT=    4371 NPrTT=   17396 LenC2=    4191 LenP2D=   12549.
 LDataN:  DoStor=T MaxTD1= 4 Len=   56
 NBasis=   207 RedAO= T EigKep=  2.62D-04  NBF=   207
 NBsUse=   207 1.00D-06 EigRej= -1.00D+00 NBFU=   207
 ExpMin= 1.22D-01 ExpMax= 1.13D+05 ExpMxC= 1.70D+04 IAcc=3 IRadAn=         5 AccDes= 0.00D+00
 Harris functional with IExCor= 4639 and IRadAn=       5 diagonalized for initial guess.
 HarFok:  IExCor= 4639 AccDes= 0.00D+00 IRadAn=         5 IDoV= 1 UseB2=F ITyADJ=14
 ICtDFT=  3500011 ScaDFX=  1.000000  1.000000  1.000000  1.000000
 FoFCou: FMM=F IPFlag=           0 FMFlag=      100000 FMFlg1=           0
         NFxFlg=           0 DoJE=T BraDBF=F KetDBF=T FulRan=T
         wScrn=  0.000000 ICntrl=       500 IOpCl=  0 I1Cent=   200000004 NGrid=           0
         NMat0=    1 NMatS0=      1 NMatT0=    0 NMatD0=    1 NMtDS0=    0 NMtDT0=    0
 Petite list used in FoFCou.
 Initial guess <Sx>= 0.0000 <Sy>= 0.0000 <Sz>= 0.5000 <S**2>= 0.7500 S= 0.5000
 Requested convergence on RMS density matrix=1.00D-08 within 128 cycles.
 Requested convergence on MAX density matrix=1.00D-06.
 Requested convergence on             energy=1.00D-06.
 No special actions if energy rises.
 Integral accuracy reduced to 1.0D-05 until final iterations.
 Initial convergence to 1.0D-05 achieved.  Increase integral accuracy.
 SCF Done:  E(UwB97XD) =  -2995.52773941     A.U. after   29 cycles
            NFock= 29  Conv=0.27D-08     -V/T= 2.0024
 <Sx>= 0.0000 <Sy>= 0.0000 <Sz>= 0.5000 <S**2>= 0.7583 S= 0.5041
 <L.S>= 0.000000000000E+00
 Annihilation of the first spin contaminant:
 S**2 before annihilation     0.7583,   after     0.7501

 **********************************************************************

            Population analysis using the SCF Density.

 **********************************************************************

 Orbital symmetries:
 Alpha Orbitals:
       Occupied  (A) (A) (A) (A) (A) (A) (A) (A) (A) (A) (A) (A)
                 (A) (A) (A) (A) (A) (A) (A) (A) (A) (A) (A) (A)
                 (A) (A) (A) (A) (A) (A) (A) (A) (A) (A) (A) (A)
                 (A) (A) (A) (A) (A) (A) (A) (A) (A) (A) (A) (A)
                 (A) (A) (A) (A)
       Virtual   (A) (A) (A) (A) (A) (A) (A) (A) (A) (A) (A) (A)
                 (A) (A) (A) (A) (A) (A) (A) (A) (A) (A) (A) (A)
                 (A) (A) (A) (A) (A) (A) (A) (A) (A) (A) (A) (A)
                 (A) (A) (A) (A) (A) (A) (A) (A) (A) (A) (A) (A)
                 (A) (A) (A) (A) (A) (A) (A) (A) (A) (A) (A) (A)
                 (A) (A) (A) (A) (A) (A) (A) (A) (A) (A) (A) (A)
                 (A) (A) (A) (A) (A) (A) (A) (A) (A) (A) (A) (A)
                 (A) (A) (A) (A) (A) (A) (A) (A) (A) (A) (A) (A)
                 (A) (A) (A) (A) (A) (A) (A) (A) (A) (A) (A) (A)
                 (A) (A) (A) (A) (A) (A) (A) (A) (A) (A) (A) (A)
                 (A) (A) (A) (A) (A) (A) (A) (A) (A) (A) (A) (A)
                 (A) (A) (A) (A) (A) (A) (A) (A) (A) (A) (A) (A)
                 (A) (A) (A) (A) (A) (A) (A) (A) (A) (A) (A)
 Beta  Orbitals:
       Occupied  (A) (A) (A) (A) (A) (A) (A) (A) (A) (A) (A) (A)
                 (A) (A) (A) (A) (A) (A) (A) (A) (A) (A) (A) (A)
                 (A) (A) (A) (A) (A) (A) (A) (A) (A) (A) (A) (A)
                 (A) (A) (A) (A) (A) (A) (A) (A) (A) (A) (A) (A)
                 (A) (A) (A)
       Virtual   (A) (A) (A) (A) (A) (A) (A) (A) (A) (A) (A) (A)
                 (A) (A) (A) (A) (A) (A) (A) (A) (A) (A) (A) (A)
                 (A) (A) (A) (A) (A) (A) (A) (A) (A) (A) (A) (A)
                 (A) (A) (A) (A) (A) (A) (A) (A) (A) (A) (A) (A)
                 (A) (A) (A) (A) (A) (A) (A) (A) (A) (A) (A) (A)
                 (A) (A) (A) (A) (A) (A) (A) (A) (A) (A) (A) (A)
                 (A) (A) (A) (A) (A) (A) (A) (A) (A) (A) (A) (A)
                 (A) (A) (A) (A) (A) (A) (A) (A) (A) (A) (A) (A)
                 (A) (A) (A) (A) (A) (A) (A) (A) (A) (A) (A) (A)
                 (A) (A) (A) (A) (A) (A) (A) (A) (A) (A) (A) (A)
                 (A) (A) (A) (A) (A) (A) (A) (A) (A) (A) (A) (A)
                 (A) (A) (A) (A) (A) (A) (A) (A) (A) (A) (A) (A)
                 (A) (A) (A) (A) (A) (A) (A) (A) (A) (A) (A) (A)
 The electronic state is 2-A.
 Alpha  occ. eigenvalues -- -483.20319 -62.78517 -56.59314 -56.58930 -56.58892
 Alpha  occ. eigenvalues --  -19.58953 -10.64126 -10.53517 -10.53343 -10.52290
 Alpha  occ. eigenvalues --  -10.51486 -10.50103 -10.49751 -10.48511 -10.48383
 Alpha  occ. eigenvalues --   -8.95466  -6.78096  -6.76700  -6.76581  -2.88456
 Alpha  occ. eigenvalues --   -2.88076  -2.87984  -2.86871  -2.86869  -1.45440
 Alpha  occ. eigenvalues --   -1.18145  -1.12057  -1.06371  -1.03371  -1.00144
 Alpha  occ. eigenvalues --   -0.96293  -0.90158  -0.87865  -0.85374  -0.81510
 Alpha  occ. eigenvalues --   -0.79363  -0.79282  -0.74658  -0.72978  -0.72041
 Alpha  occ. eigenvalues --   -0.70960  -0.68593  -0.66561  -0.66534  -0.63425
 Alpha  occ. eigenvalues --   -0.63147  -0.61367  -0.60292  -0.56739  -0.51118
 Alpha  occ. eigenvalues --   -0.50802  -0.48414
 Alpha virt. eigenvalues --   -0.21166  -0.12236  -0.08795  -0.06238  -0.01571
 Alpha virt. eigenvalues --    0.00797   0.02237   0.02558   0.04837   0.06248
 Alpha virt. eigenvalues --    0.06287   0.07727   0.08580   0.10956   0.13206
 Alpha virt. eigenvalues --    0.14520   0.16214   0.19215   0.20536   0.22650
 Alpha virt. eigenvalues --    0.24885   0.25019   0.27071   0.30116   0.31099
 Alpha virt. eigenvalues --    0.31605   0.34123   0.36114   0.37434   0.38297
 Alpha virt. eigenvalues --    0.38938   0.40136   0.40171   0.43616   0.44069
 Alpha virt. eigenvalues --    0.44410   0.44939   0.46943   0.47757   0.49191
 Alpha virt. eigenvalues --    0.50535   0.50855   0.52825   0.54110   0.54876
 Alpha virt. eigenvalues --    0.55688   0.56122   0.56836   0.57559   0.58142
 Alpha virt. eigenvalues --    0.58853   0.60494   0.60832   0.62613   0.62938
 Alpha virt. eigenvalues --    0.63711   0.64080   0.64757   0.66043   0.68119
 Alpha virt. eigenvalues --    0.70068   0.71279   0.74626   0.76356   0.78798
 Alpha virt. eigenvalues --    0.81888   0.88406   0.88663   0.91211   0.95222
 Alpha virt. eigenvalues --    0.98025   1.03602   1.06355   1.09594   1.09664
 Alpha virt. eigenvalues --    1.13039   1.14986   1.15341   1.18445   1.19020
 Alpha virt. eigenvalues --    1.23168   1.25877   1.30894   1.34442   1.39039
 Alpha virt. eigenvalues --    1.42444   1.44485   1.45731   1.48095   1.53666
 Alpha virt. eigenvalues --    1.57589   1.59050   1.60882   1.62952   1.63065
 Alpha virt. eigenvalues --    1.65017   1.65446   1.67476   1.69299   1.69309
 Alpha virt. eigenvalues --    1.71909   1.74069   1.76453   1.79159   1.82546
 Alpha virt. eigenvalues --    1.83666   1.84832   1.85838   1.87268   1.93378
 Alpha virt. eigenvalues --    1.93498   1.98139   2.01464   2.04349   2.05611
 Alpha virt. eigenvalues --    2.06049   2.09792   2.12980   2.15247   2.17540
 Alpha virt. eigenvalues --    2.19195   2.19290   2.24056   2.24356   2.27257
 Alpha virt. eigenvalues --    2.30341   2.35124   2.37804   2.42256   2.48635
 Alpha virt. eigenvalues --    2.50457   2.51218   2.52898   2.55284   2.58154
 Alpha virt. eigenvalues --    2.62025   2.64542   2.70857   2.74461   2.76395
 Alpha virt. eigenvalues --    2.80226   2.82681   2.86003   2.91309   2.96163
 Alpha virt. eigenvalues --    3.00983   3.04731   3.23140   3.38551   3.42201
 Alpha virt. eigenvalues --    3.43989   3.45881   3.46232   3.58931   3.78259
  Beta  occ. eigenvalues -- -483.20320 -62.78517 -56.59314 -56.58932 -56.58893
  Beta  occ. eigenvalues --  -19.57129 -10.64199 -10.53364 -10.53251 -10.52031
  Beta  occ. eigenvalues --  -10.51485 -10.50118 -10.49748 -10.48492 -10.48364
  Beta  occ. eigenvalues --   -8.95467  -6.78095  -6.76704  -6.76581  -2.88457
  Beta  occ. eigenvalues --   -2.88077  -2.87984  -2.86872  -2.86871  -1.41306
  Beta  occ. eigenvalues --   -1.17576  -1.11640  -1.06038  -1.02921  -0.99508
  Beta  occ. eigenvalues --   -0.95611  -0.89779  -0.86296  -0.83810  -0.80190
  Beta  occ. eigenvalues --   -0.78360  -0.75972  -0.72757  -0.71950  -0.71663
  Beta  occ. eigenvalues --   -0.69992  -0.67581  -0.66484  -0.65957  -0.62871
  Beta  occ. eigenvalues --   -0.61300  -0.60877  -0.56493  -0.51113  -0.50805
  Beta  occ. eigenvalues --   -0.48285
  Beta virt. eigenvalues --   -0.33632  -0.20733  -0.12279  -0.08603  -0.06226
  Beta virt. eigenvalues --   -0.01436   0.00890   0.02440   0.02793   0.05328
  Beta virt. eigenvalues --    0.06396   0.06427   0.08387   0.08774   0.11042
  Beta virt. eigenvalues --    0.13782   0.14659   0.16544   0.19486   0.20714
  Beta virt. eigenvalues --    0.23072   0.25049   0.25471   0.27324   0.30361
  Beta virt. eigenvalues --    0.31350   0.31573   0.34195   0.36310   0.37703
  Beta virt. eigenvalues --    0.38310   0.39109   0.40151   0.41073   0.43999
  Beta virt. eigenvalues --    0.44083   0.44394   0.45087   0.47184   0.47975
  Beta virt. eigenvalues --    0.49179   0.50600   0.51319   0.53012   0.54229
  Beta virt. eigenvalues --    0.55152   0.55971   0.56206   0.56947   0.57712
  Beta virt. eigenvalues --    0.58446   0.58986   0.60570   0.60887   0.62972
  Beta virt. eigenvalues --    0.63109   0.64066   0.64196   0.64847   0.66220
  Beta virt. eigenvalues --    0.68551   0.70221   0.71386   0.74823   0.76557
  Beta virt. eigenvalues --    0.79074   0.82049   0.88539   0.89915   0.91378
  Beta virt. eigenvalues --    0.95378   1.01359   1.03869   1.06468   1.09874
  Beta virt. eigenvalues --    1.10247   1.13111   1.15079   1.15852   1.18555
  Beta virt. eigenvalues --    1.19062   1.23264   1.26288   1.31175   1.35156
  Beta virt. eigenvalues --    1.39076   1.43057   1.44581   1.45759   1.48795
  Beta virt. eigenvalues --    1.54410   1.57966   1.59330   1.60953   1.63118
  Beta virt. eigenvalues --    1.63150   1.65118   1.65497   1.67539   1.69369
  Beta virt. eigenvalues --    1.69487   1.72506   1.74083   1.76520   1.79319
  Beta virt. eigenvalues --    1.82767   1.83919   1.85020   1.86024   1.87438
  Beta virt. eigenvalues --    1.93507   1.93752   1.98294   2.01615   2.04884
  Beta virt. eigenvalues --    2.05705   2.06244   2.10082   2.13341   2.15998
  Beta virt. eigenvalues --    2.17598   2.19402   2.19460   2.24401   2.24720
  Beta virt. eigenvalues --    2.27390   2.31388   2.35281   2.39280   2.45803
  Beta virt. eigenvalues --    2.50479   2.51613   2.53027   2.53555   2.57580
  Beta virt. eigenvalues --    2.58565   2.62170   2.65223   2.71253   2.74748
  Beta virt. eigenvalues --    2.76692   2.80420   2.82949   2.86332   2.91633
  Beta virt. eigenvalues --    2.96888   3.01897   3.05274   3.25675   3.38547
  Beta virt. eigenvalues --    3.42224   3.45312   3.46229   3.47307   3.58952
  Beta virt. eigenvalues --    3.78258
          Condensed to atoms (all electrons):
               1          2          3          4          5          6
     1  O    7.407451   0.570883  -0.031009   0.003060   0.000854  -0.000025
     2  C    0.570883   4.846591   0.334442  -0.059129  -0.028685   0.006316
     3  C   -0.031009   0.334442   4.770882   0.365123  -0.066003   0.013797
     4  C    0.003060  -0.059129   0.365123   4.656929   0.374904  -0.065775
     5  C    0.000854  -0.028685  -0.066003   0.374904   5.176451   0.374387
     6  C   -0.000025   0.006316   0.013797  -0.065775   0.374387   4.969343
     7  C   -0.000007   0.002058  -0.001275   0.011274   0.095927   0.312198
     8  Br  -0.000000   0.000017   0.000001  -0.000081   0.003968  -0.066950
     9  C    0.000307   0.007878  -0.000183  -0.000786  -0.103728   0.028933
    10  C    0.001734  -0.060140   0.008706   0.011280   0.007262  -0.070605
    11  C   -0.055061   0.282304  -0.070381  -0.087686   0.305243   0.029023
    12  H   -0.000440  -0.001493   0.363003  -0.004526  -0.000354  -0.000264
    13  H   -0.000459  -0.001427   0.362928  -0.004554  -0.000341  -0.000264
    14  H   -0.000018  -0.000578  -0.008891   0.370297  -0.001509  -0.004904
    15  H   -0.000017  -0.000547  -0.008998   0.370465  -0.001553  -0.004912
    16  H    0.000000  -0.000479   0.000511  -0.012903  -0.047011   0.442494
    17  H   -0.000002  -0.000247   0.000004   0.000013  -0.001077   0.010163
    18  H    0.001092  -0.012820   0.000373  -0.000378   0.011386  -0.001485
               7          8          9         10         11         12
     1  O   -0.000007  -0.000000   0.000307   0.001734  -0.055061  -0.000440
     2  C    0.002058   0.000017   0.007878  -0.060140   0.282304  -0.001493
     3  C   -0.001275   0.000001  -0.000183   0.008706  -0.070381   0.363003
     4  C    0.011274  -0.000081  -0.000786   0.011280  -0.087686  -0.004526
     5  C    0.095927   0.003968  -0.103728   0.007262   0.305243  -0.000354
     6  C    0.312198  -0.066950   0.028933  -0.070605   0.029023  -0.000264
     7  C    5.246447   0.271313   0.288753   0.069345  -0.149498   0.000019
     8  Br   0.271313  34.751182  -0.063589   0.003130   0.000859  -0.000000
     9  C    0.288753  -0.063589   4.941315   0.395841   0.071452   0.000007
    10  C    0.069345   0.003130   0.395841   4.936457   0.264400  -0.000247
    11  C   -0.149498   0.000859   0.071452   0.264400   5.487964   0.002186
    12  H    0.000019  -0.000000   0.000007  -0.000247   0.002186   0.498506
    13  H    0.000019  -0.000000   0.000007  -0.000248   0.002206  -0.003187
    14  H   -0.000132  -0.000000   0.000060  -0.000316   0.004087   0.001286
    15  H   -0.000131  -0.000000   0.000060  -0.000317   0.004080  -0.006491
    16  H   -0.050166   0.000513   0.010177  -0.001297   0.013420  -0.000005
    17  H   -0.051245  -0.000021   0.437692  -0.042689   0.011158  -0.000000
    18  H    0.011424  -0.000097  -0.044660   0.454022  -0.063912  -0.000001
              13         14         15         16         17         18
     1  O   -0.000459  -0.000018  -0.000017   0.000000  -0.000002   0.001092
     2  C   -0.001427  -0.000578  -0.000547  -0.000479  -0.000247  -0.012820
     3  C    0.362928  -0.008891  -0.008998   0.000511   0.000004   0.000373
     4  C   -0.004554   0.370297   0.370465  -0.012903   0.000013  -0.000378
     5  C   -0.000341  -0.001509  -0.001553  -0.047011  -0.001077   0.011386
     6  C   -0.000264  -0.004904  -0.004912   0.442494   0.010163  -0.001485
     7  C    0.000019  -0.000132  -0.000131  -0.050166  -0.051245   0.011424
     8  Br  -0.000000  -0.000000  -0.000000   0.000513  -0.000021  -0.000097
     9  C    0.000007   0.000060   0.000060   0.010177   0.437692  -0.044660
    10  C   -0.000248  -0.000316  -0.000317  -0.001297  -0.042689   0.454022
    11  C    0.002206   0.004087   0.004080   0.013420   0.011158  -0.063912
    12  H   -0.003187   0.001286  -0.006491  -0.000005  -0.000000  -0.000001
    13  H    0.498630  -0.006505   0.001289  -0.000005  -0.000000  -0.000001
    14  H   -0.006505   0.537472  -0.010183   0.001432  -0.000000   0.000005
    15  H    0.001289  -0.010183   0.537361   0.001430  -0.000000   0.000005
    16  H   -0.000005   0.001432   0.001430   0.576039  -0.000123   0.000007
    17  H   -0.000000  -0.000000  -0.000000  -0.000123   0.559953  -0.008460
    18  H   -0.000001   0.000005   0.000005   0.000007  -0.008460   0.575410
          Atomic-Atomic Spin Densities.
               1          2          3          4          5          6
     1  O    0.850412  -0.064833  -0.015018   0.000563   0.000348   0.000002
     2  C   -0.064833  -0.112952   0.068292  -0.006604   0.005174  -0.000556
     3  C   -0.015018   0.068292   0.175714  -0.020911   0.009922  -0.000615
     4  C    0.000563  -0.006604  -0.020911   0.018915  -0.007285   0.000651
     5  C    0.000348   0.005174   0.009922  -0.007285  -0.006869   0.003629
     6  C    0.000002  -0.000556  -0.000615   0.000651   0.003629   0.012989
     7  C   -0.000010  -0.000171  -0.000144   0.000325   0.001227  -0.003103
     8  Br  -0.000000  -0.000001  -0.000000   0.000001  -0.000018  -0.000325
     9  C    0.000082  -0.000909   0.000044  -0.000045   0.000394   0.000384
    10  C    0.004273   0.002188   0.001385  -0.000427   0.002662  -0.000875
    11  C   -0.022179   0.036779  -0.046598   0.018212  -0.017167   0.000929
    12  H    0.001626   0.000111  -0.008057   0.003647  -0.000680   0.000019
    13  H    0.001646   0.000098  -0.008156   0.003692  -0.000691   0.000020
    14  H   -0.000015   0.000187   0.001503  -0.002316   0.000989  -0.000121
    15  H   -0.000016   0.000192   0.001536  -0.002351   0.000994  -0.000119
    16  H    0.000000   0.000045   0.000083  -0.000027  -0.000556   0.001053
    17  H    0.000002   0.000027   0.000002  -0.000002   0.000008   0.000062
    18  H    0.001832   0.000184   0.000241  -0.000076   0.000267   0.000029
               7          8          9         10         11         12
     1  O   -0.000010  -0.000000   0.000082   0.004273  -0.022179   0.001626
     2  C   -0.000171  -0.000001  -0.000909   0.002188   0.036779   0.000111
     3  C   -0.000144  -0.000000   0.000044   0.001385  -0.046598  -0.008057
     4  C    0.000325   0.000001  -0.000045  -0.000427   0.018212   0.003647
     5  C    0.001227  -0.000018   0.000394   0.002662  -0.017167  -0.000680
     6  C   -0.003103  -0.000325   0.000384  -0.000875   0.000929   0.000019
     7  C   -0.014735   0.002521  -0.001729   0.002020  -0.001584   0.000003
     8  Br   0.002521  -0.004693  -0.000075   0.000054  -0.000032   0.000000
     9  C   -0.001729  -0.000075   0.009434   0.001850   0.001310  -0.000002
    10  C    0.002020   0.000054   0.001850  -0.002175  -0.021742  -0.000029
    11  C   -0.001584  -0.000032   0.001310  -0.021742   0.207277   0.002097
    12  H    0.000003   0.000000  -0.000002  -0.000029   0.002097  -0.002092
    13  H    0.000003   0.000000  -0.000002  -0.000029   0.002124   0.001555
    14  H   -0.000046  -0.000000   0.000004   0.000004  -0.000949  -0.000249
    15  H   -0.000047  -0.000000   0.000004   0.000004  -0.000974  -0.000396
    16  H   -0.001035  -0.000034   0.000044  -0.000054   0.000095  -0.000003
    17  H   -0.000044  -0.000022   0.001088  -0.001145   0.000053  -0.000000
    18  H   -0.000111  -0.000004   0.000451  -0.000546  -0.002672  -0.000006
              13         14         15         16         17         18
     1  O    0.001646  -0.000015  -0.000016   0.000000   0.000002   0.001832
     2  C    0.000098   0.000187   0.000192   0.000045   0.000027   0.000184
     3  C   -0.008156   0.001503   0.001536   0.000083   0.000002   0.000241
     4  C    0.003692  -0.002316  -0.002351  -0.000027  -0.000002  -0.000076
     5  C   -0.000691   0.000989   0.000994  -0.000556   0.000008   0.000267
     6  C    0.000020  -0.000121  -0.000119   0.001053   0.000062   0.000029
     7  C    0.000003  -0.000046  -0.000047  -0.001035  -0.000044  -0.000111
     8  Br   0.000000  -0.000000  -0.000000  -0.000034  -0.000022  -0.000004
     9  C   -0.000002   0.000004   0.000004   0.000044   0.001088   0.000451
    10  C   -0.000029   0.000004   0.000004  -0.000054  -0.001145  -0.000546
    11  C    0.002124  -0.000949  -0.000974   0.000095   0.000053  -0.002672
    12  H    0.001555  -0.000249  -0.000396  -0.000003  -0.000000  -0.000006
    13  H   -0.002015  -0.000392  -0.000254  -0.000003  -0.000000  -0.000007
    14  H   -0.000392   0.002776   0.000951   0.000104   0.000000   0.000002
    15  H   -0.000254   0.000951   0.002922   0.000105   0.000000   0.000002
    16  H   -0.000003   0.000104   0.000105   0.002503   0.000003   0.000003
    17  H   -0.000000   0.000000   0.000000   0.000003   0.000798   0.000200
    18  H   -0.000007   0.000002   0.000002   0.000003   0.000200   0.003747
 Mulliken charges and spin densities:
               1          2
     1  O    0.101655   0.758715
     2  C    0.115055  -0.072750
     3  C   -0.033031   0.159224
     4  C    0.072472   0.005962
     5  C   -0.100122  -0.007651
     6  C    0.028529   0.014053
     7  C   -0.056324  -0.016659
     8  Br   0.099756  -0.002629
     9  C    0.030464   0.012327
    10  C    0.023684  -0.012581
    11  C   -0.051844   0.154979
    12  H    0.152001  -0.002455
    13  H    0.151911  -0.002411
    14  H    0.118397   0.002432
    15  H    0.118460   0.002555
    16  H    0.065965   0.002325
    17  H    0.084884   0.001030
    18  H    0.078090   0.003536
 Sum of Mulliken charges =   1.00000   1.00000
 Mulliken charges and spin densities with hydrogens summed into heavy atoms:
               1          2
     1  O    0.101655   0.758715
     2  C    0.115055  -0.072750
     3  C    0.270881   0.154357
     4  C    0.309329   0.010948
     5  C   -0.100122  -0.007651
     6  C    0.094494   0.016378
     7  C   -0.056324  -0.016659
     8  Br   0.099756  -0.002629
     9  C    0.115348   0.013356
    10  C    0.101774  -0.009045
    11  C   -0.051844   0.154979
 Electronic spatial extent (au):  <R**2>=           2945.4151
 Charge=              1.0000 electrons
 Dipole moment (field-independent basis, Debye):
    X=             -8.7425    Y=             -1.2329    Z=             -0.0001  Tot=              8.8290
 Quadrupole moment (field-independent basis, Debye-Ang):
   XX=            -31.9441   YY=            -57.3156   ZZ=            -73.3594
   XY=              6.9194   XZ=              0.0020   YZ=             -0.0016
 Traceless Quadrupole moment (field-independent basis, Debye-Ang):
   XX=             22.2622   YY=             -3.1092   ZZ=            -19.1530
   XY=              6.9194   XZ=              0.0020   YZ=             -0.0016
 Octapole moment (field-independent basis, Debye-Ang**2):
  XXX=            -24.6205  YYY=              0.3165  ZZZ=              0.0082  XYY=              7.9172
  XXY=            -25.5477  XXZ=             -0.0090  XZZ=             17.1407  YZZ=             -4.2404
  YYZ=              0.0059  XYZ=              0.0055
 Hexadecapole moment (field-independent basis, Debye-Ang**3):
 XXXX=          -2016.7441 YYYY=           -497.5690 ZZZZ=            -87.3141 XXXY=             68.0996
 XXXZ=              0.0610 YYYX=             -2.9815 YYYZ=              0.0004 ZZZX=             -0.0139
 ZZZY=             -0.0036 XXYY=           -477.5236 XXZZ=           -427.7753 YYZZ=           -109.1148
 XXYZ=             -0.0167 YYXZ=             -0.0081 ZZXY=              1.7407
 N-N= 7.872437241851D+02 E-N=-8.687850379689D+03  KE= 2.988491354709D+03
 There are a total of      410352 grid points.
 ElSum from          density=      103.0000039355
 ElSum from atomic densities=      104.0000012679
 Hirshfeld populations at iteration   1 (CA, CB, DipXYZ):
               1          2          3          4          5
     1  O    4.307460   3.632048   0.018273  -0.022395  -0.000017
     2  C    2.912283   2.848656  -0.071367   0.028188  -0.000491
     3  C    3.050349   2.933485  -0.014922  -0.014356  -0.000002
     4  C    3.013814   3.003550  -0.019758  -0.030471   0.000020
     5  C    2.981270   2.975109  -0.014960  -0.068906  -0.000018
     6  C    3.015370   3.006442   0.002857  -0.068425  -0.000017
     7  C    2.965778   2.975180   0.058027   0.000839  -0.000018
     8  Br  17.461386  17.464950   0.094561  -0.006634  -0.000001
     9  C    3.008191   3.000663   0.027282   0.057901  -0.000004
    10  C    2.994923   2.993937  -0.023433   0.070740  -0.000002
    11  C    3.054380   2.950657  -0.056984   0.031574   0.000259
    12  H    0.457037   0.452875  -0.109111  -0.047151   0.139416
    13  H    0.457063   0.452874  -0.109227  -0.047238  -0.139273
    14  H    0.464945   0.462461   0.012686  -0.112847  -0.131017
    15  H    0.464956   0.462393   0.012755  -0.112854   0.131034
    16  H    0.464845   0.462595   0.053733  -0.167962   0.000013
    17  H    0.463228   0.461827   0.093648   0.152445   0.000021
    18  H    0.462725   0.460301  -0.058602   0.168016  -0.000015
       Tot  52.000002  51.000002  -0.104542  -0.189537  -0.000114

 Dip from Atomic Chgs             -3.335011  -0.295481   0.000093
         Total Dipole             -3.439552  -0.485017  -0.000021

 Hirshfeld charges, spin densities, dipoles, and CM5 charges using IRadAn=      5:
              Q-H        S-H        Dx         Dy         Dz        Q-CM5   
     1  O    0.060492   0.675412   0.018273  -0.022395  -0.000017   0.014015
     2  C    0.239061   0.063627  -0.071367   0.028188  -0.000491   0.268084
     3  C    0.016166   0.116864  -0.014922  -0.014356  -0.000002  -0.081335
     4  C   -0.017364   0.010264  -0.019758  -0.030471   0.000020  -0.116706
     5  C    0.043622   0.006161  -0.014960  -0.068906  -0.000018   0.032939
     6  C   -0.021812   0.008928   0.002857  -0.068425  -0.000017  -0.071929
     7  C    0.059042  -0.009402   0.058027   0.000839  -0.000018   0.037844
     8  Br   0.073664  -0.003564   0.094561  -0.006634  -0.000001   0.088768
     9  C   -0.008854   0.007529   0.027282   0.057901  -0.000004  -0.061341
    10  C    0.011140   0.000985  -0.023433   0.070740  -0.000002  -0.039537
    11  C   -0.005037   0.103723  -0.056984   0.031574   0.000259  -0.008022
    12  H    0.090088   0.004162  -0.109111  -0.047151   0.139416   0.145511
    13  H    0.090062   0.004189  -0.109227  -0.047238  -0.139273   0.145485
    14  H    0.072595   0.002484   0.012686  -0.112847  -0.131017   0.126580
    15  H    0.072651   0.002564   0.012755  -0.112854   0.131034   0.126638
    16  H    0.072559   0.002250   0.053733  -0.167962   0.000013   0.128677
    17  H    0.074945   0.001400   0.093648   0.152445   0.000021   0.130739
    18  H    0.076973   0.002424  -0.058602   0.168016  -0.000015   0.133587
       Tot   0.999996   1.000000  -0.104542  -0.189537  -0.000114   0.999996
 Hirshfeld charges and spin densities with hydrogens summed into heavy atoms:
              Q-H        S-H       Q-CM5   
     1  O    0.060492   0.675412   0.014015
     2  C    0.239061   0.063627   0.268084
     3  C    0.196317   0.125214   0.209661
     4  C    0.127882   0.015312   0.136513
     5  C    0.043622   0.006161   0.032939
     6  C    0.050748   0.011178   0.056747
     7  C    0.059042  -0.009402   0.037844
     8  Br   0.073664  -0.003564   0.088768
     9  C    0.066091   0.008929   0.069398
    10  C    0.088114   0.003409   0.094050
    11  C   -0.005037   0.103723  -0.008022
 
 EQQ= 0.661778298475E-01 EQD=-0.242625952593E-01 EDD= 0.755047541933E-02
 EQQ+QD+DD= 0.494657100076E-01
 
                          Isotropic Fermi Contact Couplings
        Atom                 a.u.       MegaHertz       Gauss      10(-4) cm-1
     1  O(17)              0.25974    -157.45435     -56.18363     -52.52112
     2  C(13)             -0.08278     -93.06348     -33.20736     -31.04263
     3  C(13)              0.05789      65.07724      23.22118      21.70743
     4  C(13)             -0.00507      -5.70500      -2.03569      -1.90298
     5  C(13)             -0.00598      -6.72330      -2.39904      -2.24265
     6  C(13)              0.00538       6.04773       2.15798       2.01731
     7  C(13)             -0.00364      -4.09047      -1.45958      -1.36443
     8  Br(79)            -0.00083      -0.92816      -0.33119      -0.30960
     9  C(13)              0.00599       6.73630       2.40368       2.24699
    10  C(13)             -0.00653      -7.34255      -2.62000      -2.44921
    11  C(13)              0.08073      90.75319      32.38299      30.27200
    12  H(1)              -0.00174      -7.79146      -2.78019      -2.59895
    13  H(1)              -0.00173      -7.75281      -2.76639      -2.58606
    14  H(1)               0.00117       5.22179       1.86327       1.74180
    15  H(1)               0.00122       5.47321       1.95298       1.82567
    16  H(1)               0.00100       4.45656       1.59021       1.48655
    17  H(1)               0.00056       2.51539       0.89755       0.83904
    18  H(1)               0.00077       3.45721       1.23362       1.15320
 --------------------------------------------------------
       Center         ----  Spin Dipole Couplings  ----
                      3XX-RR        3YY-RR        3ZZ-RR
 --------------------------------------------------------
     1   Atom        1.135962      0.163364     -1.299326
     2   Atom        0.058841      0.059030     -0.117872
     3   Atom       -0.113886      0.237785     -0.123899
     4   Atom        0.005222      0.008818     -0.014040
     5   Atom        0.000044      0.035787     -0.035831
     6   Atom        0.006998     -0.008099      0.001101
     7   Atom        0.012309      0.007459     -0.019768
     8   Atom        0.031138      0.017632     -0.048771
     9   Atom        0.010485     -0.009390     -0.001095
    10   Atom        0.019807      0.004671     -0.024478
    11   Atom        0.199819     -0.101313     -0.098506
    12   Atom       -0.007161      0.004736      0.002425
    13   Atom       -0.007137      0.004742      0.002395
    14   Atom       -0.001534      0.002254     -0.000721
    15   Atom       -0.001547      0.002253     -0.000706
    16   Atom        0.000753      0.001025     -0.001778
    17   Atom        0.001984     -0.000262     -0.001721
    18   Atom        0.006694      0.000282     -0.006975
 --------------------------------------------------------
                        XY            XZ            YZ
 --------------------------------------------------------
     1   Atom        2.151501      0.006854      0.005281
     2   Atom        0.017080     -0.000145      0.000062
     3   Atom        0.049532     -0.000016     -0.000085
     4   Atom       -0.018009      0.000091     -0.000060
     5   Atom       -0.015947      0.000103     -0.000377
     6   Atom       -0.006212      0.000136     -0.000043
     7   Atom       -0.000489      0.000026      0.000024
     8   Atom       -0.002496     -0.000557      0.000138
     9   Atom        0.001285      0.000241      0.000003
    10   Atom        0.011483      0.000138      0.000064
    11   Atom       -0.062950     -0.001980      0.000369
    12   Atom        0.005103     -0.013612     -0.007021
    13   Atom        0.005104      0.013624      0.007003
    14   Atom       -0.002980     -0.000578      0.002823
    15   Atom       -0.002969      0.000568     -0.002831
    16   Atom       -0.002256      0.000001      0.000007
    17   Atom        0.001912     -0.000000     -0.000011
    18   Atom        0.007490     -0.000005      0.000003
 --------------------------------------------------------


 ---------------------------------------------------------------------------------
              Anisotropic Spin Dipole Couplings in Principal Axis System
 ---------------------------------------------------------------------------------

       Atom             a.u.   MegaHertz   Gauss  10(-4) cm-1        Axes

              Baa    -1.5561   112.599    40.178    37.559 -0.6243  0.7812  0.0006
     1 O(17)  Bbb    -1.2993    94.020    33.549    31.362 -0.0013 -0.0018  1.0000
              Bcc     2.8555  -206.619   -73.727   -68.921  0.7812  0.6243  0.0021
 
              Baa    -0.1179   -15.817    -5.644    -5.276  0.0009 -0.0004  1.0000
     2 C(13)  Bbb     0.0419     5.617     2.004     1.873  0.7091 -0.7051 -0.0009
              Bcc     0.0760    10.201     3.640     3.403  0.7051  0.7091 -0.0003
 
              Baa    -0.1239   -16.626    -5.933    -5.546  0.0015  0.0000  1.0000
     3 C(13)  Bbb    -0.1207   -16.201    -5.781    -5.404  0.9906 -0.1369 -0.0015
              Bcc     0.2446    32.827    11.713    10.950  0.1369  0.9906 -0.0002
 
              Baa    -0.0140    -1.884    -0.672    -0.628 -0.0087 -0.0042  1.0000
     4 C(13)  Bbb    -0.0111    -1.487    -0.530    -0.496  0.7413  0.6711  0.0093
              Bcc     0.0251     3.371     1.203     1.124 -0.6711  0.7414 -0.0027
 
              Baa    -0.0358    -4.808    -1.716    -1.604 -0.0006  0.0051  1.0000
     5 C(13)  Bbb    -0.0060    -0.810    -0.289    -0.270  0.9344  0.3563 -0.0013
              Bcc     0.0419     5.619     2.005     1.874 -0.3563  0.9344 -0.0050
 
              Baa    -0.0103    -1.386    -0.494    -0.462  0.3375  0.9413 -0.0005
     6 C(13)  Bbb     0.0011     0.147     0.053     0.049 -0.0164  0.0064  0.9998
              Bcc     0.0092     1.238     0.442     0.413  0.9412 -0.3375  0.0176
 
              Baa    -0.0198    -2.653    -0.947    -0.885 -0.0008 -0.0009  1.0000
     7 C(13)  Bbb     0.0074     0.994     0.355     0.332  0.0993  0.9951  0.0010
              Bcc     0.0124     1.658     0.592     0.553  0.9951 -0.0993  0.0007
 
              Baa    -0.0488    -6.542    -2.335    -2.182  0.0069 -0.0018  1.0000
     8 Br(79) Bbb     0.0172     2.305     0.823     0.769  0.1761  0.9844  0.0006
              Bcc     0.0316     4.237     1.512     1.413  0.9843 -0.1761 -0.0071
 
              Baa    -0.0095    -1.271    -0.454    -0.424 -0.0643  0.9979  0.0015
     9 C(13)  Bbb    -0.0011    -0.148    -0.053    -0.049 -0.0204 -0.0028  0.9998
              Bcc     0.0106     1.419     0.506     0.473  0.9977  0.0642  0.0206
 
              Baa    -0.0245    -3.285    -1.172    -1.096 -0.0028 -0.0011  1.0000
    10 C(13)  Bbb    -0.0015    -0.203    -0.072    -0.068 -0.4742  0.8804 -0.0004
              Bcc     0.0260     3.488     1.245     1.163  0.8804  0.4742  0.0030
 
              Baa    -0.1139   -15.290    -5.456    -5.100  0.1967  0.9805  0.0018
    11 C(13)  Bbb    -0.0985   -13.220    -4.717    -4.410  0.0060 -0.0030  1.0000
              Bcc     0.2125    28.510    10.173     9.510  0.9804 -0.1967 -0.0065
 
              Baa    -0.0168    -8.964    -3.198    -2.990  0.8171 -0.0057  0.5765
    12 H(1)   Bbb    -0.0010    -0.545    -0.194    -0.182 -0.3148  0.8333  0.4544
              Bcc     0.0178     9.508     3.393     3.172 -0.4830 -0.5528  0.6791
 
              Baa    -0.0168    -8.967    -3.200    -2.991  0.8165 -0.0058 -0.5773
    13 H(1)   Bbb    -0.0010    -0.535    -0.191    -0.179 -0.3151  0.8334 -0.4541
              Bcc     0.0178     9.502     3.391     3.170  0.4837  0.5527  0.6787
 
              Baa    -0.0036    -1.903    -0.679    -0.635  0.7110  0.5662 -0.4170
    14 H(1)   Bbb    -0.0016    -0.867    -0.309    -0.289  0.5805 -0.1380  0.8025
              Bcc     0.0052     2.770     0.988     0.924 -0.3968  0.8127  0.4268
 
              Baa    -0.0036    -1.906    -0.680    -0.636  0.7116  0.5653  0.4172
    15 H(1)   Bbb    -0.0016    -0.861    -0.307    -0.287 -0.5814  0.1403  0.8014
              Bcc     0.0052     2.767     0.987     0.923 -0.3945  0.8129 -0.4285
 
              Baa    -0.0018    -0.949    -0.339    -0.316 -0.0096 -0.0104  0.9999
    16 H(1)   Bbb    -0.0014    -0.731    -0.261    -0.244  0.7280  0.6854  0.0141
              Bcc     0.0031     1.680     0.600     0.560 -0.6855  0.7281  0.0010
 
              Baa    -0.0017    -0.919    -0.328    -0.306 -0.0117  0.0227  0.9997
    17 H(1)   Bbb    -0.0014    -0.724    -0.258    -0.241 -0.4966  0.8676 -0.0255
              Bcc     0.0031     1.642     0.586     0.548  0.8679  0.4967 -0.0012
 
              Baa    -0.0070    -3.722    -1.328    -1.241  0.0013 -0.0018  1.0000
    18 H(1)   Bbb    -0.0047    -2.486    -0.887    -0.829 -0.5507  0.8347  0.0022
              Bcc     0.0116     6.208     2.215     2.071  0.8347  0.5507 -0.0001
 

 ---------------------------------------------------------------------------------

 Running external command "gaunbo6 R"
         input file       "/home/rpaton/opt/dzvp/fukui/Gau-1718483.EIn"
         output file      "/home/rpaton/opt/dzvp/fukui/Gau-1718483.EOu"
         message file     "/home/rpaton/opt/dzvp/fukui/Gau-1718483.EMs"
         fchk file        "/home/rpaton/opt/dzvp/fukui/Gau-1718483.EFC"
         mat. el file     "/home/rpaton/opt/dzvp/fukui/Gau-1718483.EUF"

 Writing WrtUnf unformatted file "/home/rpaton/opt/dzvp/fukui/Gau-1718483.EUF"
 Gaussian matrix elements                                         Version   2 NLab=11 Len12L=8 Len4L=8
 Write SHELL TO ATOM MAP                   from file      0 offset           0 length                  93 to matrix element file.
 Write SHELL TYPES                         from file      0 offset           0 length                  93 to matrix element file.
 Write NUMBER OF PRIMITIVES PER SHELL      from file      0 offset           0 length                  93 to matrix element file.
 Write PRIMITIVE EXPONENTS                 from file      0 offset           0 length                 185 to matrix element file.
 Write CONTRACTION COEFFICIENTS            from file      0 offset           0 length                 185 to matrix element file.
 Write P(S=P) CONTRACTION COEFFICIENTS     from file      0 offset           0 length                 185 to matrix element file.
 Write COORDINATES OF EACH SHELL           from file      0 offset           0 length                 279 to matrix element file.
 Write BONDS PER ATOM                      from file      0 offset           0 length                  18 to matrix element file.
 Write BONDED ATOMS                        from file      0 offset           0 length                  38 to matrix element file.
 Write BOND TYPES                          from file      0 offset           0 length                  38 to matrix element file.
 Write ONIOM CHARGE/MULT                   from file      0 offset           0 length                  32 to matrix element file.
 Write ONIOM ATOM LAYERS                   from file      0 offset           0 length                  18 to matrix element file.
 Write ONIOM ATOM MODIFIERS                from file      0 offset           0 length                  18 to matrix element file.
 Write ONIOM ATOM TYPES                    from file      0 offset           0 length                  18 to matrix element file.
 Write ONIOM LINK ATOMS                    from file      0 offset           0 length                  18 to matrix element file.
 Write ONIOM LINK CHARGES                  from file      0 offset           0 length                  18 to matrix element file.
 Write ONIOM LINK DISTANCES                from file      0 offset           0 length                  72 to matrix element file.
 Write SYMINF INTS                         from file      0 offset           0 length                  26 to matrix element file.
 Write ROTTR TO SO                         from file      0 offset           0 length                  12 to matrix element file.
 Write GAUSSIAN SCALARS                    from file    501 offset           0 to matrix element file.
 Write OPTIMIZATION FLAGS                  from file      0 offset           0 length                  18 to matrix element file.
 Write INTEGER ISO                         from file      0 offset           0 length                  18 to matrix element file.
 Write INTEGER SPIN                        from file      0 offset           0 length                  18 to matrix element file.
 Write REAL ZEFFECTIVE                     from file      0 offset           0 length                  18 to matrix element file.
 Write REAL QUADRUPOLEMOMENT               from file      0 offset           0 length                  18 to matrix element file.
 Write REAL GFACTOR                        from file      0 offset           0 length                  18 to matrix element file.
 Write REAL ZNUCLEAR                       from file      0 offset           0 length                  18 to matrix element file.
 Write MULLIKEN CHARGES                    from file      0 offset           0 length                  18 to matrix element file.
 Write TYPE 6 CHARGES                      from file      0 offset           0 length                  18 to matrix element file.
 Write TYPE 7 CHARGES                      from file      0 offset           0 length                  18 to matrix element file.
 Write NUCLEAR GRADIENT                    from file  10584 offset           0 length                  54 to matrix element file.
 Array NUCLEAR FORCE CONSTANTS              on  file  10585 does not exist.
 Write ELECTRIC DIPOLE MOMENT              from file      0 offset           0 length                   3 to matrix element file.
 Write NON-ADIABATIC COUPLING              from file  10810 offset           0 length                  54 to matrix element file.
 Write FINITE EM FIELD                     from file  10521 offset           0 length                  35 to matrix element file.
 Write OVERLAP                             from file  10514 offset           0 length               21528 to matrix element file.
 Write CORE HAMILTONIAN ALPHA              from file  10515 offset           0 length               21528 to matrix element file.
 Write CORE HAMILTONIAN BETA               from file  10515 offset       21528 length               21528 to matrix element file.
 Write KINETIC ENERGY                      from file  10516 offset           0 length               21528 to matrix element file.
 Write ORTHOGONAL BASIS                    from file  10685 offset           0 length               42849 to matrix element file.
 Write DIPOLE INTEGRALS                    from file  10518 offset           0 length               64584 to matrix element file.
 Array DIP VEL INTEGRALS                    on  file  10572 does not exist.
 Array R X DEL INTEGRALS                    on  file  10572 does not exist.
 Write ALPHA ORBITAL ENERGIES              from file      0 offset           0 length                 207 to matrix element file.
 Write BETA ORBITAL ENERGIES               from file      0 offset           0 length                 207 to matrix element file.
 Write ALPHA MO COEFFICIENTS               from file  10524 offset           0 length               42849 to matrix element file.
 Write BETA MO COEFFICIENTS                from file  10526 offset           0 length               42849 to matrix element file.
 Write ALPHA DENSITY MATRIX                from file      0 offset           0 length               21528 to matrix element file.
 Write BETA DENSITY MATRIX                 from file      0 offset           0 length               21528 to matrix element file.
 Write ALPHA FOCK MATRIX                   from file  10536 offset           0 length               21528 to matrix element file.
 Write BETA FOCK MATRIX                    from file  10538 offset           0 length               21528 to matrix element file.
 Write ENERGY-WEIGHTED DENSITY             from file  10571 offset           0 length               21528 to matrix element file.
 Write ALPHA SCF DENSITY MATRIX            from file      0 offset           0 length               21528 to matrix element file.
 Write BETA SCF DENSITY MATRIX             from file      0 offset           0 length               21528 to matrix element file.
 No 2e integrals to process.
 Perform NBO analysis...

 *********************************** NBO 7.0 ***********************************
             N A T U R A L   A T O M I C   O R B I T A L   A N D
          N A T U R A L   B O N D   O R B I T A L   A N A L Y S I S
 **************************** Robert Paton (I101709) ***************************
  (c) Copyright 1996-2019 Board of Regents of the University of Wisconsin System
      on behalf of the Theoretical Chemistry Institute.  All rights reserved.

          Cite this program [NBO 7.0.5 (4-Jun-2019)] as:

          NBO 7.0.  E. D. Glendening, J. K. Badenhoop, A. E. Reed,
          J. E. Carpenter, J. A. Bohmann, C. M. Morales, P. Karafiloglou,
          C. R. Landis, and F. Weinhold, Theoretical Chemistry Institute,
          University of Wisconsin, Madison, WI (2018)

 Filename set to /home/rpaton/opt/dzvp/fukui/Gau-1718483

 Job title:  arbr31_wb97xd_popncreated by GaussianPrep


 NATURAL POPULATIONS:  Natural atomic orbital occupancies

  NAO Atom No lang   Type(AO)    Occupancy     Spin
 -----------------------------------------------------
   1    O  1  s      Cor( 1s)     1.99995     0.00000
   2    O  1  s      Val( 2s)     1.69875     0.01241
   3    O  1  s      Ryd( 3s)     0.00092    -0.00011
   4    O  1  px     Val( 2p)     1.37044     0.43891
   5    O  1  px     Ryd( 3p)     0.00154     0.00095
   6    O  1  py     Val( 2p)     1.45999     0.28151
   7    O  1  py     Ryd( 3p)     0.00112     0.00063
   8    O  1  pz     Val( 2p)     1.57391     0.04141
   9    O  1  pz     Ryd( 3p)     0.00105    -0.00005
  10    O  1  dxy    Ryd( 3d)     0.00285     0.00002
  11    O  1  dxz    Ryd( 3d)     0.00116    -0.00001
  12    O  1  dyz    Ryd( 3d)     0.00184    -0.00001
  13    O  1  dx2y2  Ryd( 3d)     0.00198     0.00054
  14    O  1  dz2    Ryd( 3d)     0.00097     0.00005

  15    C  2  s      Cor( 1s)     1.99995     0.00000
  16    C  2  s      Val( 2s)     0.84808    -0.01576
  17    C  2  s      Ryd( 3s)     0.00540    -0.00047
  18    C  2  px     Val( 2p)     0.93419    -0.00366
  19    C  2  px     Ryd( 3p)     0.00812    -0.00035
  20    C  2  py     Val( 2p)     0.88497    -0.00684
  21    C  2  py     Ryd( 3p)     0.01331    -0.00064
  22    C  2  pz     Val( 2p)     0.70027    -0.02310
  23    C  2  pz     Ryd( 3p)     0.00082    -0.00003
  24    C  2  dxy    Ryd( 3d)     0.00215     0.00010
  25    C  2  dxz    Ryd( 3d)     0.00229     0.00000
  26    C  2  dyz    Ryd( 3d)     0.00241    -0.00006
  27    C  2  dx2y2  Ryd( 3d)     0.00246     0.00166
  28    C  2  dz2    Ryd( 3d)     0.00077     0.00005

  29    C  3  s      Cor( 1s)     1.99994     0.00000
  30    C  3  s      Val( 2s)     1.06726     0.00849
  31    C  3  s      Ryd( 3s)     0.00091    -0.00003
  32    C  3  px     Val( 2p)     1.17193     0.00998
  33    C  3  px     Ryd( 3p)     0.00321     0.00050
  34    C  3  py     Val( 2p)     0.92515     0.12381
  35    C  3  py     Ryd( 3p)     0.00265     0.00016
  36    C  3  pz     Val( 2p)     1.27981     0.00397
  37    C  3  pz     Ryd( 3p)     0.00219    -0.00011
  38    C  3  dxy    Ryd( 3d)     0.00049     0.00004
  39    C  3  dxz    Ryd( 3d)     0.00090    -0.00001
  40    C  3  dyz    Ryd( 3d)     0.00031     0.00002
  41    C  3  dx2y2  Ryd( 3d)     0.00104     0.00022
  42    C  3  dz2    Ryd( 3d)     0.00079     0.00006

  43    C  4  s      Cor( 1s)     1.99994     0.00000
  44    C  4  s      Val( 2s)     1.02597    -0.00089
  45    C  4  s      Ryd( 3s)     0.00054     0.00001
  46    C  4  px     Val( 2p)     0.99109     0.00262
  47    C  4  px     Ryd( 3p)     0.00282     0.00011
  48    C  4  py     Val( 2p)     1.14957     0.00298
  49    C  4  py     Ryd( 3p)     0.00293     0.00018
  50    C  4  pz     Val( 2p)     1.27019    -0.00060
  51    C  4  pz     Ryd( 3p)     0.00366     0.00002
  52    C  4  dxy    Ryd( 3d)     0.00097    -0.00001
  53    C  4  dxz    Ryd( 3d)     0.00035     0.00000
  54    C  4  dyz    Ryd( 3d)     0.00081     0.00000
  55    C  4  dx2y2  Ryd( 3d)     0.00037     0.00004
  56    C  4  dz2    Ryd( 3d)     0.00077     0.00001

  57    C  5  s      Cor( 1s)     1.99996     0.00000
  58    C  5  s      Val( 2s)     0.86156    -0.00123
  59    C  5  s      Ryd( 3s)     0.00158    -0.00001
  60    C  5  px     Val( 2p)     1.10038    -0.00068
  61    C  5  px     Ryd( 3p)     0.00437     0.00013
  62    C  5  py     Val( 2p)     1.05032     0.00718
  63    C  5  py     Ryd( 3p)     0.00435     0.00008
  64    C  5  pz     Val( 2p)     0.91526    -0.01125
  65    C  5  pz     Ryd( 3p)     0.00201     0.00002
  66    C  5  dxy    Ryd( 3d)     0.00093    -0.00001
  67    C  5  dxz    Ryd( 3d)     0.00087     0.00001
  68    C  5  dyz    Ryd( 3d)     0.00075    -0.00001
  69    C  5  dx2y2  Ryd( 3d)     0.00099     0.00004
  70    C  5  dz2    Ryd( 3d)     0.00061     0.00001

  71    C  6  s      Cor( 1s)     1.99995     0.00000
  72    C  6  s      Val( 2s)     0.93631     0.00067
  73    C  6  s      Ryd( 3s)     0.00172    -0.00001
  74    C  6  px     Val( 2p)     1.07606     0.00443
  75    C  6  px     Ryd( 3p)     0.00526     0.00000
  76    C  6  py     Val( 2p)     1.20781     0.00068
  77    C  6  py     Ryd( 3p)     0.00738     0.00011
  78    C  6  pz     Val( 2p)     0.99050     0.00655
  79    C  6  pz     Ryd( 3p)     0.00105    -0.00001
  80    C  6  dxy    Ryd( 3d)     0.00087     0.00000
  81    C  6  dxz    Ryd( 3d)     0.00041    -0.00001
  82    C  6  dyz    Ryd( 3d)     0.00059     0.00000
  83    C  6  dx2y2  Ryd( 3d)     0.00087     0.00001
  84    C  6  dz2    Ryd( 3d)     0.00067     0.00000

  85    C  7  s      Cor( 1s)     1.99996     0.00000
  86    C  7  s      Val( 2s)     0.94492    -0.00066
  87    C  7  s      Ryd( 3s)     0.00096     0.00002
  88    C  7  px     Val( 2p)     1.02105    -0.00044
  89    C  7  px     Ryd( 3p)     0.00803     0.00002
  90    C  7  py     Val( 2p)     1.09854    -0.00058
  91    C  7  py     Ryd( 3p)     0.00816     0.00001
  92    C  7  pz     Val( 2p)     0.95781    -0.01221
  93    C  7  pz     Ryd( 3p)     0.00192     0.00003
  94    C  7  dxy    Ryd( 3d)     0.00136     0.00000
  95    C  7  dxz    Ryd( 3d)     0.00127     0.00000
  96    C  7  dyz    Ryd( 3d)     0.00079     0.00000
  97    C  7  dx2y2  Ryd( 3d)     0.00188     0.00000
  98    C  7  dz2    Ryd( 3d)     0.00086     0.00001

  99   Br  8  s      Cor( 1s)     2.00000     0.00000
 100   Br  8  s      Cor( 2s)     2.00000     0.00000
 101   Br  8  s      Cor( 3s)     2.00000     0.00000
 102   Br  8  s      Val( 4s)     1.85550    -0.00002
 103   Br  8  s      Ryd( 5s)     0.00300     0.00000
 104   Br  8  px     Cor( 2p)     2.00000     0.00000
 105   Br  8  px     Cor( 3p)     2.00000     0.00000
 106   Br  8  px     Val( 4p)     1.10685     0.00066
 107   Br  8  px     Ryd( 5p)     0.00305     0.00000
 108   Br  8  py     Cor( 2p)     2.00000     0.00000
 109   Br  8  py     Cor( 3p)     2.00000     0.00000
 110   Br  8  py     Val( 4p)     1.95869    -0.00001
 111   Br  8  py     Ryd( 5p)     0.00120     0.00000
 112   Br  8  pz     Cor( 2p)     2.00000     0.00000
 113   Br  8  pz     Cor( 3p)     2.00000     0.00000
 114   Br  8  pz     Val( 4p)     1.88696    -0.00362
 115   Br  8  pz     Ryd( 5p)     0.00106    -0.00002
 116   Br  8  dxy    Cor( 3d)     2.00000     0.00000
 117   Br  8  dxy    Ryd( 4d)     0.00149     0.00000
 118   Br  8  dxy    Ryd( 5d)     0.00001     0.00000
 119   Br  8  dxz    Cor( 3d)     2.00000     0.00000
 120   Br  8  dxz    Ryd( 4d)     0.00260     0.00001
 121   Br  8  dxz    Ryd( 5d)     0.00002     0.00000
 122   Br  8  dyz    Cor( 3d)     2.00000     0.00000
 123   Br  8  dyz    Ryd( 4d)     0.00006     0.00000
 124   Br  8  dyz    Ryd( 5d)     0.00000     0.00000
 125   Br  8  dx2y2  Cor( 3d)     1.99999     0.00000
 126   Br  8  dx2y2  Ryd( 4d)     0.00591     0.00001
 127   Br  8  dx2y2  Ryd( 5d)     0.00001     0.00000
 128   Br  8  dz2    Cor( 3d)     2.00000     0.00000
 129   Br  8  dz2    Ryd( 4d)     0.00206     0.00000
 130   Br  8  dz2    Ryd( 5d)     0.00000     0.00000

 131    C  9  s      Cor( 1s)     1.99995     0.00000
 132    C  9  s      Val( 2s)     0.95229     0.00066
 133    C  9  s      Ryd( 3s)     0.00135     0.00000
 134    C  9  px     Val( 2p)     1.11364     0.00451
 135    C  9  px     Ryd( 3p)     0.00632     0.00002
 136    C  9  py     Val( 2p)     1.16158     0.00039
 137    C  9  py     Ryd( 3p)     0.00580     0.00007
 138    C  9  pz     Val( 2p)     0.97209     0.00514
 139    C  9  pz     Ryd( 3p)     0.00089     0.00000
 140    C  9  dxy    Ryd( 3d)     0.00079     0.00000
 141    C  9  dxz    Ryd( 3d)     0.00057     0.00000
 142    C  9  dyz    Ryd( 3d)     0.00049    -0.00001
 143    C  9  dx2y2  Ryd( 3d)     0.00100     0.00000
 144    C  9  dz2    Ryd( 3d)     0.00066     0.00000

 145    C 10  s      Cor( 1s)     1.99995     0.00000
 146    C 10  s      Val( 2s)     0.94224    -0.00151
 147    C 10  s      Ryd( 3s)     0.00115     0.00000
 148    C 10  px     Val( 2p)     1.08568     0.00266
 149    C 10  px     Ryd( 3p)     0.00477     0.00079
 150    C 10  py     Val( 2p)     1.17674    -0.00161
 151    C 10  py     Ryd( 3p)     0.00600     0.00026
 152    C 10  pz     Val( 2p)     0.91135    -0.00980
 153    C 10  pz     Ryd( 3p)     0.00148     0.00006
 154    C 10  dxy    Ryd( 3d)     0.00102    -0.00001
 155    C 10  dxz    Ryd( 3d)     0.00072     0.00001
 156    C 10  dyz    Ryd( 3d)     0.00045    -0.00001
 157    C 10  dx2y2  Ryd( 3d)     0.00066     0.00003
 158    C 10  dz2    Ryd( 3d)     0.00061     0.00001

 159    C 11  s      Cor( 1s)     1.99996     0.00000
 160    C 11  s      Val( 2s)     0.86942     0.01433
 161    C 11  s      Ryd( 3s)     0.00221    -0.00005
 162    C 11  px     Val( 2p)     0.99821     0.09684
 163    C 11  px     Ryd( 3p)     0.00469    -0.00009
 164    C 11  py     Val( 2p)     1.13385     0.00467
 165    C 11  py     Ryd( 3p)     0.00439     0.00061
 166    C 11  pz     Val( 2p)     1.14886     0.01031
 167    C 11  pz     Ryd( 3p)     0.00133    -0.00006
 168    C 11  dxy    Ryd( 3d)     0.00072    -0.00003
 169    C 11  dxz    Ryd( 3d)     0.00027     0.00003
 170    C 11  dyz    Ryd( 3d)     0.00089    -0.00001
 171    C 11  dx2y2  Ryd( 3d)     0.00120     0.00023
 172    C 11  dz2    Ryd( 3d)     0.00067     0.00007

 173    H 12  s      Val( 1s)     0.69589    -0.00360
 174    H 12  s      Ryd( 2s)     0.00112     0.00005
 175    H 12  px     Ryd( 2p)     0.00036    -0.00001
 176    H 12  py     Ryd( 2p)     0.00015     0.00000
 177    H 12  pz     Ryd( 2p)     0.00071    -0.00001

 178    H 13  s      Val( 1s)     0.69592    -0.00358
 179    H 13  s      Ryd( 2s)     0.00112     0.00005
 180    H 13  px     Ryd( 2p)     0.00036    -0.00001
 181    H 13  py     Ryd( 2p)     0.00016     0.00000
 182    H 13  pz     Ryd( 2p)     0.00070    -0.00001

 183    H 14  s      Val( 1s)     0.71505     0.00209
 184    H 14  s      Ryd( 2s)     0.00130     0.00002
 185    H 14  px     Ryd( 2p)     0.00007     0.00000
 186    H 14  py     Ryd( 2p)     0.00041     0.00000
 187    H 14  pz     Ryd( 2p)     0.00068     0.00001

 188    H 15  s      Val( 1s)     0.71495     0.00219
 189    H 15  s      Ryd( 2s)     0.00130     0.00002
 190    H 15  px     Ryd( 2p)     0.00007     0.00000
 191    H 15  py     Ryd( 2p)     0.00041     0.00000
 192    H 15  pz     Ryd( 2p)     0.00068     0.00001

 193    H 16  s      Val( 1s)     0.71949     0.00167
 194    H 16  s      Ryd( 2s)     0.00136     0.00001
 195    H 16  px     Ryd( 2p)     0.00024     0.00000
 196    H 16  py     Ryd( 2p)     0.00084     0.00000
 197    H 16  pz     Ryd( 2p)     0.00013     0.00000

 198    H 17  s      Val( 1s)     0.71809     0.00080
 199    H 17  s      Ryd( 2s)     0.00135     0.00000
 200    H 17  px     Ryd( 2p)     0.00047     0.00000
 201    H 17  py     Ryd( 2p)     0.00063     0.00000
 202    H 17  pz     Ryd( 2p)     0.00011     0.00000

 203    H 18  s      Val( 1s)     0.72880     0.00291
 204    H 18  s      Ryd( 2s)     0.00134     0.00021
 205    H 18  px     Ryd( 2p)     0.00017     0.00000
 206    H 18  py     Ryd( 2p)     0.00092     0.00001
 207    H 18  pz     Ryd( 2p)     0.00013     0.00000


 Summary of Natural Population Analysis:

                                     Natural Population                 Natural
             Natural    ---------------------------------------------    Spin
  Atom No    Charge        Core      Valence    Rydberg      Total      Density
 -------------------------------------------------------------------------------
    O  1   -0.11647      1.99995     6.10309    0.01343     8.11647     0.77625
    C  2    0.59481      1.99995     3.36751    0.03774     5.40519    -0.04909
    C  3   -0.45657      1.99994     4.44416    0.01248     6.45657     0.14710
    C  4   -0.44996      1.99994     4.43682    0.01320     6.44996     0.00448
    C  5    0.05604      1.99996     3.92752    0.01647     5.94396    -0.00572
    C  6   -0.22946      1.99995     4.21068    0.01883     6.22946     0.01244
    C  7   -0.04753      1.99996     4.02232    0.02525     6.04753    -0.01378
   Br  8    0.17156     27.99997     6.80800    0.02046    34.82844    -0.00300
    C  9   -0.21744      1.99995     4.19961    0.01788     6.21744     0.01079
    C 10   -0.13280      1.99995     4.11600    0.01685     6.13280    -0.00913
    C 11   -0.16667      1.99996     4.15033    0.01637     6.16667     0.12684
    H 12    0.30177      0.00000     0.69589    0.00235     0.69823    -0.00356
    H 13    0.30173      0.00000     0.69592    0.00235     0.69827    -0.00354
    H 14    0.28250      0.00000     0.71505    0.00246     0.71750     0.00212
    H 15    0.28259      0.00000     0.71495    0.00245     0.71741     0.00222
    H 16    0.27793      0.00000     0.71949    0.00259     0.72207     0.00167
    H 17    0.27934      0.00000     0.71809    0.00257     0.72066     0.00080
    H 18    0.26864      0.00000     0.72880    0.00256     0.73136     0.00312
 ===============================================================================
 * Total *  1.00000     47.99948    54.77424    0.22628   103.00000     1.00000

                                 Natural Population
 ---------------------------------------------------------
   Core                      47.99948 ( 99.9989% of   48)
   Valence                   54.77424 ( 99.5895% of   55)
   Natural Minimal Basis    102.77372 ( 99.7803% of  103)
   Natural Rydberg Basis      0.22628 (  0.2197% of  103)
 ---------------------------------------------------------

    Atom No         Natural Electron Configuration
 ----------------------------------------------------------------------------
      O  1      [core]2s( 1.70)2p( 4.40)3d( 0.01)
      C  2      [core]2s( 0.85)2p( 2.52)3s( 0.01)3p( 0.02)3d( 0.01)
      C  3      [core]2s( 1.07)2p( 3.38)3p( 0.01)
      C  4      [core]2s( 1.03)2p( 3.41)3p( 0.01)
      C  5      [core]2s( 0.86)2p( 3.07)3p( 0.01)
      C  6      [core]2s( 0.94)2p( 3.27)3p( 0.01)
      C  7      [core]2s( 0.94)2p( 3.08)3p( 0.02)3d( 0.01)
     Br  8      [core]4s( 1.86)4p( 4.95)4d( 0.01)5p( 0.01)
      C  9      [core]2s( 0.95)2p( 3.25)3p( 0.01)
      C 10      [core]2s( 0.94)2p( 3.17)3p( 0.01)
      C 11      [core]2s( 0.87)2p( 3.28)3p( 0.01)
      H 12            1s( 0.70)
      H 13            1s( 0.70)
      H 14            1s( 0.72)
      H 15            1s( 0.71)
      H 16            1s( 0.72)
      H 17            1s( 0.72)
      H 18            1s( 0.73)


 ***************************************************
 *******         Alpha spin orbitals         *******
 ***************************************************


 NATURAL POPULATIONS:  Natural atomic orbital occupancies

  NAO Atom No lang   Type(AO)    Occupancy      Energy
 -------------------------------------------------------
   1    O  1  s      Cor( 1s)     0.99998     -19.58664
   2    O  1  s      Val( 2s)     0.85558      -1.05789
   3    O  1  s      Ryd( 3s)     0.00041       1.42583
   4    O  1  px     Val( 2p)     0.90467      -0.68440
   5    O  1  px     Ryd( 3p)     0.00125       0.96880
   6    O  1  py     Val( 2p)     0.87075      -0.67298
   7    O  1  py     Ryd( 3p)     0.00088       0.95542
   8    O  1  pz     Val( 2p)     0.80766      -0.61798
   9    O  1  pz     Ryd( 3p)     0.00050       0.91118
  10    O  1  dxy    Ryd( 3d)     0.00144       2.92232
  11    O  1  dxz    Ryd( 3d)     0.00058       2.47255
  12    O  1  dyz    Ryd( 3d)     0.00092       2.51778
  13    O  1  dx2y2  Ryd( 3d)     0.00126       2.66222
  14    O  1  dz2    Ryd( 3d)     0.00051       2.61231

  15    C  2  s      Cor( 1s)     0.99997     -10.64033
  16    C  2  s      Val( 2s)     0.41616      -0.32455
  17    C  2  s      Ryd( 3s)     0.00247       0.50518
  18    C  2  px     Val( 2p)     0.46526      -0.24102
  19    C  2  px     Ryd( 3p)     0.00388       0.53488
  20    C  2  py     Val( 2p)     0.43906      -0.23218
  21    C  2  py     Ryd( 3p)     0.00633       0.62306
  22    C  2  pz     Val( 2p)     0.33859      -0.32753
  23    C  2  pz     Ryd( 3p)     0.00040       0.42342
  24    C  2  dxy    Ryd( 3d)     0.00113       2.27589
  25    C  2  dxz    Ryd( 3d)     0.00115       1.76793
  26    C  2  dyz    Ryd( 3d)     0.00117       1.81771
  27    C  2  dx2y2  Ryd( 3d)     0.00206       2.27961
  28    C  2  dz2    Ryd( 3d)     0.00041       2.00422

  29    C  3  s      Cor( 1s)     0.99997     -10.53364
  30    C  3  s      Val( 2s)     0.53787      -0.40726
  31    C  3  s      Ryd( 3s)     0.00044       0.87994
  32    C  3  px     Val( 2p)     0.59095      -0.30410
  33    C  3  px     Ryd( 3p)     0.00185       0.45867
  34    C  3  py     Val( 2p)     0.52448      -0.30286
  35    C  3  py     Ryd( 3p)     0.00141       0.46589
  36    C  3  pz     Val( 2p)     0.64189      -0.33254
  37    C  3  pz     Ryd( 3p)     0.00104       0.63657
  38    C  3  dxy    Ryd( 3d)     0.00026       2.05070
  39    C  3  dxz    Ryd( 3d)     0.00045       2.31661
  40    C  3  dyz    Ryd( 3d)     0.00016       1.89268
  41    C  3  dx2y2  Ryd( 3d)     0.00063       2.05775
  42    C  3  dz2    Ryd( 3d)     0.00042       2.13691

  43    C  4  s      Cor( 1s)     0.99997     -10.49597
  44    C  4  s      Val( 2s)     0.51254      -0.34341
  45    C  4  s      Ryd( 3s)     0.00027       0.90619
  46    C  4  px     Val( 2p)     0.49686      -0.24314
  47    C  4  px     Ryd( 3p)     0.00146       0.49085
  48    C  4  py     Val( 2p)     0.57628      -0.26324
  49    C  4  py     Ryd( 3p)     0.00156       0.45835
  50    C  4  pz     Val( 2p)     0.63480      -0.29396
  51    C  4  pz     Ryd( 3p)     0.00184       0.67138
  52    C  4  dxy    Ryd( 3d)     0.00048       2.18664
  53    C  4  dxz    Ryd( 3d)     0.00017       1.92106
  54    C  4  dyz    Ryd( 3d)     0.00040       2.37419
  55    C  4  dx2y2  Ryd( 3d)     0.00020       2.06299
  56    C  4  dz2    Ryd( 3d)     0.00039       2.18364

  57    C  5  s      Cor( 1s)     0.99998     -10.51387
  58    C  5  s      Val( 2s)     0.43016      -0.22420
  59    C  5  s      Ryd( 3s)     0.00079       0.49724
  60    C  5  px     Val( 2p)     0.54985      -0.22325
  61    C  5  px     Ryd( 3p)     0.00225       0.95899
  62    C  5  py     Val( 2p)     0.52875      -0.22281
  63    C  5  py     Ryd( 3p)     0.00222       0.87270
  64    C  5  pz     Val( 2p)     0.45200      -0.28291
  65    C  5  pz     Ryd( 3p)     0.00102       0.53608
  66    C  5  dxy    Ryd( 3d)     0.00046       2.33645
  67    C  5  dxz    Ryd( 3d)     0.00044       1.83832
  68    C  5  dyz    Ryd( 3d)     0.00037       1.82340
  69    C  5  dx2y2  Ryd( 3d)     0.00052       2.35541
  70    C  5  dz2    Ryd( 3d)     0.00031       2.08976

  71    C  6  s      Cor( 1s)     0.99997     -10.48404
  72    C  6  s      Val( 2s)     0.46849      -0.23834
  73    C  6  s      Ryd( 3s)     0.00086       0.48623
  74    C  6  px     Val( 2p)     0.54024      -0.19768
  75    C  6  px     Ryd( 3p)     0.00263       0.63591
  76    C  6  py     Val( 2p)     0.60425      -0.25057
  77    C  6  py     Ryd( 3p)     0.00375       0.89900
  78    C  6  pz     Val( 2p)     0.49853      -0.28109
  79    C  6  pz     Ryd( 3p)     0.00052       0.48530
  80    C  6  dxy    Ryd( 3d)     0.00044       2.36611
  81    C  6  dxz    Ryd( 3d)     0.00020       1.83359
  82    C  6  dyz    Ryd( 3d)     0.00029       1.80821
  83    C  6  dx2y2  Ryd( 3d)     0.00044       2.34631
  84    C  6  dz2    Ryd( 3d)     0.00034       2.10977

  85    C  7  s      Cor( 1s)     0.99998     -10.53276
  86    C  7  s      Val( 2s)     0.47213      -0.31242
  87    C  7  s      Ryd( 3s)     0.00049       0.49195
  88    C  7  px     Val( 2p)     0.51031      -0.29310
  89    C  7  px     Ryd( 3p)     0.00403       0.89214
  90    C  7  py     Val( 2p)     0.54898      -0.22160
  91    C  7  py     Ryd( 3p)     0.00409       0.68218
  92    C  7  pz     Val( 2p)     0.47280      -0.30255
  93    C  7  pz     Ryd( 3p)     0.00098       0.51073
  94    C  7  dxy    Ryd( 3d)     0.00068       2.28090
  95    C  7  dxz    Ryd( 3d)     0.00064       1.70371
  96    C  7  dyz    Ryd( 3d)     0.00040       1.82970
  97    C  7  dx2y2  Ryd( 3d)     0.00094       2.16672
  98    C  7  dz2    Ryd( 3d)     0.00044       2.03516

  99   Br  8  s      Cor( 1s)     1.00000    -399.26387
 100   Br  8  s      Cor( 2s)     1.00000    -131.23008
 101   Br  8  s      Cor( 3s)     1.00000     -24.44886
 102   Br  8  s      Val( 4s)     0.92774      -0.89727
 103   Br  8  s      Ryd( 5s)     0.00150       0.45165
 104   Br  8  px     Cor( 2p)     1.00000     -38.89616
 105   Br  8  px     Cor( 3p)     1.00000     -24.47761
 106   Br  8  px     Val( 4p)     0.55376      -0.37475
 107   Br  8  px     Ryd( 5p)     0.00153       0.61663
 108   Br  8  py     Cor( 2p)     1.00000     -38.88660
 109   Br  8  py     Cor( 3p)     1.00000     -24.46838
 110   Br  8  py     Val( 4p)     0.97934      -0.49955
 111   Br  8  py     Ryd( 5p)     0.00060       0.63285
 112   Br  8  pz     Cor( 2p)     1.00000     -38.88728
 113   Br  8  pz     Cor( 3p)     1.00000     -24.46899
 114   Br  8  pz     Val( 4p)     0.94167      -0.49170
 115   Br  8  pz     Ryd( 5p)     0.00052       0.60167
 116   Br  8  dxy    Cor( 3d)     1.00000      -2.87987
 117   Br  8  dxy    Ryd( 4d)     0.00075       0.79512
 118   Br  8  dxy    Ryd( 5d)     0.00001       3.57446
 119   Br  8  dxz    Cor( 3d)     1.00000      -2.88059
 120   Br  8  dxz    Ryd( 4d)     0.00131       0.59501
 121   Br  8  dxz    Ryd( 5d)     0.00001       3.43610
 122   Br  8  dyz    Cor( 3d)     1.00000      -2.86889
 123   Br  8  dyz    Ryd( 4d)     0.00003       0.51194
 124   Br  8  dyz    Ryd( 5d)     0.00000       3.36022
 125   Br  8  dx2y2  Cor( 3d)     1.00000      -2.88006
 126   Br  8  dx2y2  Ryd( 4d)     0.00296       0.84052
 127   Br  8  dx2y2  Ryd( 5d)     0.00000       3.66102
 128   Br  8  dz2    Cor( 3d)     1.00000      -2.87314
 129   Br  8  dz2    Ryd( 4d)     0.00103       0.63194
 130   Br  8  dz2    Ryd( 5d)     0.00000       3.48047

 131    C  9  s      Cor( 1s)     0.99998     -10.48278
 132    C  9  s      Val( 2s)     0.47648      -0.25068
 133    C  9  s      Ryd( 3s)     0.00068       0.50423
 134    C  9  px     Val( 2p)     0.55908      -0.20684
 135    C  9  px     Ryd( 3p)     0.00317       0.73847
 136    C  9  py     Val( 2p)     0.58099      -0.23063
 137    C  9  py     Ryd( 3p)     0.00294       0.79938
 138    C  9  pz     Val( 2p)     0.48861      -0.27644
 139    C  9  pz     Ryd( 3p)     0.00045       0.48694
 140    C  9  dxy    Ryd( 3d)     0.00040       2.38153
 141    C  9  dxz    Ryd( 3d)     0.00028       1.81971
 142    C  9  dyz    Ryd( 3d)     0.00024       1.81238
 143    C  9  dx2y2  Ryd( 3d)     0.00050       2.32991
 144    C  9  dz2    Ryd( 3d)     0.00033       2.11194

 145    C 10  s      Cor( 1s)     0.99997     -10.49992
 146    C 10  s      Val( 2s)     0.47036      -0.24932
 147    C 10  s      Ryd( 3s)     0.00057       0.49182
 148    C 10  px     Val( 2p)     0.54417      -0.20317
 149    C 10  px     Ryd( 3p)     0.00278       0.65376
 150    C 10  py     Val( 2p)     0.58757      -0.23915
 151    C 10  py     Ryd( 3p)     0.00313       0.87460
 152    C 10  pz     Val( 2p)     0.45077      -0.27645
 153    C 10  pz     Ryd( 3p)     0.00077       0.47539
 154    C 10  dxy    Ryd( 3d)     0.00050       2.38228
 155    C 10  dxz    Ryd( 3d)     0.00036       1.83734
 156    C 10  dyz    Ryd( 3d)     0.00022       1.81643
 157    C 10  dx2y2  Ryd( 3d)     0.00035       2.38865
[...]
   48. BD ( 2) C  9- C 10     175. RY ( 5) C 11            0.59    2.21   0.046
   49. BD ( 1) C  9- H 17      66. BD*( 1) C  6- C  7      2.17    1.21   0.065
   49. BD ( 1) C  9- H 17      69. BD*( 1) C  7-Br  8      0.52    0.77   0.025
   49. BD ( 1) C  9- H 17      70. BD*( 1) C  7- C  9      0.39    1.20   0.027
   49. BD ( 1) C  9- H 17      71. BD*( 1) C  9- C 10      0.41    1.22   0.028
   49. BD ( 1) C  9- H 17      74. BD*( 1) C 10- C 11      1.97    1.20   0.061
   49. BD ( 1) C  9- H 17      75. BD*( 1) C 10- H 18      0.32    1.12   0.024
   49. BD ( 1) C  9- H 17     131. RY ( 2) C  7            0.47    1.74   0.036
   49. BD ( 1) C  9- H 17     162. RY ( 1) C 10            0.33    1.79   0.031
   50. BD ( 1) C 10- C 11      52. LV ( 1) O  1            0.42    0.50   0.018
   50. BD ( 1) C 10- C 11      55. BD*( 1) C  2- C  3      0.43    1.11   0.028
   50. BD ( 1) C 10- C 11      56. BD*( 1) C  2- C 11      1.77    1.18   0.058
   50. BD ( 1) C 10- C 11      60. BD*( 1) C  4- C  5      1.09    1.20   0.046
   50. BD ( 1) C 10- C 11      64. BD*( 1) C  5- C 11      2.69    1.35   0.076
   50. BD ( 1) C 10- C 11      71. BD*( 1) C  9- C 10      1.17    1.38   0.051
   50. BD ( 1) C 10- C 11      73. BD*( 1) C  9- H 17      1.05    1.30   0.047
   50. BD ( 1) C 10- C 11      75. BD*( 1) C 10- H 18      0.75    1.28   0.039
   50. BD ( 1) C 10- C 11      85. RY ( 1) C  2            0.66    1.33   0.037
   50. BD ( 1) C 10- C 11     112. RY ( 1) C  5            0.32    1.98   0.032
   50. BD ( 1) C 10- C 11     113. RY ( 2) C  5            0.27    1.90   0.028
   50. BD ( 1) C 10- C 11     153. RY ( 1) C  9            0.53    1.93   0.040
   50. BD ( 1) C 10- C 11     154. RY ( 2) C  9            0.89    1.52   0.046
   51. BD ( 1) C 10- H 18      56. BD*( 1) C  2- C 11      0.34    1.05   0.024
   51. BD ( 1) C 10- H 18      64. BD*( 1) C  5- C 11      2.49    1.21   0.069
   51. BD ( 1) C 10- H 18      70. BD*( 1) C  7- C  9      1.91    1.21   0.061
   51. BD ( 1) C 10- H 18      71. BD*( 1) C  9- C 10      0.48    1.24   0.031
   51. BD ( 1) C 10- H 18      73. BD*( 1) C  9- H 17      0.29    1.16   0.023
   51. BD ( 1) C 10- H 18     153. RY ( 1) C  9            0.33    1.79   0.031
   51. BD ( 1) C 10- H 18     171. RY ( 1) C 11            0.26    1.79   0.027


 NATURAL BOND ORBITALS (Summary):

                                                     Principal Delocalizations
           NBO                 Occupancy    Energy   (geminal,vicinal,remote)
 ===============================================================================
 Molecular unit  1  (C9H7OBr)
 ------ Lewis --------------------------------------
    1. CR ( 1) O  1             0.99998   -19.56813
    2. CR ( 1) C  2             0.99997   -10.64105
    3. CR ( 1) C  3             0.99997   -10.53094
    4. CR ( 1) C  4             0.99997   -10.49595
    5. CR ( 1) C  5             0.99998   -10.51386
    6. CR ( 1) C  6             0.99997   -10.48384
    7. CR ( 1) C  7             0.99998   -10.53297
    8. CR ( 1)Br  8             1.00000  -399.26388
    9. CR ( 2)Br  8             1.00000  -131.23009
   10. CR ( 3)Br  8             1.00000   -24.44887
   11. CR ( 4)Br  8             1.00000   -38.89616
   12. CR ( 5)Br  8             1.00000   -24.47761
   13. CR ( 6)Br  8             1.00000   -38.88661
   14. CR ( 7)Br  8             1.00000   -24.46838
   15. CR ( 8)Br  8             1.00000   -38.88731
   16. CR ( 9)Br  8             1.00000   -24.46902
   17. CR (10)Br  8             1.00000    -2.87987
   18. CR (11)Br  8             1.00000    -2.88060
   19. CR (12)Br  8             1.00000    -2.86891
   20. CR (13)Br  8             1.00000    -2.88006
   21. CR (14)Br  8             1.00000    -2.87316
   22. CR ( 1) C  9             0.99998   -10.48258
   23. CR ( 1) C 10             0.99997   -10.50007
   24. CR ( 1) C 11             0.99998   -10.51927
   25. LP ( 1) O  1             0.98972    -0.89105  85(v),56(v),55(v)
   26. LP ( 1)Br  8             0.99705    -0.88750  131(v),66(v),70(v)
   27. LP ( 2)Br  8             0.98668    -0.50173  70(v),66(v),130(v),71(r)
                                                     63(r)
   28. LP ( 3)Br  8             0.94622    -0.49317  67(v),132(v)
   29. BD ( 1) O  1- C  2       0.99779    -1.30068  56(g),171(v),55(g),94(v)
                                                     64(v)
   30. BD ( 2) O  1- C  2       0.99547    -0.73743  65(v),59(v),58(v)
   31. BD ( 1) C  2- C  3       0.88237    -0.83467  52(v),74(v),55(g),78(v)
                                                     56(g),105(v),171(v),90(g)
                                                     172(v),62(v),61(v)
   32. BD ( 1) C  2- C 11       0.89989    -0.85880  52(v),63(v),55(g),74(g)
                                                     71(v),56(g),94(v),64(g)
                                                     162(v),78(v),77(v),112(v)
                                                     113(v),58(v),57(v),90(g)
                                                     59(v)
   33. BD ( 1) C  3- C  4       0.98061    -0.81159  53(v),63(v),52(r),88(v)
                                                     113(v),60(g),58(g),59(g)
   34. BD ( 1) C  3- H 12       0.97448    -0.75621  54(v),56(v),52(r),103(v)
                                                     61(v),62(v),60(v),89(v)
   35. BD ( 1) C  3- H 13       0.97447    -0.75620  54(v),56(v),52(r),103(v)
                                                     62(v),61(v),60(v),89(v)
   36. BD ( 1) C  4- C  5       0.98612    -0.81262  74(v),63(g),66(v),64(g)
                                                     55(v),96(v),121(v),59(v)
                                                     58(v),56(v),61(g),62(g)
                                                     122(v),173(v)
   37. BD ( 1) C  4- H 14       0.97997    -0.72623  65(v),55(v),64(v),58(v)
                                                     59(v),95(v),114(v)
   38. BD ( 1) C  4- H 15       0.97985    -0.72621  65(v),55(v),64(v),59(v)
                                                     58(v),95(v),114(v)
   39. BD ( 1) C  5- C  6       0.97905    -0.86461  64(g),69(v),56(v),66(g)
                                                     60(g),68(g),130(v),131(v)
                                                     104(v),172(v),57(v),171(v)
   40. BD ( 1) C  5- C 11       0.97469    -0.87251  74(g),53(v),63(g),68(v)
                                                     75(v),52(r),60(g),56(g)
                                                     121(v),162(v),87(v),104(v)
                                                     122(v),61(v),62(v),57(v)
   41. BD ( 2) C  5- C 11       0.81012    -0.49952  54(v),72(v),67(v),164(v)
                                                     62(v),61(v),123(v),86(v)
                                                     92(v),65(g),103(v)
   42. BD ( 1) C  6- C  7       0.98893    -0.87860  60(v),70(g),63(g),112(v)
                                                     68(g),73(v),153(v)
   43. BD ( 2) C  6- C  7       0.81035    -0.48716  65(v),72(v),155(v),139(v)
                                                     118(v),67(g),115(v),54(r)
   44. BD ( 1) C  6- H 16       0.98631    -0.73056  64(v),70(v),131(v),63(g)
                                                     69(v),66(g),112(v)
   45. BD ( 1) C  7-Br  8       0.99102    -0.79260  63(v),71(v),153(v),121(v)
                                                     68(v)
   46. BD ( 1) C  7- C  9       0.99006    -0.87751  66(g),71(g),75(v),68(v)
                                                     73(g),163(v),121(v),162(v)
                                                     122(v)
   47. BD ( 1) C  9- C 10       0.97978    -0.85800  56(v),69(v),74(g),171(v)
                                                     70(g),131(v),75(g),73(g)
   48. BD ( 2) C  9- C 10       0.83081    -0.48203  67(v),65(v),175(v),132(v)
                                                     133(v),155(g),164(g),174(v)
   49. BD ( 1) C  9- H 17       0.98701    -0.72598  66(v),74(v),69(v),131(v)
                                                     71(g),70(g),162(v),75(v)
   50. BD ( 1) C 10- C 11       0.98344    -0.87966  64(g),56(g),71(g),60(v)
                                                     73(v),154(v),75(g),85(v)
                                                     153(v),55(v),52(r),112(v)
                                                     113(v)
   51. BD ( 1) C 10- H 18       0.98765    -0.74308  64(v),70(v),71(g),56(v)
                                                     153(v),73(v),171(v)
 ------ non-Lewis ----------------------------------
   52. LV ( 1) O  1             0.24596    -0.37631
   53. BD*( 1) O  1- C  2       0.00664     0.44851
   54. BD*( 2) O  1- C  2       0.13388    -0.16591
   55. BD*( 1) C  2- C  3       0.01333     0.23432
   56. BD*( 1) C  2- C 11       0.01982     0.30498
   57. BD*( 1) C  3- C  4       0.00329     0.27123
   58. BD*( 1) C  3- H 12       0.00464     0.36075
   59. BD*( 1) C  3- H 13       0.00464     0.36075
   60. BD*( 1) C  4- C  5       0.00941     0.32040
   61. BD*( 1) C  4- H 14       0.00565     0.38033
   62. BD*( 1) C  4- H 15       0.00564     0.38031
   63. BD*( 1) C  5- C  6       0.01220     0.49112
   64. BD*( 1) C  5- C 11       0.01528     0.46871
   65. BD*( 2) C  5- C 11       0.22238    -0.10951
   66. BD*( 1) C  6- C  7       0.01235     0.47958
   67. BD*( 2) C  6- C  7       0.16685    -0.09364
   68. BD*( 1) C  6- H 16       0.00682     0.40437
   69. BD*( 1) C  7-Br  8       0.01236     0.04319
   70. BD*( 1) C  7- C  9       0.01294     0.46949
   71. BD*( 1) C  9- C 10       0.00771     0.49671
   72. BD*( 2) C  9- C 10       0.11369    -0.07129
   73. BD*( 1) C  9- H 17       0.00642     0.41932
   74. BD*( 1) C 10- C 11       0.01200     0.47459
   75. BD*( 1) C 10- H 18       0.00589     0.39854
   76. RY ( 1) O  1             0.00050     0.96073
   77. RY ( 2) O  1             0.00018     1.36455
   78. RY ( 3) O  1             0.00015     1.14204
   79. RY ( 4) O  1             0.00002     0.90416
   80. RY ( 5) O  1             0.00001     3.00362
   81. RY ( 6) O  1             0.00000     2.45127
   82. RY ( 7) O  1             0.00000     2.72810
   83. RY ( 8) O  1             0.00000     2.58417
   84. RY ( 9) O  1             0.00000     2.62744
   85. RY ( 1) C  2             0.00844     0.44538
   86. RY ( 2) C  2             0.00229     1.72923
   87. RY ( 3) C  2             0.00122     1.14145
   88. RY ( 4) C  2             0.00100     0.71755
   89. RY ( 5) C  2             0.00056     1.21880
   90. RY ( 6) C  2             0.00027     2.11756
   91. RY ( 7) C  2             0.00010     1.79224
   92. RY ( 8) C  2             0.00009     1.05153
   93. RY ( 9) C  2             0.00001     1.99978
   94. RY ( 1) C  3             0.00137     0.62816
   95. RY ( 2) C  3             0.00109     0.87111
   96. RY ( 3) C  3             0.00104     0.70996
   97. RY ( 4) C  3             0.00019     0.96177
   98. RY ( 5) C  3             0.00012     1.89643
   99. RY ( 6) C  3             0.00003     1.90009
  100. RY ( 7) C  3             0.00003     1.80663
  101. RY ( 8) C  3             0.00001     2.03964
  102. RY ( 9) C  3             0.00000     2.12559
  103. RY ( 1) C  4             0.00165     0.83794
  104. RY ( 2) C  4             0.00151     0.59908
  105. RY ( 3) C  4             0.00075     0.61520
  106. RY ( 4) C  4             0.00019     1.95676
  107. RY ( 5) C  4             0.00012     0.92181
  108. RY ( 6) C  4             0.00001     1.97264
  109. RY ( 7) C  4             0.00001     2.16850
  110. RY ( 8) C  4             0.00000     2.09600
  111. RY ( 9) C  4             0.00000     2.07279
  112. RY ( 1) C  5             0.00241     1.09668
  113. RY ( 2) C  5             0.00134     1.01813
  114. RY ( 3) C  5             0.00116     0.86374
  115. RY ( 4) C  5             0.00050     1.70882
  116. RY ( 5) C  5             0.00041     0.60619
  117. RY ( 6) C  5             0.00012     2.23270
  118. RY ( 7) C  5             0.00012     1.62093
  119. RY ( 8) C  5             0.00002     2.05855
  120. RY ( 9) C  5             0.00001     2.09339
  121. RY ( 1) C  6             0.00344     1.04650
  122. RY ( 2) C  6             0.00182     0.61549
  123. RY ( 3) C  6             0.00055     0.48703
  124. RY ( 4) C  6             0.00046     0.56890
  125. RY ( 5) C  6             0.00022     1.82867
  126. RY ( 6) C  6             0.00004     2.22395
  127. RY ( 7) C  6             0.00001     1.81098
  128. RY ( 8) C  6             0.00001     2.25486
  129. RY ( 9) C  6             0.00000     2.11994
  130. RY ( 1) C  7             0.00385     0.71577
  131. RY ( 2) C  7             0.00352     1.01252
  132. RY ( 3) C  7             0.00154     0.94619
  133. RY ( 4) C  7             0.00046     1.82594
  134. RY ( 5) C  7             0.00038     0.50300
  135. RY ( 6) C  7             0.00026     2.20701
  136. RY ( 7) C  7             0.00015     2.01782
  137. RY ( 8) C  7             0.00002     1.26658
  138. RY ( 9) C  7             0.00000     2.07860
  139. RY ( 1)Br  8             0.00093     0.55155
  140. RY ( 2)Br  8             0.00058     0.64125
  141. RY ( 3)Br  8             0.00013     0.54272
  142. RY ( 4)Br  8             0.00004     0.83553
  143. RY ( 5)Br  8             0.00001     0.48601
  144. RY ( 6)Br  8             0.00001     0.73576
  145. RY ( 7)Br  8             0.00000     0.89043
  146. RY ( 8)Br  8             0.00000     0.77460
  147. RY ( 9)Br  8             0.00000     2.88354
  148. RY (10)Br  8             0.00000     3.30987
  149. RY (11)Br  8             0.00000     3.38278
  150. RY (12)Br  8             0.00000     3.45733
  151. RY (13)Br  8             0.00000     1.77565
  152. RY (14)Br  8             0.00000     2.90176
  153. RY ( 1) C  9             0.00327     1.04686
  154. RY ( 2) C  9             0.00138     0.64082
  155. RY ( 3) C  9             0.00049     0.69444
  156. RY ( 4) C  9             0.00042     0.55665
  157. RY ( 5) C  9             0.00020     1.63308
  158. RY ( 6) C  9             0.00007     2.26033
  159. RY ( 7) C  9             0.00002     2.22597
  160. RY ( 8) C  9             0.00001     1.79244
  161. RY ( 9) C  9             0.00000     2.12016
  162. RY ( 1) C 10             0.00253     1.06714
  163. RY ( 2) C 10             0.00137     0.62093
  164. RY ( 3) C 10             0.00097     0.86087
  165. RY ( 4) C 10             0.00025     0.62040
  166. RY ( 5) C 10             0.00016     1.48577
  167. RY ( 6) C 10             0.00005     2.16534
  168. RY ( 7) C 10             0.00001     2.27039
  169. RY ( 8) C 10             0.00000     2.14836
  170. RY ( 9) C 10             0.00000     1.78055
  171. RY ( 1) C 11             0.00303     1.04853
  172. RY ( 2) C 11             0.00133     0.94363
  173. RY ( 3) C 11             0.00103     0.71819
  174. RY ( 4) C 11             0.00073     0.62891
  175. RY ( 5) C 11             0.00049     1.73101
  176. RY ( 6) C 11             0.00010     2.26571
  177. RY ( 7) C 11             0.00009     1.74836
  178. RY ( 8) C 11             0.00005     2.00877
  179. RY ( 9) C 11             0.00000     2.08033
  180. RY ( 1) H 12             0.00054     0.26149
  181. RY ( 2) H 12             0.00005     1.73768
  182. RY ( 3) H 12             0.00002     1.72188
  183. RY ( 4) H 12             0.00001     2.15533
  184. RY ( 1) H 13             0.00054     0.26159
  185. RY ( 2) H 13             0.00005     1.73762
  186. RY ( 3) H 13             0.00002     1.72195
  187. RY ( 4) H 13             0.00001     2.15522
  188. RY ( 1) H 14             0.00065     0.28849
  189. RY ( 2) H 14             0.00004     1.79764
  190. RY ( 3) H 14             0.00003     1.73504
  191. RY ( 4) H 14             0.00000     2.17858
  192. RY ( 1) H 15             0.00064     0.28855
  193. RY ( 2) H 15             0.00004     1.79743
  194. RY ( 3) H 15             0.00003     1.73495
  195. RY ( 4) H 15             0.00000     2.17869
  196. RY ( 1) H 16             0.00068     0.29507
  197. RY ( 2) H 16             0.00007     1.60661
  198. RY ( 3) H 16             0.00003     2.18386
  199. RY ( 4) H 16             0.00002     2.05252
  200. RY ( 1) H 17             0.00068     0.29079
  201. RY ( 2) H 17             0.00006     1.60019
  202. RY ( 3) H 17             0.00003     2.17257
  203. RY ( 4) H 17             0.00001     2.05408
  204. RY ( 1) H 18             0.00057     0.27023
  205. RY ( 2) H 18             0.00007     1.58262
  206. RY ( 3) H 18             0.00003     2.25513
  207. RY ( 4) H 18             0.00001     1.93476
          -------------------------------
                 Total Lewis   49.86970  ( 97.7837%)
           Valence non-Lewis    1.05981  (  2.0781%)
           Rydberg non-Lewis    0.07049  (  0.1382%)
          -------------------------------
               Total unit  1   51.00000  (100.0000%)
              Charge unit  1    1.00000

 $CHOOSE
  ALPHA
   LONE 1 3 8 3 END
   BOND S 1 2 S 2 3 S 2 11 S 3 4 S 3 12 S 3 13 S 4 5 S 4 14 S 4 15 S 5 6 D 5 11
        D 6 7 S 6 16 S 7 8 S 7 9 D 9 10 S 9 17 S 10 11 S 10 18 END
  END
  BETA
   LONE 1 1 8 3 END
   BOND D 1 2 S 2 3 S 2 11 S 3 4 S 3 12 S 3 13 S 4 5 S 4 14 S 4 15 S 5 6 D 5 11
        D 6 7 S 6 16 S 7 8 S 7 9 D 9 10 S 9 17 S 10 11 S 10 18 END
  END
 $END

 NBO analysis completed in 2.08 CPU seconds (2 wall seconds)
 Maximum scratch memory used by NBO was 869295 words (6.63 MB)
 Maximum scratch memory used by G16NBO was 95172 words (0.73 MB)

 Opening RunExU unformatted file "/home/rpaton/opt/dzvp/fukui/Gau-1718483.EUF"
 Read unf file /home/rpaton/opt/dzvp/fukui/Gau-1718483.EUF:
 Label Gaussian matrix elements                                         IVers= 2 NLab= 2 Version=ES64L-G16RevC.01
 Title arbr31_wb97xd_popncreated by GaussianPrep                       
 NAtoms=    18 NBasis=   207 NBsUse=   207 ICharg=     1 Multip=     2 NE=   103 Len12L=8 Len4L=8 IOpCl= 1 ICGU=112
 GAUSSIAN SCALARS                    NI= 1 NR= 1 NTot=       1 LenBuf=    2 NRI=1 N=    1000
 NPA CHARGES                         NI= 0 NR= 1 NTot=      18 LenBuf= 2048 NRI=1 N=      18
 Recovered energy= -2995.52773941     dipole=     -3.439568022094     -0.485045260970     -0.000021579654
 Unable to Open any file for archive entry.
 1\1\GINC-DYNAMO\SP\UwB97XD\def2SVP\C9H7Br1O1(1+,2)\RPATON\27-Sep-2024\
 0\\# pop=(nbo6,hirshfeld) wb97xd/def2svp\\arbr31_wb97xd_popncreated by
  GaussianPrep\\1,2\O,0,3.851771,1.390675,-0.000345\C,0,3.10031,0.44923
 3,0.000691\C,0,3.500245,-1.028843,-0.000305\C,0,2.191172,-1.839151,-0.
 00001\C,0,1.094893,-0.796639,0.000188\C,0,-0.285064,-0.993061,0.000162
 \C,0,-1.106407,0.133939,0.000063\Br,0,-2.98305,-0.099586,-0.000057\C,0
 ,-0.587096,1.436771,-0.000029\C,0,0.790127,1.620314,0.000036\C,0,1.614
 887,0.496126,0.000219\H,0,4.129454,-1.22186,-0.882074\H,0,4.130272,-1.
 222566,0.880714\H,0,2.10463,-2.491724,0.88234\H,0,2.10427,-2.491621,-0
 .882402\H,0,-0.719309,-1.994394,0.00012\H,0,-1.265866,2.290607,-0.0001
 04\H,0,1.230727,2.61955,0.000082\\Version=ES64L-G16RevC.01\State=2-A\H
 F=-2995.5277394\S2=0.758295\S2-1=0.\S2A=0.750052\RMSD=2.654e-09\Dipole
 =3.439568,-0.4850454,0.0000216\Quadrupole=16.5514229,-2.3116075,-14.23
 98154,-5.1444148,0.0015038,0.0011986\PG=C01 [X(C9H7Br1O1)]\\@
 The archive entry for this job was punched.


 AND ALL THIS SCIENCE I DON'T UNDERSTAND
 IT'S JUST MY JOB FIVE DAYS A WEEK

                           -- ELTON JOHN, "ROCKET MAN"
 Job cpu time:       0 days  0 hours 16 minutes 26.5 seconds.
 Elapsed time:       0 days  0 hours  0 minutes 41.5 seconds.
 File lengths (MBytes):  RWF=     46 Int=      0 D2E=      0 Chk=      4 Scr=      1
 Normal termination of Gaussian 16 at Fri Sep 27 18:12:57 2024.
