 Entering Gaussian System, Link 0=/usr/local/Gaussian/G16C/g16/g16
 Input=arbr37_wb97xd_red.com
 Output=arbr37_wb97xd_red.log
 Initial command:
 /usr/local/Gaussian/G16C/g16/l1.exe "/home/rpaton/arbr500/dzvp/fukui/Gau-1916721.inp" -scrdir="/home/rpaton/arbr500/dzvp/fukui/"
 Entering Link 1 = /usr/local/Gaussian/G16C/g16/l1.exe PID=   1916722.
  
 Copyright (c) 1988-2019, Gaussian, Inc.  All Rights Reserved.
  
 This is part of the Gaussian(R) 16 program.  It is based on
 the Gaussian(R) 09 system (copyright 2009, Gaussian, Inc.),
 the Gaussian(R) 03 system (copyright 2003, Gaussian, Inc.),
 the Gaussian(R) 98 system (copyright 1998, Gaussian, Inc.),
 the Gaussian(R) 94 system (copyright 1995, Gaussian, Inc.),
 the Gaussian 92(TM) system (copyright 1992, Gaussian, Inc.),
 the Gaussian 90(TM) system (copyright 1990, Gaussian, Inc.),
 the Gaussian 88(TM) system (copyright 1988, Gaussian, Inc.),
 the Gaussian 86(TM) system (copyright 1986, Carnegie Mellon
 University), and the Gaussian 82(TM) system (copyright 1983,
 Carnegie Mellon University). Gaussian is a federally registered
 trademark of Gaussian, Inc.
  
 This software contains proprietary and confidential information,
 including trade secrets, belonging to Gaussian, Inc.
  
 This software is provided under written license and may be
 used, copied, transmitted, or stored only in accord with that
 written license.
  
 The following legend is applicable only to US Government
 contracts under FAR:
  
                    RESTRICTED RIGHTS LEGEND
  
 Use, reproduction and disclosure by the US Government is
 subject to restrictions as set forth in subparagraphs (a)
 and (c) of the Commercial Computer Software - Restricted
 Rights clause in FAR 52.227-19.
  
 Gaussian, Inc.
 340 Quinnipiac St., Bldg. 40, Wallingford CT 06492
  
  
 ---------------------------------------------------------------
 Warning -- This program may not be used in any manner that
 competes with the business of Gaussian, Inc. or will provide
 assistance to any competitor of Gaussian, Inc.  The licensee
 of this program is prohibited from giving any competitor of
 Gaussian, Inc. access to this program.  By using this program,
 the user acknowledges that Gaussian, Inc. is engaged in the
 business of creating and licensing software in the field of
 computational chemistry and represents and warrants to the
 licensee that it is not a competitor of Gaussian, Inc. and that
 it will not use this program in any manner prohibited above.
 ---------------------------------------------------------------
  

 Cite this work as:
 Gaussian 16, Revision C.01,
 M. J. Frisch, G. W. Trucks, H. B. Schlegel, G. E. Scuseria, 
 M. A. Robb, J. R. Cheeseman, G. Scalmani, V. Barone, 
 G. A. Petersson, H. Nakatsuji, X. Li, M. Caricato, A. V. Marenich, 
 J. Bloino, B. G. Janesko, R. Gomperts, B. Mennucci, H. P. Hratchian, 
 J. V. Ortiz, A. F. Izmaylov, J. L. Sonnenberg, D. Williams-Young, 
 F. Ding, F. Lipparini, F. Egidi, J. Goings, B. Peng, A. Petrone, 
 T. Henderson, D. Ranasinghe, V. G. Zakrzewski, J. Gao, N. Rega, 
 G. Zheng, W. Liang, M. Hada, M. Ehara, K. Toyota, R. Fukuda, 
 J. Hasegawa, M. Ishida, T. Nakajima, Y. Honda, O. Kitao, H. Nakai, 
 T. Vreven, K. Throssell, J. A. Montgomery, Jr., J. E. Peralta, 
 F. Ogliaro, M. J. Bearpark, J. J. Heyd, E. N. Brothers, K. N. Kudin, 
 V. N. Staroverov, T. A. Keith, R. Kobayashi, J. Normand, 
 K. Raghavachari, A. P. Rendell, J. C. Burant, S. S. Iyengar, 
 J. Tomasi, M. Cossi, J. M. Millam, M. Klene, C. Adamo, R. Cammi, 
 J. W. Ochterski, R. L. Martin, K. Morokuma, O. Farkas, 
 J. B. Foresman, and D. J. Fox, Gaussian, Inc., Wallingford CT, 2019.
 
 ******************************************
 Gaussian 16:  ES64L-G16RevC.01  3-Jul-2019
                28-Sep-2024 
 ******************************************
 %chk=arbr37_wb97xd_red.chk
 %mem=48GB
 %nprocshared=24
 Will use up to   24 processors via shared memory.
 -------------------------------------
 # pop=(nbo6,hirshfeld) wb97xd/def2svp
 -------------------------------------
 1/38=1,172=1/1;
 2/12=2,17=6,18=5,40=1/2;
 3/5=43,7=101,11=2,25=1,30=1,74=-58/1,2,3;
 4//1;
 5/5=2,38=5/2;
 6/7=2,8=2,9=2,10=2,28=1,40=1,79=1,113=1,114=1,124=3103,126=1/1,12;
 99/5=1,9=1/99;
 ----------------------------------------
 arbr37_wb97xd_redcreated by GaussianPrep
 ----------------------------------------
 Symbolic Z-matrix:
 Charge = -1 Multiplicity = 2
 Br                   -2.65797  -0.21924   0. 
 C                    -0.80079   0.15879   0. 
 C                    -0.37575   1.48941   0. 
 C                     0.98756   1.78409   0. 
 C                     1.90735   0.73671   0. 
 C                     1.46336  -0.59884   0. 
 C                     0.10876  -0.90188   0. 
 C                     2.66185  -1.51071  0. 
 C                     3.81507  -0.54233   0. 
 C                     3.37507   0.7288   0. 
 H                    -1.11377   2.29289  0. 
 H                     1.32017   2.82438  0. 
 H                    -0.24558  -1.93429   0. 
 H                     2.67841  -2.17126  -0.88419 
 H                     2.67841  -2.17127   0.88418 
 H                     4.85945  -0.85604   0.00001 
 H                     3.9969    1.6247   0. 
 
                          Input orientation:                          
 ---------------------------------------------------------------------
 Center     Atomic      Atomic             Coordinates (Angstroms)
 Number     Number       Type             X           Y           Z
 ---------------------------------------------------------------------
      1         35           0       -2.657969   -0.219239    0.000000
      2          6           0       -0.800785    0.158792    0.000001
      3          6           0       -0.375752    1.489412    0.000000
      4          6           0        0.987563    1.784087    0.000000
      5          6           0        1.907351    0.736706    0.000000
      6          6           0        1.463360   -0.598840    0.000001
      7          6           0        0.108760   -0.901878    0.000001
      8          6           0        2.661849   -1.510705   -0.000003
      9          6           0        3.815073   -0.542328    0.000004
     10          6           0        3.375071    0.728796   -0.000002
     11          1           0       -1.113771    2.292891   -0.000001
     12          1           0        1.320172    2.824375   -0.000001
     13          1           0       -0.245580   -1.934291    0.000000
     14          1           0        2.678408   -2.171260   -0.884188
     15          1           0        2.678408   -2.171269    0.884176
     16          1           0        4.859451   -0.856040    0.000007
     17          1           0        3.996898    1.624698   -0.000003
 ---------------------------------------------------------------------
                    Distance matrix (angstroms):
                    1          2          3          4          5
     1  Br   0.000000
     2  C    1.895268   0.000000
     3  C    2.850965   1.396855   0.000000
     4  C    4.159714   2.416562   1.394798   0.000000
     5  C    4.664330   2.769113   2.403981   1.393921   0.000000
     6  C    4.138774   2.387542   2.782648   2.429964   1.407413
     7  C    2.849699   1.397245   2.439881   2.826075   2.433082
     8  C    5.474335   3.844093   4.269394   3.695793   2.370680
     9  C    6.481100   4.668802   4.657358   3.661560   2.296809
    10  C    6.107073   4.214579   3.827167   2.610332   1.467741
    11  H    2.948787   2.156928   1.090986   2.162056   3.398366
    12  H    5.008911   3.406434   2.158306   1.092167   2.168673
    13  H    2.959903   2.165467   3.426177   3.917522   3.430647
    14  H    5.750573   4.279686   4.848732   4.391528   3.135695
    15  H    5.750575   4.279688   4.848737   4.391533   3.135700
    16  H    7.544344   5.750492   5.736593   4.686340   3.354360
    17  H    6.905603   5.016637   4.374742   3.013553   2.270404
                    6          7          8          9         10
     6  C    0.000000
     7  C    1.388083   0.000000
     8  C    1.505946   2.624678   0.000000
     9  C    2.352392   3.723712   1.505882   0.000000
    10  C    2.327500   3.650738   2.350330   1.345124   0.000000
    11  H    3.873463   3.420692   5.359352   5.686121   4.753535
    12  H    3.426208   3.918224   4.537953   4.190372   2.934972
    13  H    2.168849   1.091528   2.938123   4.292606   4.494569
    14  H    2.175003   2.999369   1.103807   2.174218   3.110860
    15  H    2.175003   2.999368   1.103808   2.174216   3.110866
    16  H    3.405816   4.750912   2.293042   1.090477   2.171426
    17  H    3.370895   4.636939   3.407801   2.174641   1.090555
                   11         12         13         14         15
    11  H    0.000000
    12  H    2.491296   0.000000
    13  H    4.315417   5.009639   0.000000
    14  H    5.923770   5.251948   3.063927   0.000000
    15  H    5.923775   5.251955   3.063924   1.768364   0.000000
    16  H    6.752418   5.106070   5.217659   2.696025   2.696021
    17  H    5.154165   2.933272   5.537601   4.114547   4.114554
                   16         17
    16  H    0.000000
    17  H    2.626416   0.000000
 Stoichiometry    C9H7Br(1-,2)
 Framework group  C1[X(C9H7Br)]
 Deg. of freedom    45
 Full point group                 C1      NOp   1
 Largest Abelian subgroup         C1      NOp   1
 Largest concise Abelian subgroup C1      NOp   1
                         Standard orientation:                         
 ---------------------------------------------------------------------
 Center     Atomic      Atomic             Coordinates (Angstroms)
 Number     Number       Type             X           Y           Z
 ---------------------------------------------------------------------
      1         35           0        2.657969   -0.219239    0.000000
      2          6           0        0.800785    0.158792   -0.000001
      3          6           0        0.375752    1.489412    0.000000
      4          6           0       -0.987563    1.784087    0.000000
      5          6           0       -1.907351    0.736706    0.000000
      6          6           0       -1.463360   -0.598840   -0.000001
      7          6           0       -0.108760   -0.901878   -0.000001
      8          6           0       -2.661849   -1.510705    0.000003
      9          6           0       -3.815073   -0.542328   -0.000004
     10          6           0       -3.375071    0.728796    0.000002
     11          1           0        1.113771    2.292891    0.000001
     12          1           0       -1.320172    2.824375    0.000001
     13          1           0        0.245580   -1.934291    0.000000
     14          1           0       -2.678408   -2.171260    0.884188
     15          1           0       -2.678408   -2.171269   -0.884176
     16          1           0       -4.859451   -0.856040   -0.000007
     17          1           0       -3.996898    1.624698    0.000003
 ---------------------------------------------------------------------
 Rotational constants (GHZ):           3.1948497           0.4609774           0.4038655
 Standard basis: def2SVP (5D, 7F)
 There are   205 symmetry adapted cartesian basis functions of A   symmetry.
 There are   193 symmetry adapted basis functions of A   symmetry.
   193 basis functions,   354 primitive gaussians,   205 cartesian basis functions
    49 alpha electrons       48 beta electrons
       nuclear repulsion energy       680.7950038719 Hartrees.
 NAtoms=   17 NActive=   17 NUniq=   17 SFac= 1.00D+00 NAtFMM=   60 NAOKFM=F Big=F
 Integral buffers will be    131072 words long.
 Raffenetti 2 integral format.
 Two-electron integral symmetry is turned on.
 Nuclear repulsion after empirical dispersion term =      680.7857814004 Hartrees.
 One-electron integrals computed using PRISM.
   1 Symmetry operations used in ECPInt.
 ECPInt:  NShTT=    3828 NPrTT=   15229 LenC2=    3696 LenP2D=   11214.
 LDataN:  DoStor=T MaxTD1= 4 Len=   56
 NBasis=   193 RedAO= T EigKep=  2.64D-04  NBF=   193
 NBsUse=   193 1.00D-06 EigRej= -1.00D+00 NBFU=   193
 ExpMin= 1.22D-01 ExpMax= 1.13D+05 ExpMxC= 1.70D+04 IAcc=3 IRadAn=         5 AccDes= 0.00D+00
 Harris functional with IExCor= 4639 and IRadAn=       5 diagonalized for initial guess.
 HarFok:  IExCor= 4639 AccDes= 0.00D+00 IRadAn=         5 IDoV= 1 UseB2=F ITyADJ=14
 ICtDFT=  3500011 ScaDFX=  1.000000  1.000000  1.000000  1.000000
 FoFCou: FMM=F IPFlag=           0 FMFlag=      100000 FMFlg1=           0
         NFxFlg=           0 DoJE=T BraDBF=F KetDBF=T FulRan=T
         wScrn=  0.000000 ICntrl=       500 IOpCl=  0 I1Cent=   200000004 NGrid=           0
         NMat0=    1 NMatS0=      1 NMatT0=    0 NMatD0=    1 NMtDS0=    0 NMtDT0=    0
 Petite list used in FoFCou.
 Initial guess <Sx>= 0.0000 <Sy>= 0.0000 <Sz>= 0.5000 <S**2>= 0.7500 S= 0.5000
 Requested convergence on RMS density matrix=1.00D-08 within 128 cycles.
 Requested convergence on MAX density matrix=1.00D-06.
 Requested convergence on             energy=1.00D-06.
 No special actions if energy rises.
 Integral accuracy reduced to 1.0D-05 until final iterations.
 Initial convergence to 1.0D-05 achieved.  Increase integral accuracy.
 SCF Done:  E(UwB97XD) =  -2920.66976563     A.U. after   29 cycles
            NFock= 29  Conv=0.71D-08     -V/T= 2.0022
 <Sx>= 0.0000 <Sy>= 0.0000 <Sz>= 0.5000 <S**2>= 0.7742 S= 0.5120
 <L.S>= 0.000000000000E+00
 Annihilation of the first spin contaminant:
 S**2 before annihilation     0.7742,   after     0.7503

 **********************************************************************

            Population analysis using the SCF Density.

 **********************************************************************

 Orbital symmetries:
 Alpha Orbitals:
       Occupied  (A) (A) (A) (A) (A) (A) (A) (A) (A) (A) (A) (A)
                 (A) (A) (A) (A) (A) (A) (A) (A) (A) (A) (A) (A)
                 (A) (A) (A) (A) (A) (A) (A) (A) (A) (A) (A) (A)
                 (A) (A) (A) (A) (A) (A) (A) (A) (A) (A) (A) (A)
                 (A)
       Virtual   (A) (A) (A) (A) (A) (A) (A) (A) (A) (A) (A) (A)
                 (A) (A) (A) (A) (A) (A) (A) (A) (A) (A) (A) (A)
                 (A) (A) (A) (A) (A) (A) (A) (A) (A) (A) (A) (A)
                 (A) (A) (A) (A) (A) (A) (A) (A) (A) (A) (A) (A)
                 (A) (A) (A) (A) (A) (A) (A) (A) (A) (A) (A) (A)
                 (A) (A) (A) (A) (A) (A) (A) (A) (A) (A) (A) (A)
                 (A) (A) (A) (A) (A) (A) (A) (A) (A) (A) (A) (A)
                 (A) (A) (A) (A) (A) (A) (A) (A) (A) (A) (A) (A)
                 (A) (A) (A) (A) (A) (A) (A) (A) (A) (A) (A) (A)
                 (A) (A) (A) (A) (A) (A) (A) (A) (A) (A) (A) (A)
                 (A) (A) (A) (A) (A) (A) (A) (A) (A) (A) (A) (A)
                 (A) (A) (A) (A) (A) (A) (A) (A) (A) (A) (A) (A)
 Beta  Orbitals:
       Occupied  (A) (A) (A) (A) (A) (A) (A) (A) (A) (A) (A) (A)
                 (A) (A) (A) (A) (A) (A) (A) (A) (A) (A) (A) (A)
                 (A) (A) (A) (A) (A) (A) (A) (A) (A) (A) (A) (A)
                 (A) (A) (A) (A) (A) (A) (A) (A) (A) (A) (A) (A)
       Virtual   (A) (A) (A) (A) (A) (A) (A) (A) (A) (A) (A) (A)
                 (A) (A) (A) (A) (A) (A) (A) (A) (A) (A) (A) (A)
                 (A) (A) (A) (A) (A) (A) (A) (A) (A) (A) (A) (A)
                 (A) (A) (A) (A) (A) (A) (A) (A) (A) (A) (A) (A)
                 (A) (A) (A) (A) (A) (A) (A) (A) (A) (A) (A) (A)
                 (A) (A) (A) (A) (A) (A) (A) (A) (A) (A) (A) (A)
                 (A) (A) (A) (A) (A) (A) (A) (A) (A) (A) (A) (A)
                 (A) (A) (A) (A) (A) (A) (A) (A) (A) (A) (A) (A)
                 (A) (A) (A) (A) (A) (A) (A) (A) (A) (A) (A) (A)
                 (A) (A) (A) (A) (A) (A) (A) (A) (A) (A) (A) (A)
                 (A) (A) (A) (A) (A) (A) (A) (A) (A) (A) (A) (A)
                 (A) (A) (A) (A) (A) (A) (A) (A) (A) (A) (A) (A)
                 (A)
 The electronic state is 2-A.
 Alpha  occ. eigenvalues -- -482.90290 -62.48488 -56.29220 -56.28922 -56.28915
 Alpha  occ. eigenvalues --  -10.15659 -10.13955 -10.13681 -10.13491 -10.12471
 Alpha  occ. eigenvalues --  -10.12127 -10.11132 -10.10553 -10.09916  -8.65439
 Alpha  occ. eigenvalues --   -6.47864  -6.46751  -6.46714  -2.58266  -2.57941
 Alpha  occ. eigenvalues --   -2.57913  -2.57019  -2.57019  -0.80210  -0.76335
 Alpha  occ. eigenvalues --   -0.71160  -0.67263  -0.62246  -0.60386  -0.52743
 Alpha  occ. eigenvalues --   -0.48703  -0.47109  -0.42738  -0.38561  -0.36791
 Alpha  occ. eigenvalues --   -0.36449  -0.34150  -0.33104  -0.30152  -0.29298
 Alpha  occ. eigenvalues --   -0.27036  -0.26315  -0.24553  -0.24496  -0.21801
 Alpha  occ. eigenvalues --   -0.19873  -0.16693  -0.12893   0.03049
 Alpha virt. eigenvalues --    0.22729   0.24365   0.26565   0.29866   0.31164
 Alpha virt. eigenvalues --    0.32265   0.34386   0.34893   0.35895   0.36996
 Alpha virt. eigenvalues --    0.41506   0.44755   0.46367   0.47358   0.50923
 Alpha virt. eigenvalues --    0.53195   0.54699   0.55211   0.58797   0.60936
 Alpha virt. eigenvalues --    0.61442   0.63070   0.66360   0.66811   0.68960
 Alpha virt. eigenvalues --    0.69960   0.70882   0.71106   0.73016   0.73073
 Alpha virt. eigenvalues --    0.74047   0.74108   0.75613   0.76251   0.77274
 Alpha virt. eigenvalues --    0.77973   0.78437   0.81023   0.84282   0.86500
 Alpha virt. eigenvalues --    0.86876   0.87423   0.88482   0.89123   0.89560
 Alpha virt. eigenvalues --    0.89863   0.90335   0.91579   0.93424   0.94240
 Alpha virt. eigenvalues --    0.94507   0.95215   0.98173   0.98378   1.00682
 Alpha virt. eigenvalues --    1.01397   1.02546   1.03584   1.08630   1.09683
 Alpha virt. eigenvalues --    1.13767   1.14271   1.18378   1.23824   1.29018
 Alpha virt. eigenvalues --    1.29881   1.38843   1.40009   1.42529   1.42920
 Alpha virt. eigenvalues --    1.46184   1.48713   1.51232   1.51324   1.52097
 Alpha virt. eigenvalues --    1.55536   1.56726   1.60669   1.70621   1.73108
 Alpha virt. eigenvalues --    1.79666   1.81094   1.85581   1.91509   1.94416
 Alpha virt. eigenvalues --    1.94711   1.96160   1.98479   2.01018   2.01034
 Alpha virt. eigenvalues --    2.02676   2.04101   2.06838   2.07834   2.08952
 Alpha virt. eigenvalues --    2.10350   2.11505   2.14479   2.18003   2.18175
 Alpha virt. eigenvalues --    2.20372   2.23310   2.28799   2.29696   2.33062
 Alpha virt. eigenvalues --    2.36293   2.39029   2.39671   2.39703   2.43803
 Alpha virt. eigenvalues --    2.47635   2.49154   2.53874   2.55145   2.56123
 Alpha virt. eigenvalues --    2.59524   2.63826   2.66916   2.67652   2.71387
 Alpha virt. eigenvalues --    2.74978   2.84973   2.86743   2.88340   2.89389
 Alpha virt. eigenvalues --    2.92909   2.93161   2.98823   3.05984   3.09454
 Alpha virt. eigenvalues --    3.11591   3.14492   3.19332   3.22589   3.27678
 Alpha virt. eigenvalues --    3.35149   3.47741   3.63638   3.68023   3.71683
 Alpha virt. eigenvalues --    3.76261   3.82042   3.88555   4.08263
  Beta  occ. eigenvalues -- -482.90290 -62.48485 -56.29225 -56.28922 -56.28905
  Beta  occ. eigenvalues --  -10.15264 -10.14015 -10.13731 -10.13519 -10.12372
  Beta  occ. eigenvalues --  -10.12020 -10.11170 -10.10299 -10.09415  -8.65437
  Beta  occ. eigenvalues --   -6.47875  -6.46750  -6.46698  -2.58271  -2.57947
  Beta  occ. eigenvalues --   -2.57903  -2.57012  -2.57011  -0.79725  -0.75840
  Beta  occ. eigenvalues --   -0.70858  -0.66887  -0.61699  -0.60030  -0.52353
  Beta  occ. eigenvalues --   -0.48098  -0.46394  -0.42527  -0.38203  -0.36488
  Beta  occ. eigenvalues --   -0.35688  -0.33964  -0.32839  -0.29026  -0.29009
  Beta  occ. eigenvalues --   -0.26642  -0.26089  -0.24316  -0.23481  -0.21773
  Beta  occ. eigenvalues --   -0.18313  -0.15469  -0.09985
  Beta virt. eigenvalues --    0.22804   0.23040   0.24864   0.29868   0.29898
  Beta virt. eigenvalues --    0.31230   0.32473   0.34469   0.35050   0.36341
  Beta virt. eigenvalues --    0.37095   0.43298   0.45068   0.46584   0.47632
  Beta virt. eigenvalues --    0.51087   0.53409   0.54862   0.55430   0.58990
  Beta virt. eigenvalues --    0.61294   0.61583   0.63191   0.66568   0.66893
  Beta virt. eigenvalues --    0.69181   0.70395   0.71154   0.71795   0.73398
  Beta virt. eigenvalues --    0.73683   0.74266   0.74323   0.75930   0.76881
  Beta virt. eigenvalues --    0.77431   0.78358   0.78650   0.81990   0.84586
  Beta virt. eigenvalues --    0.86738   0.87269   0.88106   0.88789   0.89709
  Beta virt. eigenvalues --    0.89811   0.90035   0.90705   0.91789   0.93664
  Beta virt. eigenvalues --    0.94639   0.94747   0.95471   0.98528   0.98742
  Beta virt. eigenvalues --    1.00924   1.02137   1.02783   1.03863   1.09105
  Beta virt. eigenvalues --    1.09936   1.13955   1.14533   1.18503   1.24048
  Beta virt. eigenvalues --    1.29209   1.30051   1.39003   1.40198   1.42724
  Beta virt. eigenvalues --    1.43341   1.46690   1.49267   1.51346   1.51969
  Beta virt. eigenvalues --    1.52226   1.55960   1.57562   1.60968   1.70762
  Beta virt. eigenvalues --    1.73739   1.80398   1.81778   1.85779   1.91665
  Beta virt. eigenvalues --    1.94860   1.94964   1.96566   1.98624   2.01176
  Beta virt. eigenvalues --    2.01645   2.03284   2.04364   2.07270   2.08315
  Beta virt. eigenvalues --    2.09344   2.10772   2.12079   2.14599   2.18492
  Beta virt. eigenvalues --    2.18699   2.20724   2.23636   2.29155   2.30107
  Beta virt. eigenvalues --    2.33443   2.37018   2.39398   2.40177   2.40306
  Beta virt. eigenvalues --    2.43991   2.48617   2.49695   2.54331   2.55405
  Beta virt. eigenvalues --    2.57068   2.59811   2.64381   2.67316   2.68253
  Beta virt. eigenvalues --    2.71841   2.75916   2.85283   2.87174   2.89087
  Beta virt. eigenvalues --    2.89682   2.93370   2.93693   2.99034   3.06308
  Beta virt. eigenvalues --    3.09839   3.11921   3.14667   3.19547   3.22772
  Beta virt. eigenvalues --    3.27930   3.35271   3.47976   3.63953   3.68044
  Beta virt. eigenvalues --    3.71704   3.76309   3.82234   3.88561   4.08284
          Condensed to atoms (all electrons):
               1          2          3          4          5          6
     1  Br  35.153440   0.151803  -0.050876   0.003106   0.001098   0.002933
     2  C    0.151803   5.529056   0.293624   0.040448  -0.124711   0.057082
     3  C   -0.050876   0.293624   4.988772   0.421055   0.055035  -0.111816
     4  C    0.003106   0.040448   0.421055   5.156965   0.266231   0.007244
     5  C    0.001098  -0.124711   0.055035   0.266231   5.292705   0.296766
     6  C    0.002933   0.057082  -0.111816   0.007244   0.296766   5.305259
     7  C   -0.052513   0.278580   0.054599  -0.091461   0.021811   0.428853
     8  C   -0.000159   0.013264  -0.000742   0.025012  -0.158692   0.334838
     9  C    0.000002  -0.001687  -0.000011   0.009161   0.000414  -0.069619
    10  C    0.000014   0.003115   0.009135  -0.101475   0.407832  -0.071025
    11  H   -0.001729  -0.077290   0.426476  -0.060797   0.014914  -0.001262
    12  H   -0.000220   0.016133  -0.083577   0.436475  -0.070551   0.017672
    13  H   -0.000920  -0.081613   0.013689  -0.001592   0.016506  -0.059331
    14  H   -0.000000   0.000079   0.000035  -0.000824   0.007213  -0.007933
    15  H   -0.000000   0.000079   0.000035  -0.000824   0.007213  -0.007933
    16  H   -0.000000   0.000010   0.000016  -0.000594   0.013507   0.008918
    17  H   -0.000000   0.000069  -0.000373  -0.010659  -0.062580   0.012412
               7          8          9         10         11         12
     1  Br  -0.052513  -0.000159   0.000002   0.000014  -0.001729  -0.000220
     2  C    0.278580   0.013264  -0.001687   0.003115  -0.077290   0.016133
     3  C    0.054599  -0.000742  -0.000011   0.009135   0.426476  -0.083577
     4  C   -0.091461   0.025012   0.009161  -0.101475  -0.060797   0.436475
     5  C    0.021811  -0.158692   0.000414   0.407832   0.014914  -0.070551
     6  C    0.428853   0.334838  -0.069619  -0.071025  -0.001262   0.017672
     7  C    5.039482  -0.090380   0.013031   0.012381   0.013810  -0.001799
     8  C   -0.090380   4.853015   0.285217  -0.019572   0.000026  -0.000776
     9  C    0.013031   0.285217   5.268342   0.421506   0.000017   0.000278
    10  C    0.012381  -0.019572   0.421506   5.013831  -0.000374  -0.016903
    11  H    0.013810   0.000026   0.000017  -0.000374   0.748337  -0.014319
    12  H   -0.001799  -0.000776   0.000278  -0.016903  -0.014319   0.777342
    13  H    0.431206  -0.018586   0.000767  -0.000885  -0.000313   0.000045
    14  H   -0.004049   0.325595  -0.023290   0.000988  -0.000001   0.000017
    15  H   -0.004049   0.325595  -0.023290   0.000988  -0.000001   0.000017
    16  H   -0.000521  -0.069207   0.421653  -0.062194  -0.000000   0.000002
    17  H   -0.000761   0.016700  -0.087412   0.433556   0.000001   0.003870
              13         14         15         16         17
     1  Br  -0.000920  -0.000000  -0.000000  -0.000000  -0.000000
     2  C   -0.081613   0.000079   0.000079   0.000010   0.000069
     3  C    0.013689   0.000035   0.000035   0.000016  -0.000373
     4  C   -0.001592  -0.000824  -0.000824  -0.000594  -0.010659
     5  C    0.016506   0.007213   0.007213   0.013507  -0.062580
     6  C   -0.059331  -0.007933  -0.007933   0.008918   0.012412
     7  C    0.431206  -0.004049  -0.004049  -0.000521  -0.000761
     8  C   -0.018586   0.325595   0.325595  -0.069207   0.016700
     9  C    0.000767  -0.023290  -0.023290   0.421653  -0.087412
    10  C   -0.000885   0.000988   0.000988  -0.062194   0.433556
    11  H   -0.000313  -0.000001  -0.000001  -0.000000   0.000001
    12  H    0.000045   0.000017   0.000017   0.000002   0.003870
    13  H    0.755027   0.002353   0.002353   0.000005   0.000007
    14  H    0.002353   0.759817  -0.046138  -0.000348  -0.000420
    15  H    0.002353  -0.046138   0.759817  -0.000348  -0.000420
    16  H    0.000005  -0.000348  -0.000348   0.769724  -0.009657
    17  H    0.000007  -0.000420  -0.000420  -0.009657   0.778891
          Atomic-Atomic Spin Densities.
               1          2          3          4          5          6
     1  Br   0.016504  -0.025684   0.002865   0.000251  -0.000144   0.000325
     2  C   -0.025684   0.510503  -0.072467  -0.022804   0.016621  -0.025557
     3  C    0.002865  -0.072467  -0.025718   0.052816  -0.013441   0.008009
     4  C    0.000251  -0.022804   0.052816   0.136342  -0.095077   0.012368
     5  C   -0.000144   0.016621  -0.013441  -0.095077   0.349285  -0.098660
     6  C    0.000325  -0.025557   0.008009   0.012368  -0.098660   0.149223
     7  C    0.002861  -0.076038   0.004484   0.007219  -0.011974   0.054289
     8  C   -0.000000   0.000335   0.000020  -0.000707   0.002063   0.001339
     9  C    0.000000  -0.000383   0.000129   0.003103  -0.048977   0.023041
    10  C   -0.000001   0.000723  -0.001219  -0.009973   0.110835  -0.018716
    11  H    0.000207  -0.000741   0.001438  -0.000668   0.000118  -0.000020
    12  H    0.000000   0.000013  -0.000254   0.003484  -0.001081  -0.000063
    13  H    0.000226  -0.000743  -0.000012  -0.000014   0.000067  -0.000477
    14  H   -0.000003   0.000378  -0.000051  -0.000152   0.003573  -0.010520
    15  H   -0.000003   0.000378  -0.000051  -0.000152   0.003573  -0.010519
    16  H    0.000000  -0.000000  -0.000001   0.000014  -0.000254  -0.000050
    17  H    0.000000   0.000000  -0.000006   0.000192  -0.000678  -0.000001
               7          8          9         10         11         12
     1  Br   0.002861  -0.000000   0.000000  -0.000001   0.000207   0.000000
     2  C   -0.076038   0.000335  -0.000383   0.000723  -0.000741   0.000013
     3  C    0.004484   0.000020   0.000129  -0.001219   0.001438  -0.000254
     4  C    0.007219  -0.000707   0.003103  -0.009973  -0.000668   0.003484
     5  C   -0.011974   0.002063  -0.048977   0.110835   0.000118  -0.001081
     6  C    0.054289   0.001339   0.023041  -0.018716  -0.000020  -0.000063
     7  C   -0.007783   0.000415   0.001411  -0.002036   0.000035  -0.000002
     8  C    0.000415  -0.059407  -0.010310   0.003553  -0.000001   0.000001
     9  C    0.001411  -0.010310   0.657463  -0.147220   0.000001   0.000020
    10  C   -0.002036   0.003553  -0.147220   0.017701  -0.000000   0.000419
    11  H    0.000035  -0.000001   0.000001  -0.000000   0.000173   0.000210
    12  H   -0.000002   0.000001   0.000020   0.000419   0.000210  -0.007948
    13  H    0.001746   0.000171  -0.000009   0.000004   0.000004  -0.000001
    14  H   -0.002198   0.005671  -0.022268   0.002972  -0.000000  -0.000000
    15  H   -0.002198   0.005671  -0.022267   0.002971  -0.000000  -0.000000
    16  H    0.000016  -0.000621   0.009958  -0.001352   0.000000   0.000000
    17  H    0.000006  -0.000072  -0.000797   0.002742   0.000000  -0.000032
              13         14         15         16         17
     1  Br   0.000226  -0.000003  -0.000003   0.000000   0.000000
     2  C   -0.000743   0.000378   0.000378  -0.000000   0.000000
     3  C   -0.000012  -0.000051  -0.000051  -0.000001  -0.000006
     4  C   -0.000014  -0.000152  -0.000152   0.000014   0.000192
     5  C    0.000067   0.003573   0.003573  -0.000254  -0.000678
     6  C   -0.000477  -0.010520  -0.010519  -0.000050  -0.000001
     7  C    0.001746  -0.002198  -0.002198   0.000016   0.000006
     8  C    0.000171   0.005671   0.005671  -0.000621  -0.000072
     9  C   -0.000009  -0.022268  -0.022267   0.009958  -0.000797
    10  C    0.000004   0.002972   0.002971  -0.001352   0.002742
    11  H    0.000004  -0.000000  -0.000000   0.000000   0.000000
    12  H   -0.000001  -0.000000  -0.000000   0.000000  -0.000032
    13  H   -0.000904  -0.000019  -0.000019   0.000000   0.000000
    14  H   -0.000019   0.074886  -0.022028   0.000067   0.000003
    15  H   -0.000019  -0.022028   0.074883   0.000067   0.000003
    16  H    0.000000   0.000067   0.000067  -0.031003   0.000306
    17  H    0.000000   0.000003   0.000003   0.000306  -0.002225
 Mulliken charges and spin densities:
               1          2
     1  Br  -0.205979  -0.002595
     2  C   -0.098042   0.304533
     3  C   -0.015073  -0.043459
     4  C   -0.097474   0.086242
     5  C    0.015290   0.215846
     6  C   -0.143060   0.084009
     7  C   -0.048220  -0.029746
     8  C    0.178853  -0.051878
     9  C   -0.215080   0.442895
    10  C   -0.030917  -0.038597
    11  H   -0.047496   0.000754
    12  H   -0.063706  -0.005233
    13  H   -0.058719   0.000019
    14  H   -0.013094   0.030311
    15  H   -0.013094   0.030310
    16  H   -0.070967  -0.022852
    17  H   -0.073224  -0.000559
 Sum of Mulliken charges =  -1.00000   1.00000
 Mulliken charges and spin densities with hydrogens summed into heavy atoms:
               1          2
     1  Br  -0.205979  -0.002595
     2  C   -0.098042   0.304533
     3  C   -0.062569  -0.042705
     4  C   -0.161180   0.081009
     5  C    0.015290   0.215846
     6  C   -0.143060   0.084009
     7  C   -0.106938  -0.029728
     8  C    0.152665   0.008742
     9  C   -0.286047   0.420043
    10  C   -0.104141  -0.039156
 Electronic spatial extent (au):  <R**2>=           2487.8117
 Charge=             -1.0000 electrons
 Dipole moment (field-independent basis, Debye):
    X=              4.0826    Y=             -0.5562    Z=              0.0000  Tot=              4.1203
 Quadrupole moment (field-independent basis, Debye-Ang):
   XX=           -106.5620   YY=            -76.0243   ZZ=            -78.7664
   XY=             -0.1104   XZ=             -0.0000   YZ=             -0.0000
 Traceless Quadrupole moment (field-independent basis, Debye-Ang):
   XX=            -19.4444   YY=             11.0933   ZZ=              8.3511
   XY=             -0.1104   XZ=             -0.0000   YZ=             -0.0000
 Octapole moment (field-independent basis, Debye-Ang**2):
  XXX=            171.3520  YYY=             -7.7071  ZZZ=              0.0000  XYY=             38.0366
  XXY=              3.7258  XXZ=              0.0001  XZZ=             40.3189  YZZ=             -5.6104
  YYZ=              0.0000  XYZ=             -0.0000
 Hexadecapole moment (field-independent basis, Debye-Ang**3):
 XXXX=          -2838.0798 YYYY=           -564.4652 ZZZZ=            -97.4810 XXXY=            -48.9625
 XXXZ=             -0.0001 YYYX=            -28.1342 YYYZ=              0.0000 ZZZX=             -0.0001
 ZZZY=             -0.0000 XXYY=           -519.2223 XXZZ=           -464.8724 YYZZ=           -116.6776
 XXYZ=              0.0000 YYXZ=              0.0000 ZZXY=             -3.7284
 N-N= 6.807857814004D+02 E-N=-8.333267070752D+03  KE= 2.914311149049D+03
 There are a total of      387842 grid points.
 ElSum from          density=       97.0000078625
 ElSum from atomic densities=       96.0000595300
 Hirshfeld populations at iteration   1 (CA, CB, DipXYZ):
               1          2          3          4          5
     1  Br  17.604346  17.575737  -0.174995   0.034523  -0.000000
     2  C    3.134442   2.943849   0.061178  -0.015584   0.000000
     3  C    3.056721   3.042432   0.019344   0.020427   0.000000
     4  C    3.089175   3.012861  -0.041000   0.020970   0.000000
     5  C    3.114517   2.962922   0.015059   0.005635   0.000000
     6  C    3.055369   2.980517  -0.056244  -0.036904   0.000000
     7  C    3.059458   3.036374   0.005037  -0.039083   0.000000
     8  C    3.047435   3.023919   0.016525   0.010094   0.000000
     9  C    3.220133   2.937680   0.019821  -0.085066   0.000001
    10  C    3.088324   3.039178  -0.001368   0.075844   0.000000
    11  H    0.495919   0.494527   0.080170   0.112357   0.000000
    12  H    0.499218   0.493379  -0.045322   0.127493   0.000000
    13  H    0.493996   0.492775   0.027123  -0.134322   0.000000
    14  H    0.511747   0.485420  -0.001455  -0.070998   0.096994
    15  H    0.511747   0.485420  -0.001456  -0.070999  -0.096993
    16  H    0.517505   0.496142  -0.125326  -0.038821  -0.000000
    17  H    0.499952   0.496871  -0.076242   0.110494   0.000000
       Tot  49.000004  48.000004  -0.279149   0.026062   0.000003

 Dip from Atomic Chgs              1.885359  -0.244869   0.000001
         Total Dipole              1.606209  -0.218807   0.000004

 Hirshfeld charges, spin densities, dipoles, and CM5 charges using IRadAn=      5:
              Q-H        S-H        Dx         Dy         Dz        Q-CM5   
     1  Br  -0.180084   0.028609  -0.174995   0.034523  -0.000000  -0.165137
     2  C   -0.078291   0.190593   0.061178  -0.015584   0.000000  -0.099374
     3  C   -0.099153   0.014288   0.019344   0.020427   0.000000  -0.151713
     4  C   -0.102036   0.076313  -0.041000   0.020970   0.000000  -0.153464
     5  C   -0.077440   0.151595   0.015059   0.005635   0.000000  -0.084430
     6  C   -0.035886   0.074851  -0.056244  -0.036904   0.000000  -0.046297
     7  C   -0.095832   0.023084   0.005037  -0.039083   0.000000  -0.145817
     8  C   -0.071353   0.023516   0.016525   0.010094   0.000000  -0.166794
     9  C   -0.157814   0.282453   0.019821  -0.085066   0.000001  -0.215375
    10  C   -0.127502   0.049145  -0.001368   0.075844   0.000000  -0.179662
    11  H    0.009554   0.001393   0.080170   0.112357   0.000000   0.065356
    12  H    0.007403   0.005839  -0.045322   0.127493   0.000000   0.062518
    13  H    0.013229   0.001221   0.027123  -0.134322   0.000000   0.069307
    14  H    0.002833   0.026327  -0.001455  -0.070998   0.096994   0.056621
    15  H    0.002833   0.026327  -0.001456  -0.070999  -0.096993   0.056621
    16  H   -0.013647   0.021363  -0.125326  -0.038821  -0.000000   0.040144
    17  H    0.003177   0.003082  -0.076242   0.110494   0.000000   0.057486
       Tot  -1.000008   1.000000  -0.279149   0.026062   0.000003  -1.000008
 Hirshfeld charges and spin densities with hydrogens summed into heavy atoms:
              Q-H        S-H       Q-CM5   
     1  Br  -0.180084   0.028609  -0.165137
     2  C   -0.078291   0.190593  -0.099374
     3  C   -0.089599   0.015681  -0.086357
     4  C   -0.094633   0.082152  -0.090946
     5  C   -0.077440   0.151595  -0.084430
     6  C   -0.035886   0.074851  -0.046297
     7  C   -0.082603   0.024305  -0.076509
     8  C   -0.065687   0.076170  -0.053552
     9  C   -0.171460   0.303816  -0.175230
    10  C   -0.124325   0.052227  -0.122176
 
 EQQ= 0.888071188256E-01 EQD=-0.389377891352E-01 EDD= 0.197797644704E-02
 EQQ+QD+DD= 0.518473061374E-01
 
                          Isotropic Fermi Contact Couplings
        Atom                 a.u.       MegaHertz       Gauss      10(-4) cm-1
     1  Br(79)            -0.00318      -3.57146      -1.27439      -1.19131
     2  C(13)              0.06165      69.30921      24.73125      23.11906
     3  C(13)             -0.01867     -20.98421      -7.48769      -6.99958
     4  C(13)              0.00696       7.82539       2.79229       2.61027
     5  C(13)              0.02726      30.64640      10.93540      10.22254
     6  C(13)              0.00941      10.57435       3.77319       3.52722
     7  C(13)             -0.01649     -18.53524      -6.61384      -6.18269
     8  C(13)             -0.02713     -30.49927     -10.88290     -10.17346
     9  C(13)              0.07004      78.73795      28.09566      26.26415
    10  C(13)             -0.02409     -27.08668      -9.66520      -9.03514
    11  H(1)               0.00019       0.85149       0.30383       0.28403
    12  H(1)              -0.00149      -6.65710      -2.37542      -2.22057
    13  H(1)              -0.00004      -0.20084      -0.07167      -0.06699
    14  H(1)               0.01490      66.60807      23.76742      22.21806
    15  H(1)               0.01490      66.60684      23.76698      22.21765
    16  H(1)              -0.00615     -27.47959      -9.80540      -9.16621
    17  H(1)              -0.00026      -1.17386      -0.41886      -0.39156
 --------------------------------------------------------
       Center         ----  Spin Dipole Couplings  ----
                      3XX-RR        3YY-RR        3ZZ-RR
 --------------------------------------------------------
     1   Atom       -0.231224     -0.017871      0.249095
     2   Atom       -0.167960     -0.183825      0.351785
     3   Atom        0.012150      0.012852     -0.025001
     4   Atom       -0.047870     -0.050009      0.097879
     5   Atom       -0.115397     -0.126702      0.242099
     6   Atom       -0.047076     -0.056420      0.103496
     7   Atom        0.005605     -0.001905     -0.003701
     8   Atom        0.002071      0.002619     -0.004689
     9   Atom       -0.222462     -0.234685      0.457147
    10   Atom       -0.003605      0.002121      0.001484
    11   Atom        0.002226      0.001228     -0.003454
    12   Atom       -0.005534      0.008292     -0.002758
    13   Atom        0.001272      0.002656     -0.003929
    14   Atom       -0.000130      0.003427     -0.003297
    15   Atom       -0.000130      0.003427     -0.003297
    16   Atom        0.028458     -0.029392      0.000934
    17   Atom        0.003420      0.000788     -0.004208
 --------------------------------------------------------
                        XY            XZ            YZ
 --------------------------------------------------------
     1   Atom        0.045410      0.000001     -0.000000
     2   Atom       -0.002380     -0.000000     -0.000000
     3   Atom       -0.004229     -0.000000      0.000000
     4   Atom        0.002906      0.000000      0.000000
     5   Atom        0.001322      0.000002     -0.000000
     6   Atom       -0.001846     -0.000000     -0.000000
     7   Atom        0.002898     -0.000000     -0.000000
     8   Atom       -0.001376      0.000000      0.000000
     9   Atom        0.002138     -0.000003     -0.000001
    10   Atom        0.005017      0.000000      0.000000
    11   Atom        0.001285     -0.000000      0.000000
    12   Atom       -0.004152     -0.000000      0.000000
    13   Atom       -0.002146     -0.000000     -0.000000
    14   Atom       -0.002633      0.001024     -0.003522
    15   Atom       -0.002633     -0.001024      0.003522
    16   Atom        0.016205     -0.000000     -0.000000
    17   Atom       -0.005021      0.000000      0.000000
 --------------------------------------------------------


 ---------------------------------------------------------------------------------
              Anisotropic Spin Dipole Couplings in Principal Axis System
 ---------------------------------------------------------------------------------

       Atom             a.u.   MegaHertz   Gauss  10(-4) cm-1        Axes

              Baa    -0.2405   -32.258   -11.511   -10.760  0.9798 -0.1999 -0.0000
     1 Br(79) Bbb    -0.0086    -1.155    -0.412    -0.385  0.1999  0.9798  0.0000
              Bcc     0.2491    33.413    11.923    11.145  0.0000 -0.0000  1.0000
 
              Baa    -0.1842   -24.714    -8.819    -8.244  0.1452  0.9894  0.0000
     2 C(13)  Bbb    -0.1676   -22.492    -8.026    -7.502  0.9894 -0.1452  0.0000
              Bcc     0.3518    47.206    16.844    15.746 -0.0000 -0.0000  1.0000
 
              Baa    -0.0250    -3.355    -1.197    -1.119  0.0000 -0.0000  1.0000
     3 C(13)  Bbb     0.0083     1.108     0.395     0.370  0.7358  0.6772 -0.0000
              Bcc     0.0167     2.247     0.802     0.750 -0.6772  0.7358  0.0000
 
              Baa    -0.0520    -6.983    -2.492    -2.329 -0.5721  0.8202  0.0000
     4 C(13)  Bbb    -0.0458    -6.152    -2.195    -2.052  0.8202  0.5721 -0.0000
              Bcc     0.0979    13.134     4.687     4.381  0.0000  0.0000  1.0000
 
              Baa    -0.1269   -17.023    -6.074    -5.678 -0.1146  0.9934  0.0000
     5 C(13)  Bbb    -0.1152   -15.465    -5.518    -5.158  0.9934  0.1146 -0.0000
              Bcc     0.2421    32.487    11.592    10.837  0.0000 -0.0000  1.0000
 
              Baa    -0.0568    -7.618    -2.718    -2.541  0.1871  0.9823  0.0000
     6 C(13)  Bbb    -0.0467    -6.270    -2.237    -2.091  0.9823 -0.1871  0.0000
              Bcc     0.1035    13.888     4.956     4.633 -0.0000 -0.0000  1.0000
 
              Baa    -0.0037    -0.497    -0.177    -0.166 -0.0000  0.0000  1.0000
     7 C(13)  Bbb    -0.0029    -0.388    -0.139    -0.129 -0.3228  0.9465 -0.0000
              Bcc     0.0066     0.885     0.316     0.295  0.9465  0.3228 -0.0000
 
              Baa    -0.0047    -0.629    -0.225    -0.210 -0.0000 -0.0000  1.0000
     8 C(13)  Bbb     0.0009     0.126     0.045     0.042  0.7731  0.6343  0.0000
              Bcc     0.0037     0.503     0.179     0.168 -0.6343  0.7731 -0.0000
 
              Baa    -0.2350   -31.541   -11.255   -10.521 -0.1674  0.9859  0.0000
     9 C(13)  Bbb    -0.2221   -29.804   -10.635    -9.941  0.9859  0.1674  0.0000
              Bcc     0.4571    61.345    21.889    20.462 -0.0000 -0.0000  1.0000
 
              Baa    -0.0065    -0.875    -0.312    -0.292  0.8648 -0.5022 -0.0000
    10 C(13)  Bbb     0.0015     0.199     0.071     0.066 -0.0000 -0.0001  1.0000
              Bcc     0.0050     0.676     0.241     0.225  0.5022  0.8648  0.0001
 
              Baa    -0.0035    -1.843    -0.658    -0.615  0.0000 -0.0000  1.0000
    11 H(1)   Bbb     0.0003     0.186     0.066     0.062 -0.5649  0.8251  0.0000
              Bcc     0.0031     1.657     0.591     0.553  0.8251  0.5649 -0.0000
 
              Baa    -0.0067    -3.567    -1.273    -1.190  0.9637  0.2671 -0.0000
    12 H(1)   Bbb    -0.0028    -1.472    -0.525    -0.491  0.0000 -0.0000  1.0000
              Bcc     0.0094     5.039     1.798     1.681 -0.2671  0.9637  0.0000
 
              Baa    -0.0039    -2.096    -0.748    -0.699  0.0000  0.0000  1.0000
    13 H(1)   Bbb    -0.0003    -0.155    -0.055    -0.052  0.8084  0.5887 -0.0000
              Bcc     0.0042     2.251     0.803     0.751 -0.5887  0.8084 -0.0000
 
              Baa    -0.0048    -2.564    -0.915    -0.855  0.0244  0.3998  0.9163
    14 H(1)   Bbb    -0.0014    -0.741    -0.264    -0.247  0.9128  0.3649 -0.1836
              Bcc     0.0062     3.305     1.179     1.102 -0.4077  0.8408 -0.3560
 
              Baa    -0.0048    -2.564    -0.915    -0.855 -0.0244 -0.3998  0.9163
    15 H(1)   Bbb    -0.0014    -0.741    -0.264    -0.247  0.9128  0.3649  0.1836
              Bcc     0.0062     3.305     1.179     1.102 -0.4077  0.8408  0.3560
 
              Baa    -0.0336   -17.939    -6.401    -5.984 -0.2526  0.9676  0.0000
    16 H(1)   Bbb     0.0009     0.498     0.178     0.166  0.0000 -0.0000  1.0000
              Bcc     0.0327    17.441     6.223     5.818  0.9676  0.2526 -0.0000
 
              Baa    -0.0042    -2.245    -0.801    -0.749 -0.0000 -0.0000  1.0000
    17 H(1)   Bbb    -0.0031    -1.647    -0.588    -0.549  0.6109  0.7917  0.0000
              Bcc     0.0073     3.892     1.389     1.298  0.7917 -0.6109 -0.0000
 

 ---------------------------------------------------------------------------------

 Running external command "gaunbo6 R"
         input file       "/home/rpaton/arbr500/dzvp/fukui/Gau-1916722.EIn"
         output file      "/home/rpaton/arbr500/dzvp/fukui/Gau-1916722.EOu"
         message file     "/home/rpaton/arbr500/dzvp/fukui/Gau-1916722.EMs"
         fchk file        "/home/rpaton/arbr500/dzvp/fukui/Gau-1916722.EFC"
         mat. el file     "/home/rpaton/arbr500/dzvp/fukui/Gau-1916722.EUF"

 Writing WrtUnf unformatted file "/home/rpaton/arbr500/dzvp/fukui/Gau-1916722.EUF"
 Gaussian matrix elements                                         Version   2 NLab=11 Len12L=8 Len4L=8
 Write SHELL TO ATOM MAP                   from file      0 offset           0 length                  87 to matrix element file.
 Write SHELL TYPES                         from file      0 offset           0 length                  87 to matrix element file.
 Write NUMBER OF PRIMITIVES PER SHELL      from file      0 offset           0 length                  87 to matrix element file.
 Write PRIMITIVE EXPONENTS                 from file      0 offset           0 length                 173 to matrix element file.
 Write CONTRACTION COEFFICIENTS            from file      0 offset           0 length                 173 to matrix element file.
 Write P(S=P) CONTRACTION COEFFICIENTS     from file      0 offset           0 length                 173 to matrix element file.
 Write COORDINATES OF EACH SHELL           from file      0 offset           0 length                 261 to matrix element file.
 Write BONDS PER ATOM                      from file      0 offset           0 length                  17 to matrix element file.
 Write BONDED ATOMS                        from file      0 offset           0 length                  36 to matrix element file.
 Write BOND TYPES                          from file      0 offset           0 length                  36 to matrix element file.
 Write ONIOM CHARGE/MULT                   from file      0 offset           0 length                  32 to matrix element file.
 Write ONIOM ATOM LAYERS                   from file      0 offset           0 length                  17 to matrix element file.
 Write ONIOM ATOM MODIFIERS                from file      0 offset           0 length                  17 to matrix element file.
 Write ONIOM ATOM TYPES                    from file      0 offset           0 length                  17 to matrix element file.
 Write ONIOM LINK ATOMS                    from file      0 offset           0 length                  17 to matrix element file.
 Write ONIOM LINK CHARGES                  from file      0 offset           0 length                  17 to matrix element file.
 Write ONIOM LINK DISTANCES                from file      0 offset           0 length                  68 to matrix element file.
 Write SYMINF INTS                         from file      0 offset           0 length                  26 to matrix element file.
 Write ROTTR TO SO                         from file      0 offset           0 length                  12 to matrix element file.
 Write GAUSSIAN SCALARS                    from file    501 offset           0 to matrix element file.
 Write OPTIMIZATION FLAGS                  from file      0 offset           0 length                  17 to matrix element file.
 Write INTEGER ISO                         from file      0 offset           0 length                  17 to matrix element file.
 Write INTEGER SPIN                        from file      0 offset           0 length                  17 to matrix element file.
 Write REAL ZEFFECTIVE                     from file      0 offset           0 length                  17 to matrix element file.
 Write REAL QUADRUPOLEMOMENT               from file      0 offset           0 length                  17 to matrix element file.
 Write REAL GFACTOR                        from file      0 offset           0 length                  17 to matrix element file.
 Write REAL ZNUCLEAR                       from file      0 offset           0 length                  17 to matrix element file.
 Write MULLIKEN CHARGES                    from file      0 offset           0 length                  17 to matrix element file.
 Write TYPE 6 CHARGES                      from file      0 offset           0 length                  17 to matrix element file.
 Write TYPE 7 CHARGES                      from file      0 offset           0 length                  17 to matrix element file.
 Write NUCLEAR GRADIENT                    from file  10584 offset           0 length                  51 to matrix element file.
 Array NUCLEAR FORCE CONSTANTS              on  file  10585 does not exist.
 Write ELECTRIC DIPOLE MOMENT              from file      0 offset           0 length                   3 to matrix element file.
 Write NON-ADIABATIC COUPLING              from file  10810 offset           0 length                  51 to matrix element file.
 Write FINITE EM FIELD                     from file  10521 offset           0 length                  35 to matrix element file.
 Write OVERLAP                             from file  10514 offset           0 length               18721 to matrix element file.
 Write CORE HAMILTONIAN ALPHA              from file  10515 offset           0 length               18721 to matrix element file.
 Write CORE HAMILTONIAN BETA               from file  10515 offset       18721 length               18721 to matrix element file.
 Write KINETIC ENERGY                      from file  10516 offset           0 length               18721 to matrix element file.
 Write ORTHOGONAL BASIS                    from file  10685 offset           0 length               37249 to matrix element file.
 Write DIPOLE INTEGRALS                    from file  10518 offset           0 length               56163 to matrix element file.
 Array DIP VEL INTEGRALS                    on  file  10572 does not exist.
 Array R X DEL INTEGRALS                    on  file  10572 does not exist.
 Write ALPHA ORBITAL ENERGIES              from file      0 offset           0 length                 193 to matrix element file.
 Write BETA ORBITAL ENERGIES               from file      0 offset           0 length                 193 to matrix element file.
 Write ALPHA MO COEFFICIENTS               from file  10524 offset           0 length               37249 to matrix element file.
 Write BETA MO COEFFICIENTS                from file  10526 offset           0 length               37249 to matrix element file.
 Write ALPHA DENSITY MATRIX                from file      0 offset           0 length               18721 to matrix element file.
 Write BETA DENSITY MATRIX                 from file      0 offset           0 length               18721 to matrix element file.
 Write ALPHA FOCK MATRIX                   from file  10536 offset           0 length               18721 to matrix element file.
 Write BETA FOCK MATRIX                    from file  10538 offset           0 length               18721 to matrix element file.
 Write ENERGY-WEIGHTED DENSITY             from file  10571 offset           0 length               18721 to matrix element file.
 Write ALPHA SCF DENSITY MATRIX            from file      0 offset           0 length               18721 to matrix element file.
 Write BETA SCF DENSITY MATRIX             from file      0 offset           0 length               18721 to matrix element file.
 No 2e integrals to process.
 Perform NBO analysis...

 *********************************** NBO 7.0 ***********************************
             N A T U R A L   A T O M I C   O R B I T A L   A N D
          N A T U R A L   B O N D   O R B I T A L   A N A L Y S I S
 **************************** Robert Paton (I101709) ***************************
  (c) Copyright 1996-2019 Board of Regents of the University of Wisconsin System
      on behalf of the Theoretical Chemistry Institute.  All rights reserved.

          Cite this program [NBO 7.0.5 (4-Jun-2019)] as:

          NBO 7.0.  E. D. Glendening, J. K. Badenhoop, A. E. Reed,
          J. E. Carpenter, J. A. Bohmann, C. M. Morales, P. Karafiloglou,
          C. R. Landis, and F. Weinhold, Theoretical Chemistry Institute,
          University of Wisconsin, Madison, WI (2018)

 Filename set to /home/rpaton/arbr500/dzvp/fukui/Gau-1916722

 Job title:  arbr37_wb97xd_redcreated by GaussianPrep


 NATURAL POPULATIONS:  Natural atomic orbital occupancies

  NAO Atom No lang   Type(AO)    Occupancy     Spin
 -----------------------------------------------------
   1   Br  1  s      Cor( 1s)     2.00000     0.00000
   2   Br  1  s      Cor( 2s)     2.00000     0.00000
   3   Br  1  s      Cor( 3s)     2.00000     0.00000
   4   Br  1  s      Val( 4s)     1.84027     0.00036
   5   Br  1  s      Ryd( 5s)     0.00300     0.00011
   6   Br  1  px     Cor( 2p)     2.00000     0.00000
   7   Br  1  px     Cor( 3p)     2.00000     0.00000
   8   Br  1  px     Val( 4p)     1.28011    -0.01342
   9   Br  1  px     Ryd( 5p)     0.00268     0.00004
  10   Br  1  py     Cor( 2p)     2.00000     0.00000
  11   Br  1  py     Cor( 3p)     2.00000     0.00000
  12   Br  1  py     Val( 4p)     1.95152    -0.00048
  13   Br  1  py     Ryd( 5p)     0.00115     0.00001
  14   Br  1  pz     Cor( 2p)     2.00000     0.00000
  15   Br  1  pz     Cor( 3p)     2.00000     0.00000
  16   Br  1  pz     Val( 4p)     1.97049     0.01347
  17   Br  1  pz     Ryd( 5p)     0.00166     0.00065
  18   Br  1  dxy    Cor( 3d)     2.00000     0.00000
  19   Br  1  dxy    Ryd( 4d)     0.00148    -0.00002
  20   Br  1  dxy    Ryd( 5d)     0.00000     0.00000
  21   Br  1  dxz    Cor( 3d)     2.00000     0.00000
  22   Br  1  dxz    Ryd( 4d)     0.00459     0.00179
  23   Br  1  dxz    Ryd( 5d)     0.00000     0.00000
  24   Br  1  dyz    Cor( 3d)     2.00000     0.00000
  25   Br  1  dyz    Ryd( 4d)     0.00026     0.00007
  26   Br  1  dyz    Ryd( 5d)     0.00000     0.00000
  27   Br  1  dx2y2  Cor( 3d)     1.99999     0.00000
  28   Br  1  dx2y2  Ryd( 4d)     0.00431    -0.00002
  29   Br  1  dx2y2  Ryd( 5d)     0.00000     0.00000
  30   Br  1  dz2    Cor( 3d)     2.00000     0.00000
  31   Br  1  dz2    Ryd( 4d)     0.00168     0.00001
  32   Br  1  dz2    Ryd( 5d)     0.00000     0.00000

  33    C  2  s      Cor( 1s)     1.99997     0.00000
  34    C  2  s      Val( 2s)     0.89941     0.01239
  35    C  2  s      Ryd( 3s)     0.00091     0.00002
  36    C  2  px     Val( 2p)     0.91930     0.00941
  37    C  2  px     Ryd( 3p)     0.00608     0.00002
  38    C  2  py     Val( 2p)     1.09964     0.00621
  39    C  2  py     Ryd( 3p)     0.00565     0.00001
  40    C  2  pz     Val( 2p)     1.28517     0.23850
  41    C  2  pz     Ryd( 3p)     0.00381     0.00260
  42    C  2  dxy    Ryd( 3d)     0.00114     0.00000
  43    C  2  dxz    Ryd( 3d)     0.00071     0.00003
  44    C  2  dyz    Ryd( 3d)     0.00070    -0.00008
  45    C  2  dx2y2  Ryd( 3d)     0.00176     0.00002
  46    C  2  dz2    Ryd( 3d)     0.00092    -0.00017

  47    C  3  s      Cor( 1s)     1.99995     0.00000
  48    C  3  s      Val( 2s)     0.92847    -0.00305
  49    C  3  s      Ryd( 3s)     0.00112     0.00003
  50    C  3  px     Val( 2p)     1.13197    -0.00311
  51    C  3  px     Ryd( 3p)     0.00591     0.00010
  52    C  3  py     Val( 2p)     1.13691    -0.00459
  53    C  3  py     Ryd( 3p)     0.00509     0.00000
  54    C  3  pz     Val( 2p)     1.05552    -0.01416
  55    C  3  pz     Ryd( 3p)     0.00332     0.00216
  56    C  3  dxy    Ryd( 3d)     0.00084     0.00000
  57    C  3  dxz    Ryd( 3d)     0.00078     0.00027
  58    C  3  dyz    Ryd( 3d)     0.00068     0.00022
  59    C  3  dx2y2  Ryd( 3d)     0.00081    -0.00001
  60    C  3  dz2    Ryd( 3d)     0.00066     0.00000

  61    C  4  s      Cor( 1s)     1.99995     0.00000
  62    C  4  s      Val( 2s)     0.91505     0.00209
  63    C  4  s      Ryd( 3s)     0.00083    -0.00001
  64    C  4  px     Val( 2p)     1.07588    -0.00002
  65    C  4  px     Ryd( 3p)     0.00384     0.00003
  66    C  4  py     Val( 2p)     1.16839     0.00059
  67    C  4  py     Ryd( 3p)     0.00578     0.00003
  68    C  4  pz     Val( 2p)     1.09048     0.07582
  69    C  4  pz     Ryd( 3p)     0.00346     0.00228
  70    C  4  dxy    Ryd( 3d)     0.00084    -0.00002
  71    C  4  dxz    Ryd( 3d)     0.00088     0.00029
  72    C  4  dyz    Ryd( 3d)     0.00037    -0.00001
  73    C  4  dx2y2  Ryd( 3d)     0.00082     0.00001
  74    C  4  dz2    Ryd( 3d)     0.00060    -0.00005

  75    C  5  s      Cor( 1s)     1.99996     0.00000
  76    C  5  s      Val( 2s)     0.84008     0.00620
  77    C  5  s      Ryd( 3s)     0.00198     0.00006
  78    C  5  px     Val( 2p)     1.08807     0.00266
  79    C  5  px     Ryd( 3p)     0.00419     0.00005
  80    C  5  py     Val( 2p)     1.08992     0.00231
  81    C  5  py     Ryd( 3p)     0.00526     0.00003
  82    C  5  pz     Val( 2p)     1.11550     0.17753
  83    C  5  pz     Ryd( 3p)     0.00398     0.00306
  84    C  5  dxy    Ryd( 3d)     0.00094    -0.00002
  85    C  5  dxz    Ryd( 3d)     0.00109     0.00019
  86    C  5  dyz    Ryd( 3d)     0.00048    -0.00002
  87    C  5  dx2y2  Ryd( 3d)     0.00082     0.00001
  88    C  5  dz2    Ryd( 3d)     0.00062    -0.00011

  89    C  6  s      Cor( 1s)     1.99996     0.00000
  90    C  6  s      Val( 2s)     0.83998     0.00248
  91    C  6  s      Ryd( 3s)     0.00196    -0.00002
  92    C  6  px     Val( 2p)     1.07682     0.00159
  93    C  6  px     Ryd( 3p)     0.00389     0.00006
  94    C  6  py     Val( 2p)     1.06897    -0.00013
  95    C  6  py     Ryd( 3p)     0.00473    -0.00001
  96    C  6  pz     Val( 2p)     1.04486     0.07717
  97    C  6  pz     Ryd( 3p)     0.00339     0.00143
  98    C  6  dxy    Ryd( 3d)     0.00087     0.00000
  99    C  6  dxz    Ryd( 3d)     0.00075     0.00014
 100    C  6  dyz    Ryd( 3d)     0.00065     0.00006
 101    C  6  dx2y2  Ryd( 3d)     0.00098    -0.00001
 102    C  6  dz2    Ryd( 3d)     0.00058    -0.00005

 103    C  7  s      Cor( 1s)     1.99995     0.00000
 104    C  7  s      Val( 2s)     0.91736    -0.00252
 105    C  7  s      Ryd( 3s)     0.00126     0.00004
 106    C  7  px     Val( 2p)     1.10013    -0.00469
 107    C  7  px     Ryd( 3p)     0.00466     0.00008
 108    C  7  py     Val( 2p)     1.17812    -0.00261
 109    C  7  py     Ryd( 3p)     0.00635     0.00003
 110    C  7  pz     Val( 2p)     1.04972    -0.00330
 111    C  7  pz     Ryd( 3p)     0.00238     0.00148
 112    C  7  dxy    Ryd( 3d)     0.00093    -0.00002
 113    C  7  dxz    Ryd( 3d)     0.00101     0.00042
 114    C  7  dyz    Ryd( 3d)     0.00040     0.00003
 115    C  7  dx2y2  Ryd( 3d)     0.00072     0.00001
 116    C  7  dz2    Ryd( 3d)     0.00066    -0.00001

 117    C  8  s      Cor( 1s)     1.99994     0.00000
 118    C  8  s      Val( 2s)     1.00874    -0.00463
 119    C  8  s      Ryd( 3s)     0.00075     0.00000
 120    C  8  px     Val( 2p)     1.07198    -0.00909
 121    C  8  px     Ryd( 3p)     0.00251     0.00005
 122    C  8  py     Val( 2p)     1.15940    -0.00748
 123    C  8  py     Ryd( 3p)     0.00313     0.00004
 124    C  8  pz     Val( 2p)     1.20486    -0.00954
 125    C  8  pz     Ryd( 3p)     0.00168     0.00063
 126    C  8  dxy    Ryd( 3d)     0.00082    -0.00002
 127    C  8  dxz    Ryd( 3d)     0.00058     0.00005
 128    C  8  dyz    Ryd( 3d)     0.00123     0.00032
 129    C  8  dx2y2  Ryd( 3d)     0.00053     0.00000
 130    C  8  dz2    Ryd( 3d)     0.00063    -0.00001

 131    C  9  s      Cor( 1s)     1.99996     0.00000
 132    C  9  s      Val( 2s)     0.92868     0.01598
 133    C  9  s      Ryd( 3s)     0.00076     0.00004
 134    C  9  px     Val( 2p)     1.12745     0.00938
 135    C  9  px     Ryd( 3p)     0.00449     0.00006
 136    C  9  py     Val( 2p)     1.05361     0.00900
 137    C  9  py     Ryd( 3p)     0.00471     0.00003
 138    C  9  pz     Val( 2p)     1.22619     0.35274
 139    C  9  pz     Ryd( 3p)     0.00761     0.00543
 140    C  9  dxy    Ryd( 3d)     0.00084     0.00000
 141    C  9  dxz    Ryd( 3d)     0.00023    -0.00003
 142    C  9  dyz    Ryd( 3d)     0.00075    -0.00014
 143    C  9  dx2y2  Ryd( 3d)     0.00093     0.00000
 144    C  9  dz2    Ryd( 3d)     0.00067    -0.00022

 145    C 10  s      Cor( 1s)     1.99995     0.00000
 146    C 10  s      Val( 2s)     0.93314    -0.00338
 147    C 10  s      Ryd( 3s)     0.00105     0.00007
 148    C 10  px     Val( 2p)     1.07893    -0.00652
 149    C 10  px     Ryd( 3p)     0.00467     0.00011
 150    C 10  py     Val( 2p)     1.16401    -0.00396
 151    C 10  py     Ryd( 3p)     0.00463     0.00004
 152    C 10  pz     Val( 2p)     1.10372     0.00419
 153    C 10  pz     Ryd( 3p)     0.00355     0.00198
 154    C 10  dxy    Ryd( 3d)     0.00092    -0.00001
 155    C 10  dxz    Ryd( 3d)     0.00074     0.00042
 156    C 10  dyz    Ryd( 3d)     0.00090     0.00013
 157    C 10  dx2y2  Ryd( 3d)     0.00084    -0.00001
 158    C 10  dz2    Ryd( 3d)     0.00064    -0.00003

 159    H 11  s      Val( 1s)     0.78683     0.00064
 160    H 11  s      Ryd( 2s)     0.00184     0.00000
 161    H 11  px     Ryd( 2p)     0.00049     0.00000
 162    H 11  py     Ryd( 2p)     0.00051     0.00000
 163    H 11  pz     Ryd( 2p)     0.00024     0.00000

 164    H 12  s      Val( 1s)     0.79814    -0.00316
 165    H 12  s      Ryd( 2s)     0.00166    -0.00002
 166    H 12  px     Ryd( 2p)     0.00012     0.00000
 167    H 12  py     Ryd( 2p)     0.00082     0.00000
 168    H 12  pz     Ryd( 2p)     0.00026     0.00006

 169    H 13  s      Val( 1s)     0.78492     0.00013
 170    H 13  s      Ryd( 2s)     0.00193     0.00000
 171    H 13  px     Ryd( 2p)     0.00015     0.00000
 172    H 13  py     Ryd( 2p)     0.00083     0.00000
 173    H 13  pz     Ryd( 2p)     0.00023     0.00000

 174    H 14  s      Val( 1s)     0.79344     0.03172
 175    H 14  s      Ryd( 2s)     0.00333     0.00154
 176    H 14  px     Ryd( 2p)     0.00013     0.00000
 177    H 14  py     Ryd( 2p)     0.00031    -0.00001
 178    H 14  pz     Ryd( 2p)     0.00067     0.00002

 179    H 15  s      Val( 1s)     0.79344     0.03172
 180    H 15  s      Ryd( 2s)     0.00333     0.00154
 181    H 15  px     Ryd( 2p)     0.00013     0.00000
 182    H 15  py     Ryd( 2p)     0.00031    -0.00001
 183    H 15  pz     Ryd( 2p)     0.00067     0.00002

 184    H 16  s      Val( 1s)     0.81374    -0.01374
 185    H 16  s      Ryd( 2s)     0.00115    -0.00004
 186    H 16  px     Ryd( 2p)     0.00081    -0.00002
 187    H 16  py     Ryd( 2p)     0.00010     0.00000
 188    H 16  pz     Ryd( 2p)     0.00038     0.00022

 189    H 17  s      Val( 1s)     0.80285    -0.00021
 190    H 17  s      Ryd( 2s)     0.00123     0.00000
 191    H 17  px     Ryd( 2p)     0.00032     0.00000
 192    H 17  py     Ryd( 2p)     0.00063     0.00000
 193    H 17  pz     Ryd( 2p)     0.00026     0.00003


 Summary of Natural Population Analysis:

                                     Natural Population                 Natural
             Natural    ---------------------------------------------    Spin
  Atom No    Charge        Core      Valence    Rydberg      Total      Density
 -------------------------------------------------------------------------------
   Br  1   -0.06318     27.99997     7.04238    0.02083    35.06318     0.00258
    C  2   -0.22517      1.99997     4.20353    0.02168     6.22517     0.26895
    C  3   -0.27205      1.99995     4.25287    0.01922     6.27205    -0.02215
    C  4   -0.26715      1.99995     4.24980    0.01740     6.26715     0.08104
    C  5   -0.15290      1.99996     4.13357    0.01936     6.15290     0.19194
    C  6   -0.04839      1.99996     4.03063    0.01780     6.04839     0.08270
    C  7   -0.26364      1.99995     4.24533    0.01836     6.26364    -0.01107
    C  8   -0.45678      1.99994     4.44498    0.01187     6.45678    -0.02969
    C  9   -0.35687      1.99996     4.33593    0.02099     6.35687     0.39226
    C 10   -0.29768      1.99995     4.27980    0.01793     6.29768    -0.00697
    H 11    0.21011      0.00000     0.78683    0.00306     0.78989     0.00064
    H 12    0.19900      0.00000     0.79814    0.00286     0.80100    -0.00313
    H 13    0.21194      0.00000     0.78492    0.00315     0.78806     0.00013
    H 14    0.20213      0.00000     0.79344    0.00443     0.79787     0.03327
    H 15    0.20213      0.00000     0.79344    0.00443     0.79787     0.03327
    H 16    0.18380      0.00000     0.81374    0.00245     0.81620    -0.01359
    H 17    0.19470      0.00000     0.80285    0.00245     0.80530    -0.00019
 ===============================================================================
 * Total * -1.00000     45.99955    50.79217    0.20828    97.00000     1.00000

                                 Natural Population
 ---------------------------------------------------------
   Core                      45.99955 ( 99.9990% of   46)
   Valence                   50.79217 ( 99.5925% of   51)
   Natural Minimal Basis     96.79172 ( 99.7853% of   97)
   Natural Rydberg Basis      0.20828 (  0.2147% of   97)
 ---------------------------------------------------------

    Atom No         Natural Electron Configuration
 ----------------------------------------------------------------------------
     Br  1      [core]4s( 1.84)4p( 5.20)4d( 0.01)5p( 0.01)
      C  2      [core]2s( 0.90)2p( 3.30)3p( 0.02)3d( 0.01)
      C  3      [core]2s( 0.93)2p( 3.32)3p( 0.01)
      C  4      [core]2s( 0.92)2p( 3.33)3p( 0.01)
      C  5      [core]2s( 0.84)2p( 3.29)3p( 0.01)
      C  6      [core]2s( 0.84)2p( 3.19)3p( 0.01)
      C  7      [core]2s( 0.92)2p( 3.33)3p( 0.01)
      C  8      [core]2s( 1.01)2p( 3.44)3p( 0.01)
      C  9      [core]2s( 0.93)2p( 3.41)3p( 0.02)
      C 10      [core]2s( 0.93)2p( 3.35)3p( 0.01)
      H 11            1s( 0.79)
      H 12            1s( 0.80)
      H 13            1s( 0.78)
      H 14            1s( 0.79)
      H 15            1s( 0.79)
      H 16            1s( 0.81)
      H 17            1s( 0.80)


 ***************************************************
 *******         Alpha spin orbitals         *******
 ***************************************************


 NATURAL POPULATIONS:  Natural atomic orbital occupancies

  NAO Atom No lang   Type(AO)    Occupancy      Energy
 -------------------------------------------------------
   1   Br  1  s      Cor( 1s)     1.00000    -400.75537
   2   Br  1  s      Cor( 2s)     1.00000    -128.62973
   3   Br  1  s      Cor( 3s)     1.00000     -24.65690
   4   Br  1  s      Val( 4s)     0.92031      -0.60226
   5   Br  1  s      Ryd( 5s)     0.00156       0.70148
   6   Br  1  px     Cor( 2p)     1.00000     -36.88960
   7   Br  1  px     Cor( 3p)     1.00000     -25.88064
   8   Br  1  px     Val( 4p)     0.63334      -0.10945
   9   Br  1  px     Ryd( 5p)     0.00136       0.87986
  10   Br  1  py     Cor( 2p)     1.00000     -36.88273
  11   Br  1  py     Cor( 3p)     1.00000     -25.87452
  12   Br  1  py     Val( 4p)     0.97552      -0.21382
  13   Br  1  py     Ryd( 5p)     0.00058       0.90173
  14   Br  1  pz     Cor( 2p)     1.00000     -36.88222
  15   Br  1  pz     Cor( 3p)     1.00000     -25.87404
  16   Br  1  pz     Val( 4p)     0.99198      -0.21804
  17   Br  1  pz     Ryd( 5p)     0.00116       0.87583
  18   Br  1  dxy    Cor( 3d)     1.00000      -2.57946
  19   Br  1  dxy    Ryd( 4d)     0.00073       1.10232
  20   Br  1  dxy    Ryd( 5d)     0.00000       3.87977
  21   Br  1  dxz    Cor( 3d)     1.00000      -2.57879
  22   Br  1  dxz    Ryd( 4d)     0.00319       0.89213
  23   Br  1  dxz    Ryd( 5d)     0.00000       3.73047
  24   Br  1  dyz    Cor( 3d)     1.00000      -2.57055
  25   Br  1  dyz    Ryd( 4d)     0.00017       0.80605
  26   Br  1  dyz    Ryd( 5d)     0.00000       3.65106
  27   Br  1  dx2y2  Cor( 3d)     1.00000      -2.57962
  28   Br  1  dx2y2  Ryd( 4d)     0.00214       1.14123
  29   Br  1  dx2y2  Ryd( 5d)     0.00000       3.95353
  30   Br  1  dz2    Cor( 3d)     1.00000      -2.57316
  31   Br  1  dz2    Ryd( 4d)     0.00084       0.93043
  32   Br  1  dz2    Ryd( 5d)     0.00000       3.77528

  33    C  2  s      Cor( 1s)     0.99998     -10.15596
  34    C  2  s      Val( 2s)     0.45590       0.05354
  35    C  2  s      Ryd( 3s)     0.00046       0.79098
  36    C  2  px     Val( 2p)     0.46436       0.07231
  37    C  2  px     Ryd( 3p)     0.00305       1.23403
  38    C  2  py     Val( 2p)     0.55293       0.12111
  39    C  2  py     Ryd( 3p)     0.00283       1.01058
  40    C  2  pz     Val( 2p)     0.76184      -0.03447
  41    C  2  pz     Ryd( 3p)     0.00320       0.83471
  42    C  2  dxy    Ryd( 3d)     0.00057       2.62479
  43    C  2  dxz    Ryd( 3d)     0.00037       2.05739
  44    C  2  dyz    Ryd( 3d)     0.00031       2.18286
  45    C  2  dx2y2  Ryd( 3d)     0.00089       2.52572
  46    C  2  dz2    Ryd( 3d)     0.00037       2.38531

  47    C  3  s      Cor( 1s)     0.99998     -10.13580
  48    C  3  s      Val( 2s)     0.46271       0.11070
  49    C  3  s      Ryd( 3s)     0.00058       0.80727
  50    C  3  px     Val( 2p)     0.56443       0.13261
  51    C  3  px     Ryd( 3p)     0.00301       1.07259
  52    C  3  py     Val( 2p)     0.56616       0.12121
  53    C  3  py     Ryd( 3p)     0.00254       1.08655
  54    C  3  pz     Val( 2p)     0.52068       0.05810
  55    C  3  pz     Ryd( 3p)     0.00274       0.80482
  56    C  3  dxy    Ryd( 3d)     0.00042       2.73068
  57    C  3  dxz    Ryd( 3d)     0.00053       2.16448
  58    C  3  dyz    Ryd( 3d)     0.00045       2.16369
  59    C  3  dx2y2  Ryd( 3d)     0.00040       2.66860
  60    C  3  dz2    Ryd( 3d)     0.00033       2.45688

  61    C  4  s      Cor( 1s)     0.99997     -10.12368
  62    C  4  s      Val( 2s)     0.45857       0.12755
  63    C  4  s      Ryd( 3s)     0.00041       0.81597
  64    C  4  px     Val( 2p)     0.53793       0.16300
  65    C  4  px     Ryd( 3p)     0.00193       0.95219
  66    C  4  py     Val( 2p)     0.58449       0.12383
  67    C  4  py     Ryd( 3p)     0.00290       1.24082
  68    C  4  pz     Val( 2p)     0.58315       0.04672
  69    C  4  pz     Ryd( 3p)     0.00287       0.81119
  70    C  4  dxy    Ryd( 3d)     0.00041       2.72288
  71    C  4  dxz    Ryd( 3d)     0.00059       2.20566
  72    C  4  dyz    Ryd( 3d)     0.00018       2.17663
  73    C  4  dx2y2  Ryd( 3d)     0.00042       2.76539
  74    C  4  dz2    Ryd( 3d)     0.00027       2.47889

  75    C  5  s      Cor( 1s)     0.99998     -10.10452
  76    C  5  s      Val( 2s)     0.42314       0.17966
  77    C  5  s      Ryd( 3s)     0.00102       0.83006
  78    C  5  px     Val( 2p)     0.54536       0.15851
  79    C  5  px     Ryd( 3p)     0.00212       1.38378
  80    C  5  py     Val( 2p)     0.54611       0.16331
  81    C  5  py     Ryd( 3p)     0.00264       1.29307
  82    C  5  pz     Val( 2p)     0.64651       0.04812
  83    C  5  pz     Ryd( 3p)     0.00352       0.89680
  84    C  5  dxy    Ryd( 3d)     0.00046       2.73388
  85    C  5  dxz    Ryd( 3d)     0.00064       2.17900
  86    C  5  dyz    Ryd( 3d)     0.00023       2.20184
  87    C  5  dx2y2  Ryd( 3d)     0.00041       2.75713
  88    C  5  dz2    Ryd( 3d)     0.00025       2.48074

  89    C  6  s      Cor( 1s)     0.99998     -10.12031
  90    C  6  s      Val( 2s)     0.42123       0.16476
  91    C  6  s      Ryd( 3s)     0.00097       0.83623
  92    C  6  px     Val( 2p)     0.53921       0.16087
  93    C  6  px     Ryd( 3p)     0.00198       1.37156
  94    C  6  py     Val( 2p)     0.53442       0.15430
  95    C  6  py     Ryd( 3p)     0.00236       1.20973
  96    C  6  pz     Val( 2p)     0.56101       0.06338
  97    C  6  pz     Ryd( 3p)     0.00241       0.89340
  98    C  6  dxy    Ryd( 3d)     0.00043       2.70159
  99    C  6  dxz    Ryd( 3d)     0.00045       2.22219
 100    C  6  dyz    Ryd( 3d)     0.00035       2.17917
 101    C  6  dx2y2  Ryd( 3d)     0.00049       2.74549
 102    C  6  dz2    Ryd( 3d)     0.00027       2.46410

 103    C  7  s      Cor( 1s)     0.99997     -10.13388
 104    C  7  s      Val( 2s)     0.45742       0.12614
 105    C  7  s      Ryd( 3s)     0.00065       0.80296
 106    C  7  px     Val( 2p)     0.54772       0.15070
 107    C  7  px     Ryd( 3p)     0.00237       0.92444
 108    C  7  py     Val( 2p)     0.58776       0.10490
 109    C  7  py     Ryd( 3p)     0.00319       1.24039
 110    C  7  pz     Val( 2p)     0.52321       0.05907
 111    C  7  pz     Ryd( 3p)     0.00193       0.80825
 112    C  7  dxy    Ryd( 3d)     0.00045       2.71070
 113    C  7  dxz    Ryd( 3d)     0.00071       2.19211
 114    C  7  dyz    Ryd( 3d)     0.00021       2.15800
 115    C  7  dx2y2  Ryd( 3d)     0.00036       2.70849
 116    C  7  dz2    Ryd( 3d)     0.00033       2.46095

 117    C  8  s      Cor( 1s)     0.99997     -10.13804
 118    C  8  s      Val( 2s)     0.50205       0.03644
 119    C  8  s      Ryd( 3s)     0.00038       1.19891
 120    C  8  px     Val( 2p)     0.53144       0.10801
 121    C  8  px     Ryd( 3p)     0.00128       0.82083
 122    C  8  py     Val( 2p)     0.57596       0.09618
 123    C  8  py     Ryd( 3p)     0.00159       0.77233
 124    C  8  pz     Val( 2p)     0.59766       0.07808
 125    C  8  pz     Ryd( 3p)     0.00115       0.96901
 126    C  8  dxy    Ryd( 3d)     0.00040       2.59297
 127    C  8  dxz    Ryd( 3d)     0.00031       2.25038
 128    C  8  dyz    Ryd( 3d)     0.00078       2.72453
 129    C  8  dx2y2  Ryd( 3d)     0.00026       2.42966
 130    C  8  dz2    Ryd( 3d)     0.00031       2.54769

 131    C  9  s      Cor( 1s)     0.99998     -10.09835
 132    C  9  s      Val( 2s)     0.47233       0.09977
 133    C  9  s      Ryd( 3s)     0.00040       0.80811
 134    C  9  px     Val( 2p)     0.56841       0.13865
 135    C  9  px     Ryd( 3p)     0.00227       1.22258
 136    C  9  py     Val( 2p)     0.53130       0.16176
 137    C  9  py     Ryd( 3p)     0.00237       0.86272
 138    C  9  pz     Val( 2p)     0.78946      -0.00982
 139    C  9  pz     Ryd( 3p)     0.00652       0.80141
 140    C  9  dxy    Ryd( 3d)     0.00042       2.70098
 141    C  9  dxz    Ryd( 3d)     0.00010       2.19480
 142    C  9  dyz    Ryd( 3d)     0.00030       2.22297
 143    C  9  dx2y2  Ryd( 3d)     0.00046       2.69155
 144    C  9  dz2    Ryd( 3d)     0.00023       2.46944

 145    C 10  s      Cor( 1s)     0.99997     -10.11034
 146    C 10  s      Val( 2s)     0.46488       0.12873
 147    C 10  s      Ryd( 3s)     0.00056       0.81000
 148    C 10  px     Val( 2p)     0.53621       0.16294
 149    C 10  px     Ryd( 3p)     0.00239       0.97499
 150    C 10  py     Val( 2p)     0.58002       0.13948
 151    C 10  py     Ryd( 3p)     0.00234       1.13702
 152    C 10  pz     Val( 2p)     0.55395       0.06753
 153    C 10  pz     Ryd( 3p)     0.00276       0.80835
 154    C 10  dxy    Ryd( 3d)     0.00045       2.73544
 155    C 10  dxz    Ryd( 3d)     0.00058       2.18303
 156    C 10  dyz    Ryd( 3d)     0.00051       2.22065
 157    C 10  dx2y2  Ryd( 3d)     0.00041       2.72920
 158    C 10  dz2    Ryd( 3d)     0.00031       2.49297

 159    H 11  s      Val( 1s)     0.39374       0.25684
 160    H 11  s      Ryd( 2s)     0.00092       0.54397
 161    H 11  px     Ryd( 2p)     0.00024       2.42062
 162    H 11  py     Ryd( 2p)     0.00025       2.45955
 163    H 11  pz     Ryd( 2p)     0.00012       1.90928

 164    H 12  s      Val( 1s)     0.39749       0.25835
 165    H 12  s      Ryd( 2s)     0.00082       0.54807
 166    H 12  px     Ryd( 2p)     0.00006       2.27478
 167    H 12  py     Ryd( 2p)     0.00041       2.62514
 168    H 12  pz     Ryd( 2p)     0.00016       1.91784

 169    H 13  s      Val( 1s)     0.39252       0.25600
 170    H 13  s      Ryd( 2s)     0.00097       0.55038
 171    H 13  px     Ryd( 2p)     0.00008       2.28201
 172    H 13  py     Ryd( 2p)     0.00042       2.62207
 173    H 13  pz     Ryd( 2p)     0.00012       1.92338

 174    H 14  s      Val( 1s)     0.41258       0.24131
 175    H 14  s      Ryd( 2s)     0.00244       0.57719
 176    H 14  px     Ryd( 2p)     0.00006       2.01080
 177    H 14  py     Ryd( 2p)     0.00015       2.28387
 178    H 14  pz     Ryd( 2p)     0.00034       2.43014

 179    H 15  s      Val( 1s)     0.41258       0.24131
 180    H 15  s      Ryd( 2s)     0.00244       0.57719
 181    H 15  px     Ryd( 2p)     0.00006       2.01079
 182    H 15  py     Ryd( 2p)     0.00015       2.28387
 183    H 15  pz     Ryd( 2p)     0.00034       2.43013

 184    H 16  s      Val( 1s)     0.40000       0.26796
 185    H 16  s      Ryd( 2s)     0.00055       0.54058
 186    H 16  px     Ryd( 2p)     0.00040       2.64818
 187    H 16  py     Ryd( 2p)     0.00005       2.23108
 188    H 16  pz     Ryd( 2p)     0.00030       1.93130

 189    H 17  s      Val( 1s)     0.40132       0.26514
 190    H 17  s      Ryd( 2s)     0.00061       0.53938
 191    H 17  px     Ryd( 2p)     0.00016       2.35772
 192    H 17  py     Ryd( 2p)     0.00032       2.52497
 193    H 17  pz     Ryd( 2p)     0.00015       1.92164


 Summary of Natural Population Analysis:

                                     Natural Population
             Natural    ---------------------------------------------
  Atom No    Charge        Core      Valence    Rydberg      Total
 --------------------------------------------------------------------
   Br  1   -0.03288     13.99999     3.52116    0.01174    17.53288
    C  2   -0.24706      0.99998     2.23502    0.01206     3.24706
    C  3   -0.12495      0.99998     2.11398    0.01099     3.12495
    C  4   -0.17409      0.99997     2.16414    0.00998     3.17409
    C  5   -0.17242      0.99998     2.16113    0.01130     3.17242
    C  6   -0.06555      0.99998     2.05587    0.00970     3.06555
    C  7   -0.12628      0.99997     2.11611    0.01020     3.12628
    C  8   -0.21354      0.99997     2.20712    0.00646     3.21354
    C  9   -0.37457      0.99998     2.36151    0.01308     3.37457
    C 10   -0.14535      0.99997     2.13506    0.01031     3.14535
    H 11    0.10473      0.00000     0.39374    0.00153     0.39527
    H 12    0.10107      0.00000     0.39749    0.00144     0.39893
    H 13    0.10590      0.00000     0.39252    0.00158     0.39410
    H 14    0.08443      0.00000     0.41258    0.00299     0.41557
    H 15    0.08443      0.00000     0.41258    0.00299     0.41557
    H 16    0.09870      0.00000     0.40000    0.00130     0.40130
    H 17    0.09744      0.00000     0.40132    0.00124     0.40256
 ====================================================================
 * Total * -1.00000     22.99978    25.88133    0.11889    49.00000
[...]
   42. BD ( 1) C  8- C  9      69. BD*( 1) C  9- H 16      0.38    1.17   0.027
   42. BD ( 1) C  8- C  9      70. BD*( 1) C 10- H 17      2.57    1.16   0.069
   42. BD ( 1) C  8- C  9     122. RY ( 2) C  6            0.41    1.88   0.035
   42. BD ( 1) C  8- C  9     158. RY ( 2) C 10            0.83    1.43   0.043
   42. BD ( 1) C  8- C  9     178. RY ( 1) H 14            0.28    1.03   0.021
   42. BD ( 1) C  8- C  9     182. RY ( 1) H 15            0.28    1.03   0.021
   43. BD ( 1) C  8- H 14      58. BD*( 1) C  5- C  6      0.59    1.22   0.034
   43. BD ( 1) C  8- H 14      61. BD*( 2) C  6- C  7      2.65    0.66   0.053
   43. BD ( 1) C  8- H 14      67. BD*( 1) C  9- C 10      0.44    1.31   0.030
   43. BD ( 1) C  8- H 14      68. BD*( 2) C  9- C 10      2.56    0.70   0.054
   43. BD ( 1) C  8- H 14     123. RY ( 3) C  6            0.53    1.39   0.034
   43. BD ( 1) C  8- H 14     149. RY ( 2) C  9            0.54    1.32   0.034
   44. BD ( 1) C  8- H 15      58. BD*( 1) C  5- C  6      0.59    1.22   0.034
   44. BD ( 1) C  8- H 15      61. BD*( 2) C  6- C  7      2.65    0.66   0.053
   44. BD ( 1) C  8- H 15      67. BD*( 1) C  9- C 10      0.44    1.31   0.030
   44. BD ( 1) C  8- H 15      68. BD*( 2) C  9- C 10      2.56    0.70   0.054
   44. BD ( 1) C  8- H 15     123. RY ( 3) C  6            0.53    1.39   0.034
   44. BD ( 1) C  8- H 15     149. RY ( 2) C  9            0.54    1.32   0.034
   45. BD ( 1) C  9- C 10      55. BD*( 1) C  4- C  5      1.97    1.36   0.065
   45. BD ( 1) C  9- C 10      59. BD*( 1) C  5- C 10      1.38    1.27   0.053
   45. BD ( 1) C  9- C 10      64. BD*( 1) C  8- C  9      0.87    1.20   0.041
   45. BD ( 1) C  9- C 10      65. BD*( 1) C  8- H 14      0.37    1.19   0.027
   45. BD ( 1) C  9- C 10      66. BD*( 1) C  8- H 15      0.37    1.19   0.027
   45. BD ( 1) C  9- C 10      69. BD*( 1) C  9- H 16      1.28    1.23   0.050
   45. BD ( 1) C  9- C 10      70. BD*( 1) C 10- H 17      1.23    1.22   0.049
   45. BD ( 1) C  9- C 10     112. RY ( 1) C  5            0.78    1.86   0.048
   45. BD ( 1) C  9- C 10     113. RY ( 2) C  5            0.44    2.08   0.038
   45. BD ( 1) C  9- C 10     140. RY ( 2) C  8            0.67    1.40   0.039
   45. BD ( 1) C  9- C 10     186. RY ( 1) H 16            0.36    1.12   0.025
   45. BD ( 1) C  9- C 10     190. RY ( 1) H 17            0.36    1.10   0.025
   46. BD ( 2) C  9- C 10      56. BD*( 2) C  4- C  5     13.02    0.44   0.095
   46. BD ( 2) C  9- C 10      65. BD*( 1) C  8- H 14      1.76    0.83   0.048
   46. BD ( 2) C  9- C 10      66. BD*( 1) C  8- H 15      1.76    0.83   0.048
   46. BD ( 2) C  9- C 10     115. RY ( 4) C  5            0.76    1.82   0.047
   47. BD ( 1) C  9- H 16      59. BD*( 1) C  5- C 10      1.55    1.16   0.054
   47. BD ( 1) C  9- H 16      62. BD*( 1) C  6- C  8      0.79    1.08   0.037
   47. BD ( 1) C  9- H 16      67. BD*( 1) C  9- C 10      0.67    1.32   0.038
   47. BD ( 1) C  9- H 16     157. RY ( 1) C 10            0.26    1.80   0.028
   48. BD ( 1) C 10- H 17      58. BD*( 1) C  5- C  6      1.00    1.24   0.045
   48. BD ( 1) C 10- H 17      59. BD*( 1) C  5- C 10      0.27    1.17   0.023
   48. BD ( 1) C 10- H 17      64. BD*( 1) C  8- C  9      1.66    1.10   0.054
   48. BD ( 1) C 10- H 17      67. BD*( 1) C  9- C 10      0.69    1.33   0.038
   48. BD ( 1) C 10- H 17     148. RY ( 1) C  9            0.32    1.91   0.031


 NATURAL BOND ORBITALS (Summary):

                                                     Principal Delocalizations
           NBO                 Occupancy    Energy   (geminal,vicinal,remote)
 ===============================================================================
 Molecular unit  1  (C9H7Br)
 ------ Lewis --------------------------------------
    1. CR ( 1)Br  1             1.00000  -400.75537
    2. CR ( 2)Br  1             1.00000  -128.62970
    3. CR ( 3)Br  1             1.00000   -24.65689
    4. CR ( 4)Br  1             1.00000   -36.88965
    5. CR ( 5)Br  1             1.00000   -25.88075
    6. CR ( 6)Br  1             1.00000   -36.88272
    7. CR ( 7)Br  1             1.00000   -25.87453
    8. CR ( 8)Br  1             1.00000   -36.88209
    9. CR ( 9)Br  1             1.00000   -25.87392
   10. CR (10)Br  1             1.00000    -2.57951
   11. CR (11)Br  1             1.00000    -2.57868
   12. CR (12)Br  1             1.00000    -2.57047
   13. CR (13)Br  1             1.00000    -2.57967
   14. CR (14)Br  1             1.00000    -2.57309
   15. CR ( 1) C  2             0.99998   -10.15198
   16. CR ( 1) C  3             0.99998   -10.13631
   17. CR ( 1) C  4             0.99997   -10.12268
   18. CR ( 1) C  5             0.99998   -10.10194
   19. CR ( 1) C  6             0.99998   -10.11921
   20. CR ( 1) C  7             0.99997   -10.13416
   21. CR ( 1) C  8             0.99997   -10.13864
   22. CR ( 1) C  9             0.99998   -10.09327
   23. CR ( 1) C 10             0.99997   -10.11072
   24. LP ( 1)Br  1             0.99762    -0.58707  85(v),50(v),52(v)
   25. LP ( 2)Br  1             0.99064    -0.21834  50(v),52(v),86(v),53(r)
   26. LP ( 3)Br  1             0.97876    -0.21389  51(v)
   27. BD ( 1)Br  1- C  2       0.99340    -0.47896  53(v),60(v),94(v),130(v)
   28. BD ( 1) C  2- C  3       0.98808    -0.51793  52(g),53(g),63(v),57(v)
                                                     54(g),104(v),103(v),130(v)
                                                     166(v),131(v)
   29. BD ( 2) C  2- C  3       0.85552    -0.14194  56(v),61(v),105(v),132(v)
                                                     71(v)
   30. BD ( 1) C  2- C  7       0.98722    -0.51423  50(g),62(v),60(g),121(v)
                                                     54(v),63(g),94(v),174(v)
   31. BD ( 1) C  3- C  4       0.98362    -0.49158  49(v),59(v),50(g),55(g)
                                                     112(v),54(g),57(g),85(v)
                                                     86(v),170(v),166(v)
   32. BD ( 1) C  3- H 11       0.98969    -0.40333  52(v),55(v),85(v),49(v)
                                                     53(g),50(g),103(v),57(v)
   33. BD ( 1) C  4- C  5       0.98587    -0.48700  58(g),59(g),53(g),54(v)
                                                     62(v),57(g),95(v),94(v)
                                                     157(v),121(v),170(v),122(v)
   34. BD ( 2) C  4- C  5       0.80628    -0.10477  51(v),61(v),68(v),159(v)
                                                     98(v),105(g),126(v),123(v)
   35. BD ( 1) C  4- H 12       0.99016    -0.39347  58(v),50(v),55(g),53(g)
                                                     94(v),112(v),54(v)
   36. BD ( 1) C  5- C  6       0.97895    -0.45993  55(g),60(g),63(v),57(v)
                                                     70(v),59(g),62(g),103(v)
                                                     139(v),130(v),157(v),65(v)
                                                     66(v),131(v),64(v)
   37. BD ( 1) C  5- C 10       0.98334    -0.42719  69(v),55(g),60(v),67(g)
                                                     58(g),53(v),148(v),70(g)
                                                     103(v),64(v),122(v),62(v)
   38. BD ( 1) C  6- C  7       0.98247    -0.49431  49(v),52(g),58(g),62(g)
                                                     63(g),59(v),85(v),113(v)
                                                     139(v),86(v),174(v)
   39. BD ( 2) C  6- C  7       0.84245    -0.12742  51(v),56(v),65(v),66(v)
                                                     87(v),117(v),88(v),132(g)
                                                     141(v)
   40. BD ( 1) C  6- C  8       0.98544    -0.43961  55(v),69(v),60(g),58(g)
                                                     52(v),64(g),130(v),113(v)
                                                     65(g),66(g),150(v),59(v)
                                                     131(v)
   41. BD ( 1) C  7- H 13       0.98969    -0.40196  58(v),50(v),60(g),49(v)
                                                     85(v),121(v),52(g)
   42. BD ( 1) C  8- C  9       0.98744    -0.42713  70(v),60(v),67(g),158(v)
                                                     62(g),122(v),65(g),66(g)
                                                     69(g),58(v),59(v),178(v)
                                                     182(v)
   43. BD ( 1) C  8- H 14       0.97986    -0.37862  61(v),68(v),58(v),149(v)
                                                     123(v),67(v)
   44. BD ( 1) C  8- H 15       0.97986    -0.37862  61(v),68(v),58(v),149(v)
                                                     123(v),67(v)
   45. BD ( 1) C  9- C 10       0.98961    -0.49463  55(v),59(g),69(g),70(g)
                                                     64(g),112(v),140(v),113(v)
                                                     65(v),66(v),190(v),186(v)
   46. BD ( 2) C  9- C 10       0.95114    -0.14044  56(v),65(v),66(v),115(v)
   47. BD ( 1) C  9- H 16       0.99278    -0.38541  59(v),62(v),67(g),157(v)
   48. BD ( 1) C 10- H 17       0.99236    -0.39612  64(v),58(v),67(g),148(v)
                                                     59(g)
 ------ non-Lewis ----------------------------------
   49. BD*( 1)Br  1- C  2       0.01611     0.36618
   50. BD*( 1) C  2- C  3       0.01305     0.83409
   51. BD*( 2) C  2- C  3       0.20272     0.25025
   52. BD*( 1) C  2- C  7       0.01255     0.83427
   53. BD*( 1) C  3- C  4       0.00839     0.84729
   54. BD*( 1) C  3- H 11       0.00729     0.71623
   55. BD*( 1) C  4- C  5       0.01270     0.86909
   56. BD*( 2) C  4- C  5       0.17028     0.29593
   57. BD*( 1) C  4- H 12       0.00780     0.71972
   58. BD*( 1) C  5- C  6       0.01521     0.84602
   59. BD*( 1) C  5- C 10       0.01266     0.77463
   60. BD*( 1) C  6- C  7       0.01318     0.86831
   61. BD*( 2) C  6- C  7       0.16811     0.28028
   62. BD*( 1) C  6- C  8       0.01092     0.69719
   63. BD*( 1) C  7- H 13       0.00821     0.71093
   64. BD*( 1) C  8- C  9       0.00672     0.70288
   65. BD*( 1) C  8- H 14       0.00734     0.69249
   66. BD*( 1) C  8- H 15       0.00734     0.69248
   67. BD*( 1) C  9- C 10       0.00576     0.93283
   68. BD*( 2) C  9- C 10       0.03651     0.32568
   69. BD*( 1) C  9- H 16       0.00823     0.73965
   70. BD*( 1) C 10- H 17       0.00835     0.72943
   71. RY ( 1)Br  1             0.00171     0.83342
   72. RY ( 2)Br  1             0.00071     0.93072
   73. RY ( 3)Br  1             0.00025     0.76593
   74. RY ( 4)Br  1             0.00005     1.18636
   75. RY ( 5)Br  1             0.00003     0.77314
   76. RY ( 6)Br  1             0.00000     1.20901
   77. RY ( 7)Br  1             0.00000     1.09739
   78. RY ( 8)Br  1             0.00000     0.86537
   79. RY ( 9)Br  1             0.00000     1.08227
   80. RY (10)Br  1             0.00000     3.71682
   81. RY (11)Br  1             0.00000     3.59251
   82. RY (12)Br  1             0.00000     3.67827
   83. RY (13)Br  1             0.00000     3.85044
   84. RY (14)Br  1             0.00000     3.62861
   85. RY ( 1) C  2             0.00316     1.36995
   86. RY ( 2) C  2             0.00228     1.01366
   87. RY ( 3) C  2             0.00086     1.20574
   88. RY ( 4) C  2             0.00047     2.19667
   89. RY ( 5) C  2             0.00041     0.82796
   90. RY ( 6) C  2             0.00027     2.60640
   91. RY ( 7) C  2             0.00014     2.30818
   92. RY ( 8) C  2             0.00009     1.72131
   93. RY ( 9) C  2             0.00000     2.47433
   94. RY ( 1) C  3             0.00294     1.36076
   95. RY ( 2) C  3             0.00138     0.94483
   96. RY ( 3) C  3             0.00058     1.15962
   97. RY ( 4) C  3             0.00035     0.82290
   98. RY ( 5) C  3             0.00033     1.85615
   99. RY ( 6) C  3             0.00006     2.61165
  100. RY ( 7) C  3             0.00002     2.60372
  101. RY ( 8) C  3             0.00000     2.11644
  102. RY ( 9) C  3             0.00000     2.46046
  103. RY ( 1) C  4             0.00273     1.42579
  104. RY ( 2) C  4             0.00120     0.96435
  105. RY ( 3) C  4             0.00055     0.98359
  106. RY ( 4) C  4             0.00033     2.06516
  107. RY ( 5) C  4             0.00021     0.87387
  108. RY ( 6) C  4             0.00003     2.59559
  109. RY ( 7) C  4             0.00001     2.60437
  110. RY ( 8) C  4             0.00001     2.16058
  111. RY ( 9) C  4             0.00000     2.50763
  112. RY ( 1) C  5             0.00256     1.36665
  113. RY ( 2) C  5             0.00187     1.58730
  114. RY ( 3) C  5             0.00069     0.89315
  115. RY ( 4) C  5             0.00058     1.67863
  116. RY ( 5) C  5             0.00033     1.55852
  117. RY ( 6) C  5             0.00019     2.07279
  118. RY ( 7) C  5             0.00005     2.66764
  119. RY ( 8) C  5             0.00002     2.47727
  120. RY ( 9) C  5             0.00000     2.50592
  121. RY ( 1) C  6             0.00251     1.39502
  122. RY ( 2) C  6             0.00174     1.45111
  123. RY ( 3) C  6             0.00105     1.01453
  124. RY ( 4) C  6             0.00048     0.96331
  125. RY ( 5) C  6             0.00038     2.22270
  126. RY ( 6) C  6             0.00010     2.07186
  127. RY ( 7) C  6             0.00007     2.57839
  128. RY ( 8) C  6             0.00003     2.47177
  129. RY ( 9) C  6             0.00000     2.47344
  130. RY ( 1) C  7             0.00306     1.37262
  131. RY ( 2) C  7             0.00160     0.93982
  132. RY ( 3) C  7             0.00046     1.25559
  133. RY ( 4) C  7             0.00031     0.83980
  134. RY ( 5) C  7             0.00031     1.76555
  135. RY ( 6) C  7             0.00004     2.61994
  136. RY ( 7) C  7             0.00001     2.59405
  137. RY ( 8) C  7             0.00001     2.13940
  138. RY ( 9) C  7             0.00000     2.46648
  139. RY ( 1) C  8             0.00157     0.94683
  140. RY ( 2) C  8             0.00104     0.91027
  141. RY ( 3) C  8             0.00065     1.51838
  142. RY ( 4) C  8             0.00030     1.22742
  143. RY ( 5) C  8             0.00027     2.27615
  144. RY ( 6) C  8             0.00001     2.34393
  145. RY ( 7) C  8             0.00001     2.43300
  146. RY ( 8) C  8             0.00000     2.14626
  147. RY ( 9) C  8             0.00000     2.48854
  148. RY ( 1) C  9             0.00181     1.51025
  149. RY ( 2) C  9             0.00103     0.94366
  150. RY ( 3) C  9             0.00085     0.89401
  151. RY ( 4) C  9             0.00017     0.87565
  152. RY ( 5) C  9             0.00010     2.16399
  153. RY ( 6) C  9             0.00003     2.60562
  154. RY ( 7) C  9             0.00001     2.41165
  155. RY ( 8) C  9             0.00000     2.49407
  156. RY ( 9) C  9             0.00000     2.18045
  157. RY ( 1) C 10             0.00196     1.41386
  158. RY ( 2) C 10             0.00130     1.00693
  159. RY ( 3) C 10             0.00065     1.12679
  160. RY ( 4) C 10             0.00029     0.82619
  161. RY ( 5) C 10             0.00004     1.91636
  162. RY ( 6) C 10             0.00002     2.54540
  163. RY ( 7) C 10             0.00001     2.50249
  164. RY ( 8) C 10             0.00000     2.17472
  165. RY ( 9) C 10             0.00000     2.56825
  166. RY ( 1) H 11             0.00093     0.59708
  167. RY ( 2) H 11             0.00012     1.90930
  168. RY ( 3) H 11             0.00003     2.31419
  169. RY ( 4) H 11             0.00002     2.50229
  170. RY ( 1) H 12             0.00085     0.60300
  171. RY ( 2) H 12             0.00010     1.91866
  172. RY ( 3) H 12             0.00002     2.54104
  173. RY ( 4) H 12             0.00002     2.29425
  174. RY ( 1) H 13             0.00098     0.59955
  175. RY ( 2) H 13             0.00011     1.92353
  176. RY ( 3) H 13             0.00003     2.32037
  177. RY ( 4) H 13             0.00002     2.52417
  178. RY ( 1) H 14             0.00088     0.60357
  179. RY ( 2) H 14             0.00006     2.01610
  180. RY ( 3) H 14             0.00005     2.13962
  181. RY ( 4) H 14             0.00001     2.54179
  182. RY ( 1) H 15             0.00088     0.60357
  183. RY ( 2) H 15             0.00006     2.01610
  184. RY ( 3) H 15             0.00005     2.13962
  185. RY ( 4) H 15             0.00001     2.54179
  186. RY ( 1) H 16             0.00061     0.62389
  187. RY ( 2) H 16             0.00008     1.93507
  188. RY ( 3) H 16             0.00002     2.47829
  189. RY ( 4) H 16             0.00002     2.30962
  190. RY ( 1) H 17             0.00063     0.60719
  191. RY ( 2) H 17             0.00012     1.92195
  192. RY ( 3) H 17             0.00003     2.33359
  193. RY ( 4) H 17             0.00002     2.47108
          -------------------------------
                 Total Lewis   47.18202  ( 98.2959%)
           Valence non-Lewis    0.75945  (  1.5822%)
           Rydberg non-Lewis    0.05854  (  0.1219%)
          -------------------------------
               Total unit  1   48.00000  (100.0000%)
              Charge unit  1    0.00000

 $CHOOSE
  ALPHA
   LONE 1 3 2 1 9 1 END
   BOND S 1 2 S 2 3 S 2 7 D 3 4 S 3 11 S 4 5 S 4 12 S 5 6 D 5 10 D 6 7 S 6 8
        S 7 13 S 8 9 S 8 14 S 8 15 S 9 10 S 9 16 S 10 17 END
  END
  BETA
   LONE 1 3 END
   BOND S 1 2 D 2 3 S 2 7 S 3 4 S 3 11 D 4 5 S 4 12 S 5 6 S 5 10 D 6 7 S 6 8
        S 7 13 S 8 9 S 8 14 S 8 15 D 9 10 S 9 16 S 10 17 END
  END
 $END

 NBO analysis completed in 1.23 CPU seconds (1 wall second)
 Maximum scratch memory used by NBO was 822445 words (6.27 MB)
 Maximum scratch memory used by G16NBO was 83875 words (0.64 MB)

 Opening RunExU unformatted file "/home/rpaton/arbr500/dzvp/fukui/Gau-1916722.EUF"
 Read unf file /home/rpaton/arbr500/dzvp/fukui/Gau-1916722.EUF:
 Label Gaussian matrix elements                                         IVers= 2 NLab= 2 Version=ES64L-G16RevC.01
 Title arbr37_wb97xd_redcreated by GaussianPrep                        
 NAtoms=    17 NBasis=   193 NBsUse=   193 ICharg=    -1 Multip=     2 NE=    97 Len12L=8 Len4L=8 IOpCl= 1 ICGU=112
 GAUSSIAN SCALARS                    NI= 1 NR= 1 NTot=       1 LenBuf=    2 NRI=1 N=    1000
 NPA CHARGES                         NI= 0 NR= 1 NTot=      17 LenBuf= 2048 NRI=1 N=      17
 Recovered energy= -2920.66976563     dipole=      1.606209016466     -0.218806280333      0.000003703688
 Unable to Open any file for archive entry.
 1\1\GINC-DYNAMO\SP\UwB97XD\def2SVP\C9H7Br1(1-,2)\RPATON\28-Sep-2024\0\
 \# pop=(nbo6,hirshfeld) wb97xd/def2svp\\arbr37_wb97xd_redcreated by Ga
 ussianPrep\\-1,2\Br,0,-2.657969,-0.219239,0.\C,0,-0.800785,0.158792,0.
 000001\C,0,-0.375752,1.489412,0.\C,0,0.987563,1.784087,0.\C,0,1.907351
 ,0.736706,0.\C,0,1.46336,-0.59884,0.000001\C,0,0.10876,-0.901878,0.000
 001\C,0,2.661849,-1.510705,-0.000003\C,0,3.815073,-0.542328,0.000004\C
 ,0,3.375071,0.728796,-0.000002\H,0,-1.113771,2.292891,-0.000001\H,0,1.
 320172,2.824375,-0.000001\H,0,-0.24558,-1.934291,0.\H,0,2.678408,-2.17
 126,-0.884188\H,0,2.678408,-2.171269,0.884176\H,0,4.859451,-0.85604,0.
 000007\H,0,3.996898,1.624698,-0.000003\\Version=ES64L-G16RevC.01\State
 =2-A\HF=-2920.6697656\S2=0.774211\S2-1=0.\S2A=0.750253\RMSD=7.068e-09\
 Dipole=-1.606209,-0.2188064,-0.0000037\Quadrupole=-14.4564599,8.247595
 5,6.2088644,0.0820575,-0.0000126,0.\PG=C01 [X(C9H7Br1)]\\@
 The archive entry for this job was punched.


 TRUTH, IN SCIENCE, CAN BE DEFINED AS THE WORKING HYPOTHESIS 
 BEST FITTED TO OPEN THE WAY TO THE NEXT BETTER ONE.

                              -- KONRAD LORENZ
 Job cpu time:       0 days  0 hours 13 minutes 57.2 seconds.
 Elapsed time:       0 days  0 hours  0 minutes 35.2 seconds.
 File lengths (MBytes):  RWF=     41 Int=      0 D2E=      0 Chk=      4 Scr=      1
 Normal termination of Gaussian 16 at Sat Sep 28 11:39:24 2024.
