 Entering Gaussian System, Link 0=/usr/local/Gaussian/G16C/g16/g16
 Input=arbr34_wb97xd_oxd.com
 Output=arbr34_wb97xd_oxd.log
 Initial command:
 /usr/local/Gaussian/G16C/g16/l1.exe "/home/rpaton/opt/dzvp/fukui/Gau-1729371.inp" -scrdir="/home/rpaton/opt/dzvp/fukui/"
 Entering Link 1 = /usr/local/Gaussian/G16C/g16/l1.exe PID=   1729372.
  
 Copyright (c) 1988-2019, Gaussian, Inc.  All Rights Reserved.
  
 This is part of the Gaussian(R) 16 program.  It is based on
 the Gaussian(R) 09 system (copyright 2009, Gaussian, Inc.),
 the Gaussian(R) 03 system (copyright 2003, Gaussian, Inc.),
 the Gaussian(R) 98 system (copyright 1998, Gaussian, Inc.),
 the Gaussian(R) 94 system (copyright 1995, Gaussian, Inc.),
 the Gaussian 92(TM) system (copyright 1992, Gaussian, Inc.),
 the Gaussian 90(TM) system (copyright 1990, Gaussian, Inc.),
 the Gaussian 88(TM) system (copyright 1988, Gaussian, Inc.),
 the Gaussian 86(TM) system (copyright 1986, Carnegie Mellon
 University), and the Gaussian 82(TM) system (copyright 1983,
 Carnegie Mellon University). Gaussian is a federally registered
 trademark of Gaussian, Inc.
  
 This software contains proprietary and confidential information,
 including trade secrets, belonging to Gaussian, Inc.
  
 This software is provided under written license and may be
 used, copied, transmitted, or stored only in accord with that
 written license.
  
 The following legend is applicable only to US Government
 contracts under FAR:
  
                    RESTRICTED RIGHTS LEGEND
  
 Use, reproduction and disclosure by the US Government is
 subject to restrictions as set forth in subparagraphs (a)
 and (c) of the Commercial Computer Software - Restricted
 Rights clause in FAR 52.227-19.
  
 Gaussian, Inc.
 340 Quinnipiac St., Bldg. 40, Wallingford CT 06492
  
  
 ---------------------------------------------------------------
 Warning -- This program may not be used in any manner that
 competes with the business of Gaussian, Inc. or will provide
 assistance to any competitor of Gaussian, Inc.  The licensee
 of this program is prohibited from giving any competitor of
 Gaussian, Inc. access to this program.  By using this program,
 the user acknowledges that Gaussian, Inc. is engaged in the
 business of creating and licensing software in the field of
 computational chemistry and represents and warrants to the
 licensee that it is not a competitor of Gaussian, Inc. and that
 it will not use this program in any manner prohibited above.
 ---------------------------------------------------------------
  

 Cite this work as:
 Gaussian 16, Revision C.01,
 M. J. Frisch, G. W. Trucks, H. B. Schlegel, G. E. Scuseria, 
 M. A. Robb, J. R. Cheeseman, G. Scalmani, V. Barone, 
 G. A. Petersson, H. Nakatsuji, X. Li, M. Caricato, A. V. Marenich, 
 J. Bloino, B. G. Janesko, R. Gomperts, B. Mennucci, H. P. Hratchian, 
 J. V. Ortiz, A. F. Izmaylov, J. L. Sonnenberg, D. Williams-Young, 
 F. Ding, F. Lipparini, F. Egidi, J. Goings, B. Peng, A. Petrone, 
 T. Henderson, D. Ranasinghe, V. G. Zakrzewski, J. Gao, N. Rega, 
 G. Zheng, W. Liang, M. Hada, M. Ehara, K. Toyota, R. Fukuda, 
 J. Hasegawa, M. Ishida, T. Nakajima, Y. Honda, O. Kitao, H. Nakai, 
 T. Vreven, K. Throssell, J. A. Montgomery, Jr., J. E. Peralta, 
 F. Ogliaro, M. J. Bearpark, J. J. Heyd, E. N. Brothers, K. N. Kudin, 
 V. N. Staroverov, T. A. Keith, R. Kobayashi, J. Normand, 
 K. Raghavachari, A. P. Rendell, J. C. Burant, S. S. Iyengar, 
 J. Tomasi, M. Cossi, J. M. Millam, M. Klene, C. Adamo, R. Cammi, 
 J. W. Ochterski, R. L. Martin, K. Morokuma, O. Farkas, 
 J. B. Foresman, and D. J. Fox, Gaussian, Inc., Wallingford CT, 2019.
 
 ******************************************
 Gaussian 16:  ES64L-G16RevC.01  3-Jul-2019
                27-Sep-2024 
 ******************************************
 %chk=arbr34_wb97xd_popn.chk
 %mem=48GB
 %nprocshared=24
 Will use up to   24 processors via shared memory.
 -------------------------------------
 # pop=(nbo6,hirshfeld) wb97xd/def2svp
 -------------------------------------
 1/38=1,172=1/1;
 2/12=2,17=6,18=5,40=1/2;
 3/5=43,7=101,11=2,25=1,30=1,74=-58/1,2,3;
 4//1;
 5/5=2,38=5/2;
 6/7=2,8=2,9=2,10=2,28=1,40=1,79=1,113=1,114=1,124=3103,126=1/1,12;
 99/5=1,9=1/99;
 -----------------------------------------
 arbr34_wb97xd_popncreated by GaussianPrep
 -----------------------------------------
 Symbolic Z-matrix:
 Charge =  1 Multiplicity = 2
 Br                    3.83229  -0.11274  0. 
 C                     1.95558   0.14338   0. 
 C                     1.44448   1.44348   0. 
 C                     0.06516   1.64522   0. 
 C                    -0.78433   0.54079   0. 
 C                    -0.25656  -0.76217   0. 
 C                     1.11655  -0.97299   0. 
 C                    -1.37428  -1.77708  0. 
 C                    -2.61136  -0.91072   0. 
 C                    -3.95059  -1.28339   0. 
 C                    -4.92987  -0.28716  0. 
 C                    -4.57173   1.06394   0. 
 C                    -3.22954   1.44286  0. 
 C                    -2.25217   0.44881  0. 
 H                     2.12692   2.29455  0. 
 H                    -0.33443   2.6616   0. 
 H                     1.53716  -1.98021   0. 
 H                    -1.33094  -2.43241  -0.88576 
 H                    -1.33094  -2.43241   0.88575 
 H                    -4.23678  -2.33801   0. 
 H                    -5.98576  -0.5663   0. 
 H                    -5.35057   1.82957   0. 
 H                    -2.95303   2.49965  0. 
 
                          Input orientation:                          
 ---------------------------------------------------------------------
 Center     Atomic      Atomic             Coordinates (Angstroms)
 Number     Number       Type             X           Y           Z
 ---------------------------------------------------------------------
      1         35           0        3.832292   -0.112738   -0.000001
      2          6           0        1.955577    0.143382    0.000003
      3          6           0        1.444482    1.443484    0.000001
      4          6           0        0.065161    1.645215    0.000001
      5          6           0       -0.784325    0.540792    0.000001
      6          6           0       -0.256555   -0.762172    0.000001
      7          6           0        1.116555   -0.972986    0.000003
      8          6           0       -1.374280   -1.777081   -0.000002
      9          6           0       -2.611360   -0.910720    0.000001
     10          6           0       -3.950585   -1.283392    0.000002
     11          6           0       -4.929868   -0.287160   -0.000001
     12          6           0       -4.571730    1.063936    0.000001
     13          6           0       -3.229545    1.442857   -0.000003
     14          6           0       -2.252172    0.448808   -0.000002
     15          1           0        2.126916    2.294546   -0.000001
     16          1           0       -0.334429    2.661602   -0.000001
     17          1           0        1.537161   -1.980207    0.000002
     18          1           0       -1.330937   -2.432411   -0.885757
     19          1           0       -1.330939   -2.432413    0.885750
     20          1           0       -4.236777   -2.338007    0.000001
     21          1           0       -5.985756   -0.566295   -0.000001
     22          1           0       -5.350569    1.829566    0.000001
     23          1           0       -2.953031    2.499653   -0.000001
 ---------------------------------------------------------------------
                    Distance matrix (angstroms):
                    1          2          3          4          5
     1  Br   0.000000
     2  C    1.894111   0.000000
     3  C    2.850169   1.396955   0.000000
     4  C    4.157123   2.414368   1.393995   0.000000
     5  C    4.662645   2.768573   2.404669   1.393333   0.000000
     6  C    4.140101   2.390305   2.785399   2.428788   1.405794
     7  C    2.848729   1.396508   2.438619   2.821419   2.429994
     8  C    5.466117   3.843973   4.279890   3.712694   2.391774
     9  C    6.492875   4.687008   4.689577   3.700888   2.333440
    10  C    7.870426   6.076054   6.045048   4.970207   3.654155
    11  C    8.763896   6.898893   6.605109   5.355781   4.227414
    12  C    8.485997   6.591901   6.028172   4.673183   3.823365
    13  C    7.231142   5.345477   4.674027   3.300914   2.606304
    14  C    6.110322   4.218819   3.828137   2.607954   1.470726
    15  H    2.950140   2.157977   1.090882   2.161588   3.398673
    16  H    5.005849   3.403757   2.156000   1.092115   2.168004
    17  H    2.958896   2.164417   3.424945   3.912859   3.427059
    18  H    5.729257   4.268542   4.848719   4.400078   3.150125
    19  H    5.729258   4.268542   4.848721   4.400079   3.150125
    20  H    8.370287   6.671022   6.824689   5.862826   4.495210
    21  H    9.828519   7.972980   7.697249   6.442389   5.317944
    22  H    9.386026   7.498199   6.806010   5.418867   4.744631
    23  H    7.270846   5.444855   4.522567   3.136805   2.922400
                    6          7          8          9         10
     6  C    0.000000
     7  C    1.389199   0.000000
     8  C    1.509751   2.617409   0.000000
     9  C    2.359486   3.728435   1.510281   0.000000
    10  C    3.730620   5.076639   2.623181   1.390111   0.000000
    11  C    4.697392   6.085194   3.855136   2.400897   1.396951
    12  C    4.685660   6.041990   4.277273   2.782502   2.428121
    13  C    3.701462   4.972412   3.716182   2.433409   2.819988
    14  C    2.334301   3.656476   2.392755   1.406177   2.425927
    15  H    3.876140   3.420175   5.369965   5.720576   7.052493
    16  H    3.424660   3.913513   4.558859   4.236260   5.351594
    17  H    2.168185   1.091514   2.918518   4.284160   5.531809
    18  H    2.174526   2.984076   1.102678   2.177061   2.994557
    19  H    2.174525   2.984075   1.102676   2.177057   2.994552
    20  H    4.280820   5.524622   2.916938   2.163129   1.092757
    21  H    5.732548   7.113945   4.767779   3.391928   2.157811
    22  H    5.715425   7.048262   5.368312   3.874588   3.413277
    23  H    4.232078   5.349837   4.558828   3.427446   3.912358
                   11         12         13         14         15
    11  C    0.000000
    12  C    1.397756   0.000000
    13  C    2.425708   1.394648   0.000000
    14  C    2.776996   2.399736   1.394056   0.000000
    15  H    7.514214   6.810746   5.423749   4.752174   0.000000
    16  H    5.460152   4.528494   3.141184   2.928173   2.488564
    17  H    6.684974   6.825347   5.868463   4.501017   4.315243
    18  H    4.282402   4.848892   4.405335   3.151929   5.923296
    19  H    4.282401   4.848890   4.405335   3.151930   5.923298
    20  H    2.164798   3.418393   3.912729   3.421256   7.871286
    21  H    1.092161   2.158037   3.410776   3.869119   8.602317
    22  H    2.158128   1.092144   2.155989   3.392132   7.491928
    23  H    3.416754   2.163670   1.092373   2.167295   5.084086
                   16         17         18         19         20
    16  H    0.000000
    17  H    5.004922   0.000000
    18  H    5.265602   3.035629   0.000000
    19  H    5.265603   3.035628   1.771507   0.000000
    20  H    6.342272   5.785013   3.039307   3.039302   0.000000
    21  H    6.508211   7.654634   5.092572   5.092570   2.489556
    22  H    5.084677   7.871162   5.925070   5.925069   4.313838
    23  H    2.623605   6.342789   5.266973   5.266974   5.005093
                   21         22         23
    21  H    0.000000
    22  H    2.478631   0.000000
    23  H    4.312477   2.489419   0.000000
 Stoichiometry    C13H9Br(1+,2)
 Framework group  C1[X(C13H9Br)]
 Deg. of freedom    63
 Full point group                 C1      NOp   1
 Largest Abelian subgroup         C1      NOp   1
 Largest concise Abelian subgroup C1      NOp   1
                         Standard orientation:                         
 ---------------------------------------------------------------------
 Center     Atomic      Atomic             Coordinates (Angstroms)
 Number     Number       Type             X           Y           Z
 ---------------------------------------------------------------------
      1         35           0       -3.832292   -0.112738    0.000001
      2          6           0       -1.955577    0.143382   -0.000003
      3          6           0       -1.444482    1.443484   -0.000001
      4          6           0       -0.065161    1.645215   -0.000001
      5          6           0        0.784325    0.540792   -0.000001
      6          6           0        0.256555   -0.762172   -0.000001
      7          6           0       -1.116555   -0.972986   -0.000003
      8          6           0        1.374280   -1.777081    0.000002
      9          6           0        2.611360   -0.910720   -0.000001
     10          6           0        3.950585   -1.283392   -0.000002
     11          6           0        4.929868   -0.287160    0.000001
     12          6           0        4.571730    1.063936   -0.000001
     13          6           0        3.229545    1.442857    0.000003
     14          6           0        2.252172    0.448808    0.000002
     15          1           0       -2.126916    2.294546    0.000001
     16          1           0        0.334429    2.661602    0.000001
     17          1           0       -1.537161   -1.980207   -0.000002
     18          1           0        1.330937   -2.432411    0.885757
     19          1           0        1.330939   -2.432413   -0.885750
     20          1           0        4.236777   -2.338007   -0.000001
     21          1           0        5.985756   -0.566295    0.000001
     22          1           0        5.350569    1.829566   -0.000001
     23          1           0        2.953031    2.499653    0.000001
 ---------------------------------------------------------------------
 Rotational constants (GHZ):           2.1455877           0.2135613           0.1944651
 Standard basis: def2SVP (5D, 7F)
 There are   275 symmetry adapted cartesian basis functions of A   symmetry.
 There are   259 symmetry adapted basis functions of A   symmetry.
   259 basis functions,   468 primitive gaussians,   275 cartesian basis functions
    61 alpha electrons       60 beta electrons
       nuclear repulsion energy      1038.6404984401 Hartrees.
 NAtoms=   23 NActive=   23 NUniq=   23 SFac= 1.00D+00 NAtFMM=   60 NAOKFM=F Big=F
 Integral buffers will be    131072 words long.
 Raffenetti 2 integral format.
 Two-electron integral symmetry is turned on.
 Nuclear repulsion after empirical dispersion term =     1038.6259167825 Hartrees.
 One-electron integrals computed using PRISM.
   1 Symmetry operations used in ECPInt.
 ECPInt:  NShTT=    6903 NPrTT=   27032 LenC2=    6463 LenP2D=   18469.
 LDataN:  DoStor=T MaxTD1= 4 Len=   56
 NBasis=   259 RedAO= T EigKep=  2.46D-04  NBF=   259
 NBsUse=   259 1.00D-06 EigRej= -1.00D+00 NBFU=   259
 ExpMin= 1.22D-01 ExpMax= 1.13D+05 ExpMxC= 1.70D+04 IAcc=3 IRadAn=         5 AccDes= 0.00D+00
 Harris functional with IExCor= 4639 and IRadAn=       5 diagonalized for initial guess.
 HarFok:  IExCor= 4639 AccDes= 0.00D+00 IRadAn=         5 IDoV= 1 UseB2=F ITyADJ=14
 ICtDFT=  3500011 ScaDFX=  1.000000  1.000000  1.000000  1.000000
 FoFCou: FMM=F IPFlag=           0 FMFlag=      100000 FMFlg1=           0
         NFxFlg=           0 DoJE=T BraDBF=F KetDBF=T FulRan=T
         wScrn=  0.000000 ICntrl=       500 IOpCl=  0 I1Cent=   200000004 NGrid=           0
         NMat0=    1 NMatS0=      1 NMatT0=    0 NMatD0=    1 NMtDS0=    0 NMtDT0=    0
 Petite list used in FoFCou.
 Initial guess <Sx>= 0.0000 <Sy>= 0.0000 <Sz>= 0.5000 <S**2>= 0.7500 S= 0.5000
 Requested convergence on RMS density matrix=1.00D-08 within 128 cycles.
 Requested convergence on MAX density matrix=1.00D-06.
 Requested convergence on             energy=1.00D-06.
 No special actions if energy rises.
 Integral accuracy reduced to 1.0D-05 until final iterations.
 Initial convergence to 1.0D-05 achieved.  Increase integral accuracy.
 SCF Done:  E(UwB97XD) =  -3073.90743394     A.U. after   25 cycles
            NFock= 25  Conv=0.87D-08     -V/T= 2.0027
 <Sx>= 0.0000 <Sy>= 0.0000 <Sz>= 0.5000 <S**2>= 0.7815 S= 0.5156
 <L.S>= 0.000000000000E+00
 Annihilation of the first spin contaminant:
 S**2 before annihilation     0.7815,   after     0.7507

 **********************************************************************

            Population analysis using the SCF Density.

 **********************************************************************

 Orbital symmetries:
 Alpha Orbitals:
       Occupied  (A) (A) (A) (A) (A) (A) (A) (A) (A) (A) (A) (A)
                 (A) (A) (A) (A) (A) (A) (A) (A) (A) (A) (A) (A)
                 (A) (A) (A) (A) (A) (A) (A) (A) (A) (A) (A) (A)
                 (A) (A) (A) (A) (A) (A) (A) (A) (A) (A) (A) (A)
                 (A) (A) (A) (A) (A) (A) (A) (A) (A) (A) (A) (A)
                 (A)
       Virtual   (A) (A) (A) (A) (A) (A) (A) (A) (A) (A) (A) (A)
                 (A) (A) (A) (A) (A) (A) (A) (A) (A) (A) (A) (A)
                 (A) (A) (A) (A) (A) (A) (A) (A) (A) (A) (A) (A)
                 (A) (A) (A) (A) (A) (A) (A) (A) (A) (A) (A) (A)
                 (A) (A) (A) (A) (A) (A) (A) (A) (A) (A) (A) (A)
                 (A) (A) (A) (A) (A) (A) (A) (A) (A) (A) (A) (A)
                 (A) (A) (A) (A) (A) (A) (A) (A) (A) (A) (A) (A)
                 (A) (A) (A) (A) (A) (A) (A) (A) (A) (A) (A) (A)
                 (A) (A) (A) (A) (A) (A) (A) (A) (A) (A) (A) (A)
                 (A) (A) (A) (A) (A) (A) (A) (A) (A) (A) (A) (A)
                 (A) (A) (A) (A) (A) (A) (A) (A) (A) (A) (A) (A)
                 (A) (A) (A) (A) (A) (A) (A) (A) (A) (A) (A) (A)
                 (A) (A) (A) (A) (A) (A) (A) (A) (A) (A) (A) (A)
                 (A) (A) (A) (A) (A) (A) (A) (A) (A) (A) (A) (A)
                 (A) (A) (A) (A) (A) (A) (A) (A) (A) (A) (A) (A)
                 (A) (A) (A) (A) (A) (A) (A) (A) (A) (A) (A) (A)
                 (A) (A) (A) (A) (A) (A)
 Beta  Orbitals:
       Occupied  (A) (A) (A) (A) (A) (A) (A) (A) (A) (A) (A) (A)
                 (A) (A) (A) (A) (A) (A) (A) (A) (A) (A) (A) (A)
                 (A) (A) (A) (A) (A) (A) (A) (A) (A) (A) (A) (A)
                 (A) (A) (A) (A) (A) (A) (A) (A) (A) (A) (A) (A)
                 (A) (A) (A) (A) (A) (A) (A) (A) (A) (A) (A) (A)
       Virtual   (A) (A) (A) (A) (A) (A) (A) (A) (A) (A) (A) (A)
                 (A) (A) (A) (A) (A) (A) (A) (A) (A) (A) (A) (A)
                 (A) (A) (A) (A) (A) (A) (A) (A) (A) (A) (A) (A)
                 (A) (A) (A) (A) (A) (A) (A) (A) (A) (A) (A) (A)
                 (A) (A) (A) (A) (A) (A) (A) (A) (A) (A) (A) (A)
                 (A) (A) (A) (A) (A) (A) (A) (A) (A) (A) (A) (A)
                 (A) (A) (A) (A) (A) (A) (A) (A) (A) (A) (A) (A)
                 (A) (A) (A) (A) (A) (A) (A) (A) (A) (A) (A) (A)
                 (A) (A) (A) (A) (A) (A) (A) (A) (A) (A) (A) (A)
                 (A) (A) (A) (A) (A) (A) (A) (A) (A) (A) (A) (A)
                 (A) (A) (A) (A) (A) (A) (A) (A) (A) (A) (A) (A)
                 (A) (A) (A) (A) (A) (A) (A) (A) (A) (A) (A) (A)
                 (A) (A) (A) (A) (A) (A) (A) (A) (A) (A) (A) (A)
                 (A) (A) (A) (A) (A) (A) (A) (A) (A) (A) (A) (A)
                 (A) (A) (A) (A) (A) (A) (A) (A) (A) (A) (A) (A)
                 (A) (A) (A) (A) (A) (A) (A) (A) (A) (A) (A) (A)
                 (A) (A) (A) (A) (A) (A) (A)
 The electronic state is 2-A.
 Alpha  occ. eigenvalues -- -483.21610 -62.79786 -56.60563 -56.60256 -56.60149
 Alpha  occ. eigenvalues --  -10.53953 -10.50285 -10.49563 -10.49234 -10.48726
 Alpha  occ. eigenvalues --  -10.48637 -10.48256 -10.47994 -10.47983 -10.47572
 Alpha  occ. eigenvalues --  -10.47045 -10.46425 -10.46350  -8.96729  -6.79288
 Alpha  occ. eigenvalues --   -6.78094  -6.77796  -2.89674  -2.89374  -2.89157
 Alpha  occ. eigenvalues --   -2.88185  -2.88174  -1.17329  -1.13140  -1.08674
 Alpha  occ. eigenvalues --   -1.05171  -1.02436  -1.00958  -0.97237  -0.95050
 Alpha  occ. eigenvalues --   -0.89665  -0.85109  -0.84260  -0.83424  -0.77561
 Alpha  occ. eigenvalues --   -0.74840  -0.73716  -0.70889  -0.70445  -0.69646
 Alpha  occ. eigenvalues --   -0.68953  -0.67246  -0.66399  -0.65229  -0.64441
 Alpha  occ. eigenvalues --   -0.62499  -0.60799  -0.60567  -0.59086  -0.58293
 Alpha  occ. eigenvalues --   -0.57455  -0.51743  -0.51697  -0.50731  -0.48912
 Alpha  occ. eigenvalues --   -0.46840
 Alpha virt. eigenvalues --   -0.15331  -0.12146  -0.09893  -0.07374  -0.07067
 Alpha virt. eigenvalues --    0.01370   0.02304   0.02703   0.03099   0.05922
 Alpha virt. eigenvalues --    0.06356   0.07525   0.09090   0.09351   0.10844
 Alpha virt. eigenvalues --    0.11740   0.12802   0.14690   0.15047   0.16802
 Alpha virt. eigenvalues --    0.17087   0.19477   0.21186   0.22082   0.24386
 Alpha virt. eigenvalues --    0.25127   0.26310   0.26794   0.27823   0.29671
 Alpha virt. eigenvalues --    0.30523   0.30817   0.32928   0.35539   0.35860
 Alpha virt. eigenvalues --    0.37217   0.37427   0.39179   0.39398   0.40129
 Alpha virt. eigenvalues --    0.40468   0.41902   0.41929   0.42455   0.42724
 Alpha virt. eigenvalues --    0.44360   0.44558   0.45466   0.46267   0.46852
 Alpha virt. eigenvalues --    0.48113   0.48428   0.50925   0.52820   0.54686
 Alpha virt. eigenvalues --    0.55116   0.56075   0.56780   0.58271   0.58384
 Alpha virt. eigenvalues --    0.58517   0.58986   0.59873   0.60236   0.61549
 Alpha virt. eigenvalues --    0.61672   0.62753   0.63108   0.64013   0.64304
 Alpha virt. eigenvalues --    0.65014   0.65387   0.65818   0.66373   0.67417
 Alpha virt. eigenvalues --    0.69304   0.70143   0.71006   0.71897   0.73810
 Alpha virt. eigenvalues --    0.74944   0.76229   0.83423   0.84292   0.86388
 Alpha virt. eigenvalues --    0.87945   0.92028   0.93548   0.96358   1.00799
 Alpha virt. eigenvalues --    1.04353   1.08140   1.09675   1.10914   1.12008
 Alpha virt. eigenvalues --    1.12364   1.13404   1.14284   1.16249   1.16331
 Alpha virt. eigenvalues --    1.18059   1.19720   1.19996   1.21838   1.22035
 Alpha virt. eigenvalues --    1.23417   1.30879   1.32201   1.38816   1.40727
 Alpha virt. eigenvalues --    1.43577   1.45740   1.46550   1.54170   1.59114
 Alpha virt. eigenvalues --    1.60640   1.61509   1.62047   1.62942   1.63522
 Alpha virt. eigenvalues --    1.64698   1.65052   1.66194   1.67903   1.69522
 Alpha virt. eigenvalues --    1.70147   1.70738   1.71192   1.73483   1.74808
 Alpha virt. eigenvalues --    1.75097   1.77651   1.78158   1.79395   1.81804
 Alpha virt. eigenvalues --    1.84422   1.86001   1.87076   1.88694   1.90201
 Alpha virt. eigenvalues --    1.91845   1.92267   1.93444   1.95998   2.00538
 Alpha virt. eigenvalues --    2.01521   2.04413   2.05290   2.07171   2.07478
 Alpha virt. eigenvalues --    2.07963   2.09676   2.12398   2.13649   2.18488
 Alpha virt. eigenvalues --    2.19608   2.19825   2.21627   2.23446   2.25241
 Alpha virt. eigenvalues --    2.26518   2.27777   2.28288   2.31573   2.36892
 Alpha virt. eigenvalues --    2.37402   2.40563   2.49226   2.50103   2.50991
 Alpha virt. eigenvalues --    2.51322   2.55272   2.55527   2.57354   2.60621
 Alpha virt. eigenvalues --    2.61219   2.63891   2.67019   2.70531   2.76884
 Alpha virt. eigenvalues --    2.78742   2.80396   2.82025   2.85667   2.89997
 Alpha virt. eigenvalues --    2.90824   2.95463   2.98375   3.06012   3.09861
 Alpha virt. eigenvalues --    3.23811   3.37252   3.40325   3.41375   3.44968
 Alpha virt. eigenvalues --    3.56718   3.58010   3.77526
  Beta  occ. eigenvalues -- -483.21579 -62.79765 -56.60554 -56.60179 -56.60134
  Beta  occ. eigenvalues --  -10.53634 -10.50113 -10.49410 -10.49129 -10.48639
  Beta  occ. eigenvalues --  -10.48448 -10.48277 -10.48073 -10.47711 -10.47455
  Beta  occ. eigenvalues --  -10.47068 -10.46485 -10.46464  -8.96691  -6.79281
  Beta  occ. eigenvalues --   -6.77976  -6.77779  -2.89651  -2.89320  -2.89152
  Beta  occ. eigenvalues --   -2.88128  -2.88121  -1.16736  -1.12573  -1.08104
  Beta  occ. eigenvalues --   -1.04794  -1.01998  -1.00794  -0.96248  -0.94991
  Beta  occ. eigenvalues --   -0.89247  -0.84702  -0.83893  -0.83103  -0.77463
  Beta  occ. eigenvalues --   -0.74631  -0.73430  -0.70241  -0.69990  -0.69402
  Beta  occ. eigenvalues --   -0.68789  -0.67014  -0.66299  -0.65053  -0.62992
  Beta  occ. eigenvalues --   -0.61117  -0.60642  -0.60345  -0.58914  -0.58113
  Beta  occ. eigenvalues --   -0.54760  -0.51572  -0.50416  -0.48766  -0.48123
  Beta virt. eigenvalues --   -0.29054  -0.13045  -0.11208  -0.08567  -0.06559
  Beta virt. eigenvalues --   -0.05495   0.01451   0.02353   0.03179   0.03469
  Beta virt. eigenvalues --    0.06038   0.06347   0.07559   0.09219   0.10484
  Beta virt. eigenvalues --    0.11238   0.11909   0.12968   0.15031   0.15214
  Beta virt. eigenvalues --    0.17006   0.17329   0.19770   0.21289   0.22220
  Beta virt. eigenvalues --    0.24467   0.25299   0.26594   0.26994   0.27967
  Beta virt. eigenvalues --    0.29860   0.30613   0.30964   0.33011   0.35683
  Beta virt. eigenvalues --    0.36140   0.37583   0.37806   0.39781   0.39844
  Beta virt. eigenvalues --    0.40469   0.40624   0.42080   0.42486   0.42628
  Beta virt. eigenvalues --    0.43133   0.44685   0.44772   0.45707   0.46692
  Beta virt. eigenvalues --    0.47271   0.48265   0.48516   0.51566   0.52894
  Beta virt. eigenvalues --    0.55091   0.55278   0.56255   0.57000   0.58413
  Beta virt. eigenvalues --    0.58743   0.58864   0.59051   0.60036   0.60604
  Beta virt. eigenvalues --    0.61611   0.61729   0.63056   0.63243   0.64101
  Beta virt. eigenvalues --    0.64526   0.65079   0.65686   0.66021   0.66849
  Beta virt. eigenvalues --    0.67680   0.69500   0.70322   0.71559   0.72019
  Beta virt. eigenvalues --    0.73967   0.75114   0.76360   0.83610   0.84485
  Beta virt. eigenvalues --    0.86495   0.88018   0.92289   0.93715   0.96486
  Beta virt. eigenvalues --    1.01047   1.04453   1.08303   1.09875   1.11378
  Beta virt. eigenvalues --    1.12333   1.12532   1.13863   1.14597   1.16387
  Beta virt. eigenvalues --    1.16934   1.18492   1.20050   1.20097   1.22041
  Beta virt. eigenvalues --    1.22436   1.23868   1.31084   1.32317   1.39365
  Beta virt. eigenvalues --    1.40804   1.43622   1.46092   1.47000   1.54423
  Beta virt. eigenvalues --    1.59482   1.60815   1.61842   1.62371   1.63192
  Beta virt. eigenvalues --    1.63611   1.65084   1.65241   1.66313   1.68106
  Beta virt. eigenvalues --    1.69967   1.70502   1.71223   1.71642   1.73750
  Beta virt. eigenvalues --    1.75022   1.75492   1.77860   1.78514   1.79615
  Beta virt. eigenvalues --    1.81973   1.84480   1.86243   1.87371   1.89064
  Beta virt. eigenvalues --    1.90330   1.92046   1.92357   1.93837   1.96248
  Beta virt. eigenvalues --    2.01036   2.01986   2.04777   2.05747   2.07551
  Beta virt. eigenvalues --    2.07892   2.08470   2.10010   2.12472   2.14451
  Beta virt. eigenvalues --    2.18886   2.19762   2.20016   2.22094   2.24081
  Beta virt. eigenvalues --    2.25394   2.26852   2.28316   2.28470   2.31725
  Beta virt. eigenvalues --    2.37218   2.37844   2.40968   2.49565   2.50412
  Beta virt. eigenvalues --    2.51521   2.51891   2.55643   2.55824   2.57593
  Beta virt. eigenvalues --    2.61277   2.61450   2.64106   2.67106   2.70641
  Beta virt. eigenvalues --    2.77080   2.78993   2.80665   2.82140   2.85857
  Beta virt. eigenvalues --    2.90046   2.90966   2.95636   2.98493   3.06091
  Beta virt. eigenvalues --    3.10010   3.24049   3.37363   3.40457   3.41488
  Beta virt. eigenvalues --    3.45069   3.56852   3.58045   3.77570
          Condensed to atoms (all electrons):
               1          2          3          4          5          6
     1  Br  34.697084   0.282473  -0.061960   0.002599   0.000575   0.002938
     2  C    0.282473   5.302656   0.255470   0.069092  -0.145636   0.092719
     3  C   -0.061960   0.255470   4.958847   0.402930   0.079435  -0.110368
     4  C    0.002599   0.069092   0.402930   4.985574   0.294531  -0.021643
     5  C    0.000575  -0.145636   0.079435   0.294531   5.344928   0.283841
     6  C    0.002938   0.092719  -0.110368  -0.021643   0.283841   5.261527
     7  C   -0.064693   0.278072   0.032794  -0.076557   0.025961   0.400101
     8  C   -0.000072   0.012238  -0.001593   0.016938  -0.102422   0.322183
     9  C   -0.000000  -0.001803   0.000384   0.010458  -0.033400  -0.068854
    10  C   -0.000000   0.000004   0.000003  -0.000285   0.016052   0.010218
    11  C    0.000000  -0.000000   0.000001   0.000062   0.001054  -0.001379
    12  C    0.000000   0.000001  -0.000011  -0.000134   0.012658  -0.000073
    13  C   -0.000000   0.000056  -0.000111  -0.004037  -0.082290   0.010920
    14  C    0.000021   0.002417   0.010428  -0.078767   0.265646  -0.031674
    15  H   -0.000489  -0.055812   0.437163  -0.038490   0.011429  -0.001187
    16  H   -0.000104   0.012174  -0.053394   0.448316  -0.050358   0.013204
    17  H   -0.000137  -0.054999   0.010434  -0.001468   0.012846  -0.038117
    18  H   -0.000000  -0.000174   0.000061  -0.000352   0.001973   0.000888
    19  H   -0.000000  -0.000174   0.000061  -0.000352   0.001973   0.000888
    20  H    0.000000   0.000000  -0.000000   0.000000  -0.000608   0.000705
    21  H   -0.000000   0.000000   0.000000  -0.000001   0.000019   0.000011
    22  H    0.000000   0.000000  -0.000000   0.000001  -0.000275   0.000005
    23  H   -0.000000  -0.000010   0.000177   0.003665  -0.020318  -0.000347
               7          8          9         10         11         12
     1  Br  -0.064693  -0.000072  -0.000000  -0.000000   0.000000   0.000000
     2  C    0.278072   0.012238  -0.001803   0.000004  -0.000000   0.000001
     3  C    0.032794  -0.001593   0.000384   0.000003   0.000001  -0.000011
     4  C   -0.076557   0.016938   0.010458  -0.000285   0.000062  -0.000134
     5  C    0.025961  -0.102422  -0.033400   0.016052   0.001054   0.012658
     6  C    0.400101   0.322183  -0.068854   0.010218  -0.001379  -0.000073
     7  C    4.987635  -0.075702   0.012709  -0.000263   0.000004  -0.000000
     8  C   -0.075702   4.760494   0.313057  -0.067910   0.010042  -0.000262
     9  C    0.012709   0.313057   5.312072   0.363508   0.072330  -0.123415
    10  C   -0.000263  -0.067910   0.363508   4.998005   0.323738   0.055254
    11  C    0.000004   0.010042   0.072330   0.323738   4.971531   0.297840
    12  C   -0.000000  -0.000262  -0.123415   0.055254   0.297840   4.968532
    13  C   -0.000321   0.015689  -0.016330  -0.094070   0.050803   0.376085
    14  C    0.012370  -0.098525   0.300250   0.020364  -0.116144   0.066074
    15  H    0.010188   0.000012   0.000007  -0.000000   0.000000  -0.000000
    16  H   -0.002002  -0.000370  -0.000218   0.000020  -0.000010   0.000157
    17  H    0.438695  -0.013331   0.000781   0.000009  -0.000000  -0.000000
    18  H   -0.003430   0.351434   0.000466  -0.003187  -0.000184   0.000063
    19  H   -0.003430   0.351433   0.000466  -0.003187  -0.000184   0.000063
    20  H    0.000005  -0.013065  -0.054544   0.451102  -0.055277   0.010669
    21  H   -0.000000  -0.000192   0.011844  -0.053518   0.445017  -0.055483
    22  H   -0.000000   0.000019  -0.001175   0.010427  -0.056276   0.444431
    23  H    0.000021  -0.000354   0.013470  -0.001803   0.010759  -0.051302
              13         14         15         16         17         18
     1  Br  -0.000000   0.000021  -0.000489  -0.000104  -0.000137  -0.000000
     2  C    0.000056   0.002417  -0.055812   0.012174  -0.054999  -0.000174
     3  C   -0.000111   0.010428   0.437163  -0.053394   0.010434   0.000061
     4  C   -0.004037  -0.078767  -0.038490   0.448316  -0.001468  -0.000352
     5  C   -0.082290   0.265646   0.011429  -0.050358   0.012846   0.001973
     6  C    0.010920  -0.031674  -0.001187   0.013204  -0.038117   0.000888
     7  C   -0.000321   0.012370   0.010188  -0.002002   0.438695  -0.003430
     8  C    0.015689  -0.098525   0.000012  -0.000370  -0.013331   0.351434
     9  C   -0.016330   0.300250   0.000007  -0.000218   0.000781   0.000466
    10  C   -0.094070   0.020364  -0.000000   0.000020   0.000009  -0.003187
    11  C    0.050803  -0.116144   0.000000  -0.000010  -0.000000  -0.000184
    12  C    0.376085   0.066074  -0.000000   0.000157  -0.000000   0.000063
    13  C    5.024196   0.322678   0.000003   0.003355   0.000000  -0.000344
    14  C    0.322678   5.301389  -0.000270  -0.019559  -0.000626   0.002207
    15  H    0.000003  -0.000270   0.565636  -0.009038  -0.000121  -0.000000
    16  H    0.003355  -0.019559  -0.009038   0.591032   0.000011   0.000007
    17  H    0.000000  -0.000626  -0.000121   0.000011   0.580528   0.001355
    18  H   -0.000344   0.002207  -0.000000   0.000007   0.001355   0.546085
    19  H   -0.000344   0.002207  -0.000000   0.000007   0.001355  -0.007882
    20  H   -0.001457   0.013141   0.000000   0.000000   0.000000   0.001421
    21  H    0.010732  -0.001395  -0.000000  -0.000000  -0.000000   0.000003
    22  H   -0.050332   0.011890  -0.000000   0.000002   0.000000  -0.000000
    23  H    0.444043  -0.049220   0.000003   0.000695   0.000000   0.000007
              19         20         21         22         23
     1  Br  -0.000000   0.000000  -0.000000   0.000000  -0.000000
     2  C   -0.000174   0.000000   0.000000   0.000000  -0.000010
     3  C    0.000061  -0.000000   0.000000  -0.000000   0.000177
     4  C   -0.000352   0.000000  -0.000001   0.000001   0.003665
     5  C    0.001973  -0.000608   0.000019  -0.000275  -0.020318
     6  C    0.000888   0.000705   0.000011   0.000005  -0.000347
     7  C   -0.003430   0.000005  -0.000000  -0.000000   0.000021
     8  C    0.351433  -0.013065  -0.000192   0.000019  -0.000354
     9  C    0.000466  -0.054544   0.011844  -0.001175   0.013470
    10  C   -0.003187   0.451102  -0.053518   0.010427  -0.001803
    11  C   -0.000184  -0.055277   0.445017  -0.056276   0.010759
    12  C    0.000063   0.010669  -0.055483   0.444431  -0.051302
    13  C   -0.000344  -0.001457   0.010732  -0.050332   0.444043
    14  C    0.002207   0.013141  -0.001395   0.011890  -0.049220
    15  H   -0.000000   0.000000  -0.000000  -0.000000   0.000003
    16  H    0.000007   0.000000  -0.000000   0.000002   0.000695
    17  H    0.001355   0.000000  -0.000000   0.000000   0.000000
    18  H   -0.007882   0.001421   0.000003  -0.000000   0.000007
    19  H    0.546086   0.001421   0.000003  -0.000000   0.000007
    20  H    0.001421   0.596015  -0.008723  -0.000125   0.000014
    21  H    0.000003  -0.008723   0.573849  -0.008934  -0.000123
    22  H   -0.000000  -0.000125  -0.008934   0.580275  -0.008920
    23  H    0.000007   0.000014  -0.000123  -0.008920   0.602628
          Atomic-Atomic Spin Densities.
               1          2          3          4          5          6
     1  Br   0.136116  -0.040687  -0.002047   0.000341   0.000051   0.000401
     2  C   -0.040687   0.274718   0.025599  -0.006535  -0.007289  -0.008690
     3  C   -0.002047   0.025599  -0.021165  -0.024763  -0.002785  -0.003149
     4  C    0.000341  -0.006535  -0.024763   0.071350   0.034720   0.001526
     5  C    0.000051  -0.007289  -0.002785   0.034720   0.168709   0.040219
     6  C    0.000401  -0.008690  -0.003149   0.001526   0.040219   0.133544
     7  C   -0.000358   0.019178   0.000390  -0.001554  -0.001870  -0.016036
     8  C    0.000000   0.000042  -0.000061  -0.000127  -0.002643  -0.000027
     9  C   -0.000000   0.000028   0.000029  -0.000603  -0.011560  -0.006645
    10  C    0.000000  -0.000000  -0.000000   0.000015   0.000499   0.000089
    11  C    0.000000  -0.000000  -0.000000   0.000003   0.000215   0.000026
    12  C    0.000000  -0.000000  -0.000000   0.000033   0.000624   0.000021
    13  C   -0.000000   0.000004   0.000037  -0.000098  -0.005535  -0.000586
    14  C   -0.000001   0.000213   0.000643  -0.004371  -0.065465  -0.009393
    15  H   -0.000063  -0.000348   0.000648  -0.000027   0.000095  -0.000042
    16  H    0.000001   0.000017   0.000106   0.001318  -0.000410  -0.000019
    17  H   -0.000107  -0.000182   0.000048  -0.000031   0.000120   0.000108
    18  H    0.000000  -0.000003   0.000001   0.000001   0.000157  -0.000685
    19  H    0.000000  -0.000003   0.000001   0.000001   0.000157  -0.000685
    20  H    0.000000   0.000000  -0.000000  -0.000000  -0.000014   0.000015
    21  H   -0.000000   0.000000  -0.000000  -0.000000   0.000002  -0.000000
    22  H   -0.000000  -0.000000   0.000000   0.000000  -0.000000   0.000000
    23  H   -0.000000  -0.000000  -0.000002  -0.000111  -0.000116   0.000008
               7          8          9         10         11         12
     1  Br  -0.000358   0.000000  -0.000000   0.000000   0.000000   0.000000
     2  C    0.019178   0.000042   0.000028  -0.000000  -0.000000  -0.000000
     3  C    0.000390  -0.000061   0.000029  -0.000000  -0.000000  -0.000000
     4  C   -0.001554  -0.000127  -0.000603   0.000015   0.000003   0.000033
     5  C   -0.001870  -0.002643  -0.011560   0.000499   0.000215   0.000624
     6  C   -0.016036  -0.000027  -0.006645   0.000089   0.000026   0.000021
     7  C   -0.087423   0.001930   0.000193   0.000010  -0.000000  -0.000000
     8  C    0.001930  -0.023351  -0.002825   0.001878   0.000079  -0.000046
     9  C    0.000193  -0.002825   0.173821  -0.010798  -0.008302  -0.002555
    10  C    0.000010   0.001878  -0.010798  -0.106656   0.007235   0.000739
    11  C   -0.000000   0.000079  -0.008302   0.007235   0.259939   0.016023
    12  C   -0.000000  -0.000046  -0.002555   0.000739   0.016023  -0.053950
    13  C    0.000013  -0.000144   0.001927  -0.000976  -0.005868  -0.021478
    14  C    0.000599  -0.002738   0.036718  -0.000494  -0.006169  -0.001000
    15  H    0.000013  -0.000001  -0.000000   0.000000  -0.000000   0.000000
    16  H   -0.000039   0.000003   0.000007  -0.000001   0.000000  -0.000001
    17  H    0.000069   0.000041   0.000012   0.000000   0.000000  -0.000000
    18  H   -0.000094   0.001759  -0.000956  -0.000065  -0.000004  -0.000000
    19  H   -0.000094   0.001759  -0.000956  -0.000065  -0.000004  -0.000000
    20  H    0.000000   0.000021   0.000150  -0.000138  -0.000372   0.000055
    21  H   -0.000000   0.000006  -0.000190   0.000175   0.001391   0.000011
    22  H    0.000000  -0.000001  -0.000032   0.000043  -0.000571   0.000407
    23  H   -0.000001   0.000005  -0.000028  -0.000037   0.000001   0.000121
              13         14         15         16         17         18
     1  Br  -0.000000  -0.000001  -0.000063   0.000001  -0.000107   0.000000
     2  C    0.000004   0.000213  -0.000348   0.000017  -0.000182  -0.000003
     3  C    0.000037   0.000643   0.000648   0.000106   0.000048   0.000001
     4  C   -0.000098  -0.004371  -0.000027   0.001318  -0.000031   0.000001
     5  C   -0.005535  -0.065465   0.000095  -0.000410   0.000120   0.000157
     6  C   -0.000586  -0.009393  -0.000042  -0.000019   0.000108  -0.000685
     7  C    0.000013   0.000599   0.000013  -0.000039   0.000069  -0.000094
     8  C   -0.000144  -0.002738  -0.000001   0.000003   0.000041   0.001759
     9  C    0.001927   0.036718  -0.000000   0.000007   0.000012  -0.000956
    10  C   -0.000976  -0.000494   0.000000  -0.000001   0.000000  -0.000065
    11  C   -0.005868  -0.006169  -0.000000   0.000000   0.000000  -0.000004
    12  C   -0.021478  -0.001000   0.000000  -0.000001  -0.000000  -0.000000
    13  C    0.102483   0.031279   0.000000  -0.000101  -0.000000   0.000004
    14  C    0.031279   0.102646   0.000002  -0.000077  -0.000010   0.000179
    15  H    0.000000   0.000002  -0.000236   0.000077   0.000000   0.000000
    16  H   -0.000101  -0.000077   0.000077  -0.004702  -0.000001  -0.000000
    17  H   -0.000000  -0.000010   0.000000  -0.000001   0.002420  -0.000006
    18  H    0.000004   0.000179   0.000000  -0.000000  -0.000006   0.001666
    19  H    0.000004   0.000179   0.000000  -0.000000  -0.000006  -0.000330
    20  H   -0.000024   0.000133  -0.000000   0.000000  -0.000000  -0.000006
    21  H   -0.000158  -0.000006   0.000000  -0.000000   0.000000  -0.000000
    22  H   -0.000016   0.000114  -0.000000  -0.000000  -0.000000   0.000000
    23  H    0.001457  -0.000366  -0.000000  -0.000010   0.000000  -0.000000
              19         20         21         22         23
     1  Br   0.000000   0.000000  -0.000000  -0.000000  -0.000000
     2  C   -0.000003   0.000000   0.000000  -0.000000  -0.000000
     3  C    0.000001  -0.000000  -0.000000   0.000000  -0.000002
     4  C    0.000001  -0.000000  -0.000000   0.000000  -0.000111
     5  C    0.000157  -0.000014   0.000002  -0.000000  -0.000116
     6  C   -0.000685   0.000015  -0.000000   0.000000   0.000008
     7  C   -0.000094   0.000000  -0.000000   0.000000  -0.000001
     8  C    0.001759   0.000021   0.000006  -0.000001   0.000005
     9  C   -0.000956   0.000150  -0.000190  -0.000032  -0.000028
    10  C   -0.000065  -0.000138   0.000175   0.000043  -0.000037
    11  C   -0.000004  -0.000372   0.001391  -0.000571   0.000001
    12  C   -0.000000   0.000055   0.000011   0.000407   0.000121
    13  C    0.000004  -0.000024  -0.000158  -0.000016   0.001457
    14  C    0.000179   0.000133  -0.000006   0.000114  -0.000366
    15  H    0.000000  -0.000000   0.000000  -0.000000  -0.000000
    16  H   -0.000000   0.000000  -0.000000  -0.000000  -0.000010
    17  H   -0.000006  -0.000000   0.000000  -0.000000   0.000000
    18  H   -0.000330  -0.000006  -0.000000   0.000000  -0.000000
    19  H    0.001666  -0.000006  -0.000000   0.000000  -0.000000
    20  H   -0.000006   0.003582   0.000080  -0.000001  -0.000000
    21  H   -0.000000   0.000080  -0.012567   0.000092   0.000004
    22  H    0.000000  -0.000001   0.000092   0.001470   0.000062
    23  H   -0.000000  -0.000000   0.000004   0.000062  -0.005901
 Mulliken charges and spin densities:
               1          2
     1  Br   0.141766   0.093648
     2  C   -0.048764   0.256060
     3  C    0.039251  -0.026472
     4  C   -0.012082   0.071089
     5  C    0.082389   0.147884
     6  C   -0.126505   0.130002
     7  C    0.027844  -0.085075
     8  C    0.220261  -0.024441
     9  C   -0.112062   0.167433
    10  C   -0.024480  -0.108548
    11  C    0.046273   0.263621
    12  C   -0.001147  -0.060996
    13  C   -0.008924   0.102220
    14  C    0.065100   0.082616
    15  H    0.080966   0.000118
    16  H    0.066072  -0.003829
    17  H    0.062785   0.002474
    18  H    0.109583   0.001616
    19  H    0.109582   0.001616
    20  H    0.059307   0.003475
    21  H    0.086890  -0.011161
    22  H    0.078987   0.001567
    23  H    0.056908  -0.004915
 Sum of Mulliken charges =   1.00000   1.00000
 Mulliken charges and spin densities with hydrogens summed into heavy atoms:
               1          2
     1  Br   0.141766   0.093648
     2  C   -0.048764   0.256060
     3  C    0.120217  -0.026354
     4  C    0.053990   0.067259
     5  C    0.082389   0.147884
     6  C   -0.126505   0.130002
     7  C    0.090629  -0.082601
     8  C    0.439426  -0.021210
     9  C   -0.112062   0.167433
    10  C    0.034827  -0.105073
    11  C    0.133163   0.252460
    12  C    0.077840  -0.059429
    13  C    0.047985   0.097305
    14  C    0.065100   0.082616
 Electronic spatial extent (au):  <R**2>=           4834.3847
 Charge=              1.0000 electrons
 Dipole moment (field-independent basis, Debye):
    X=              5.9668    Y=              0.1349    Z=              0.0000  Tot=              5.9684
 Quadrupole moment (field-independent basis, Debye-Ang):
   XX=            -32.8201   YY=            -69.7491   ZZ=            -93.4244
   XY=             -1.2315   XZ=             -0.0000   YZ=             -0.0000
 Traceless Quadrupole moment (field-independent basis, Debye-Ang):
   XX=             32.5111   YY=             -4.4179   ZZ=            -28.0932
   XY=             -1.2315   XZ=             -0.0000   YZ=             -0.0000
 Octapole moment (field-independent basis, Debye-Ang**2):
  XXX=             45.9253  YYY=              1.7365  ZZZ=              0.0001  XYY=            -14.7743
  XXY=             -1.0412  XXZ=              0.0001  XZZ=            -48.2623  YZZ=             -5.2649
  YYZ=              0.0000  XYZ=             -0.0000
 Hexadecapole moment (field-independent basis, Debye-Ang**3):
 XXXX=          -3303.8852 YYYY=           -612.9511 ZZZZ=           -106.1495 XXXY=             29.0850
 XXXZ=             -0.0003 YYYX=              5.7216 YYYZ=             -0.0000 ZZZX=             -0.0001
 ZZZY=             -0.0001 XXYY=           -787.4722 XXZZ=           -870.3796 YYZZ=           -143.2696
 XXYZ=             -0.0001 YYXZ=             -0.0000 ZZXY=              0.3137
 N-N= 1.038625916783D+03 E-N=-9.367034449682D+03  KE= 3.065671044467D+03
 There are a total of      526626 grid points.
 ElSum from          density=      121.0000338666
 ElSum from atomic densities=      122.0001602280
 Hirshfeld populations at iteration   1 (CA, CB, DipXYZ):
               1          2          3          4          5
     1  Br  17.497131  17.389110  -0.108165  -0.012765   0.000000
     2  C    3.050934   2.878325  -0.052703  -0.000836  -0.000001
     3  C    3.010240   2.993003  -0.032127   0.048464   0.000000
     4  C    3.028273   2.960127   0.043577   0.056966  -0.000000
     5  C    3.039042   2.915687   0.013933   0.032278  -0.000000
     6  C    3.023179   2.928269   0.034044  -0.049970   0.000000
     7  C    2.999398   3.018536  -0.013133  -0.060568  -0.000000
     8  C    3.018003   3.010335  -0.000861  -0.025969   0.000000
     9  C    3.032676   2.922371  -0.036424  -0.049833  -0.000001
    10  C    2.990498   3.020704   0.033305  -0.064687  -0.000000
    11  C    3.061549   2.894648   0.079436  -0.014110   0.000001
    12  C    2.997504   3.000487   0.065251   0.032019  -0.000001
    13  C    3.036801   2.957731  -0.029492   0.060583   0.000001
    14  C    3.030345   2.938166  -0.012363   0.032074   0.000001
    15  H    0.463239   0.463545  -0.092582   0.151678   0.000000
    16  H    0.464449   0.462242   0.054036   0.164515   0.000000
    17  H    0.463595   0.465732  -0.049056  -0.168065   0.000000
    18  H    0.466289   0.464451  -0.006444  -0.110395   0.129196
    19  H    0.466289   0.464451  -0.006443  -0.110395  -0.129196
    20  H    0.464326   0.466663   0.049937  -0.166328   0.000000
    21  H    0.464981   0.456335   0.170093  -0.044386  -0.000000
    22  H    0.463821   0.464613   0.126894   0.122259  -0.000000
    23  H    0.467454   0.464487  -0.032603   0.167388  -0.000000
       Tot  61.000016  60.000018   0.198111  -0.010083   0.000001

 Dip from Atomic Chgs              2.149183   0.063134   0.000001
         Total Dipole              2.347294   0.053051   0.000002

 Hirshfeld charges, spin densities, dipoles, and CM5 charges using IRadAn=      5:
              Q-H        S-H        Dx         Dy         Dz        Q-CM5   
     1  Br   0.113759   0.108021  -0.108165  -0.012765   0.000000   0.128753
     2  C    0.070741   0.172609  -0.052703  -0.000836  -0.000001   0.049617
     3  C   -0.003243   0.017237  -0.032127   0.048464   0.000000  -0.055833
     4  C    0.011600   0.068146   0.043577   0.056966  -0.000000  -0.039726
     5  C    0.045271   0.123355   0.013933   0.032278  -0.000000   0.040517
     6  C    0.048552   0.094909   0.034044  -0.049970   0.000000   0.038413
     7  C   -0.017934  -0.019138  -0.013133  -0.060568  -0.000000  -0.067946
     8  C   -0.028338   0.007668  -0.000861  -0.025969   0.000000  -0.122007
     9  C    0.044953   0.110305  -0.036424  -0.049833  -0.000001   0.034710
    10  C   -0.011203  -0.030206   0.033305  -0.064687  -0.000000  -0.063115
    11  C    0.043803   0.166900   0.079436  -0.014110   0.000001  -0.010652
    12  C    0.002009  -0.002983   0.065251   0.032019  -0.000001  -0.052440
    13  C    0.005468   0.079070  -0.029492   0.060583   0.000001  -0.045972
    14  C    0.031488   0.092179  -0.012363   0.032074   0.000001   0.026700
    15  H    0.073216  -0.000306  -0.092582   0.151678   0.000000   0.129023
    16  H    0.073309   0.002207   0.054036   0.164515   0.000000   0.128773
    17  H    0.070673  -0.002137  -0.049056  -0.168065   0.000000   0.126798
    18  H    0.069261   0.001838  -0.006444  -0.110395   0.129196   0.123598
    19  H    0.069260   0.001838  -0.006443  -0.110395  -0.129196   0.123598
    20  H    0.069010  -0.002337   0.049937  -0.166328   0.000000   0.124060
    21  H    0.078684   0.008646   0.170093  -0.044386  -0.000000   0.133381
    22  H    0.071567  -0.000792   0.126894   0.122259  -0.000000   0.126280
    23  H    0.068059   0.002967  -0.032603   0.167388  -0.000000   0.123434
       Tot   0.999966   0.999998   0.198111  -0.010083   0.000001   0.999966
 Hirshfeld charges and spin densities with hydrogens summed into heavy atoms:
              Q-H        S-H       Q-CM5   
     1  Br   0.113759   0.108021   0.128753
     2  C    0.070741   0.172609   0.049617
     3  C    0.069973   0.016932   0.073190
     4  C    0.084909   0.070353   0.089047
     5  C    0.045271   0.123355   0.040517
     6  C    0.048552   0.094909   0.038413
     7  C    0.052739  -0.021275   0.058852
     8  C    0.110183   0.011344   0.125189
     9  C    0.044953   0.110305   0.034710
    10  C    0.057808  -0.032543   0.060945
    11  C    0.122487   0.175546   0.122729
    12  C    0.073576  -0.003775   0.073841
    13  C    0.073527   0.082038   0.077462
    14  C    0.031488   0.092179   0.026700
 
 EQQ= 0.773862642752E-01 EQD=-0.559050270950E-01 EDD= 0.133999270467E-01
 EQQ+QD+DD= 0.348811642269E-01
 
                          Isotropic Fermi Contact Couplings
        Atom                 a.u.       MegaHertz       Gauss      10(-4) cm-1
     1  Br(79)             0.03377      37.95438      13.54307      12.66022
     2  C(13)              0.04788      53.82237      19.20516      17.95321
     3  C(13)             -0.01249     -14.04255      -5.01073      -4.68409
     4  C(13)              0.00645       7.25453       2.58860       2.41985
     5  C(13)              0.01340      15.06492       5.37554       5.02512
     6  C(13)              0.01764      19.82875       7.07539       6.61416
     7  C(13)             -0.02293     -25.77438      -9.19694      -8.59741
     8  C(13)             -0.01036     -11.65061      -4.15723      -3.88623
     9  C(13)              0.02450      27.54078       9.82724       9.18662
    10  C(13)             -0.02616     -29.40812     -10.49355      -9.80949
    11  C(13)              0.04202      47.24350      16.85766      15.75874
    12  C(13)             -0.01776     -19.96982      -7.12573      -6.66122
    13  C(13)              0.01295      14.55356       5.19307       4.85454
    14  C(13)              0.00114       1.28176       0.45736       0.42755
    15  H(1)              -0.00004      -0.18872      -0.06734      -0.06295
    16  H(1)              -0.00136      -6.06698      -2.16485      -2.02373
    17  H(1)               0.00074       3.31516       1.18293       1.10582
    18  H(1)               0.00075       3.35216       1.19613       1.11816
    19  H(1)               0.00075       3.35214       1.19613       1.11815
    20  H(1)               0.00105       4.71377       1.68199       1.57234
    21  H(1)              -0.00360     -16.10994      -5.74843      -5.37370
    22  H(1)               0.00046       2.07251       0.73952       0.69132
    23  H(1)              -0.00167      -7.47215      -2.66625      -2.49244
 --------------------------------------------------------
       Center         ----  Spin Dipole Couplings  ----
                      3XX-RR        3YY-RR        3ZZ-RR
 --------------------------------------------------------
     1   Atom       -0.785603     -0.605378      1.390981
     2   Atom       -0.141942     -0.151651      0.293592
     3   Atom       -0.000140      0.002454     -0.002314
     4   Atom       -0.048143     -0.042092      0.090235
     5   Atom       -0.090237     -0.090518      0.180755
     6   Atom       -0.076517     -0.070999      0.147516
     7   Atom        0.033758      0.031662     -0.065420
     8   Atom       -0.003260      0.005193     -0.001933
     9   Atom       -0.091447     -0.086277      0.177723
    10   Atom        0.046291      0.040313     -0.086604
    11   Atom       -0.128998     -0.136761      0.265759
    12   Atom        0.018732      0.019937     -0.038669
    13   Atom       -0.059595     -0.054229      0.113824
    14   Atom       -0.060353     -0.061179      0.121532
    15   Atom       -0.002019      0.005974     -0.003954
    16   Atom       -0.006374      0.010397     -0.004023
    17   Atom        0.001683      0.002301     -0.003984
    18   Atom       -0.000937      0.004354     -0.003417
    19   Atom       -0.000937      0.004354     -0.003417
    20   Atom        0.003813     -0.000338     -0.003475
    21   Atom        0.017176     -0.014967     -0.002210
    22   Atom       -0.000960      0.004261     -0.003300
    23   Atom       -0.007406      0.011020     -0.003615
 --------------------------------------------------------
                        XY            XZ            YZ
 --------------------------------------------------------
     1   Atom       -0.026279      0.000005     -0.000002
     2   Atom        0.002175      0.000001     -0.000001
     3   Atom        0.001908     -0.000000     -0.000000
     4   Atom       -0.002508     -0.000000     -0.000000
     5   Atom       -0.001685     -0.000001     -0.000000
     6   Atom       -0.000355     -0.000001      0.000001
     7   Atom       -0.002307     -0.000000      0.000000
     8   Atom        0.000194     -0.000000     -0.000000
     9   Atom        0.000817      0.000001     -0.000000
    10   Atom        0.001207      0.000000      0.000000
    11   Atom       -0.002532     -0.000001     -0.000000
    12   Atom       -0.002257      0.000000      0.000000
    13   Atom        0.003061      0.000001      0.000000
    14   Atom        0.002362     -0.000001     -0.000000
    15   Atom       -0.001397      0.000000      0.000000
    16   Atom        0.001503      0.000000      0.000000
    17   Atom       -0.002864      0.000000      0.000000
    18   Atom        0.000324     -0.000144     -0.002231
    19   Atom        0.000324      0.000144      0.002231
    20   Atom        0.002352      0.000000      0.000000
    21   Atom       -0.010104      0.000000     -0.000000
    22   Atom        0.000165     -0.000000     -0.000000
    23   Atom       -0.000011      0.000000     -0.000000
 --------------------------------------------------------


 ---------------------------------------------------------------------------------
              Anisotropic Spin Dipole Couplings in Principal Axis System
 ---------------------------------------------------------------------------------

       Atom             a.u.   MegaHertz   Gauss  10(-4) cm-1        Axes

              Baa    -0.7894  -105.882   -37.781   -35.318  0.9900  0.1414 -0.0000
     1 Br(79) Bbb    -0.6016   -80.700   -28.796   -26.919 -0.1414  0.9900  0.0000
              Bcc     1.3910   186.582    66.577    62.237  0.0000 -0.0000  1.0000
 
              Baa    -0.1521   -20.412    -7.284    -6.809 -0.2090  0.9779  0.0000
     2 C(13)  Bbb    -0.1415   -18.985    -6.774    -6.333  0.9779  0.2090 -0.0000
              Bcc     0.2936    39.397    14.058    13.142  0.0000 -0.0000  1.0000
 
              Baa    -0.0023    -0.311    -0.111    -0.104 -0.0000  0.0000  1.0000
     3 C(13)  Bbb    -0.0012    -0.154    -0.055    -0.051  0.8838 -0.4679  0.0000
              Bcc     0.0035     0.465     0.166     0.155  0.4679  0.8838 -0.0000
 
              Baa    -0.0490    -6.582    -2.349    -2.195  0.9407  0.3392  0.0000
     4 C(13)  Bbb    -0.0412    -5.527    -1.972    -1.844 -0.3392  0.9407  0.0000
              Bcc     0.0902    12.109     4.321     4.039 -0.0000 -0.0000  1.0000
 
              Baa    -0.0921   -12.355    -4.408    -4.121  0.6771  0.7359  0.0000
     5 C(13)  Bbb    -0.0887   -11.901    -4.247    -3.970  0.7359 -0.6771  0.0000
              Bcc     0.1808    24.256     8.655     8.091 -0.0000 -0.0000  1.0000
 
              Baa    -0.0765   -10.271    -3.665    -3.426  0.9980  0.0639  0.0000
     6 C(13)  Bbb    -0.0710    -9.524    -3.399    -3.177 -0.0639  0.9980 -0.0000
              Bcc     0.1475    19.795     7.063     6.603 -0.0000  0.0000  1.0000
 
              Baa    -0.0654    -8.779    -3.132    -2.928  0.0000 -0.0000  1.0000
     7 C(13)  Bbb     0.0302     4.049     1.445     1.351  0.5415  0.8407  0.0000
              Bcc     0.0352     4.729     1.688     1.578  0.8407 -0.5415 -0.0000
 
              Baa    -0.0033    -0.438    -0.156    -0.146  0.9997 -0.0229  0.0000
     8 C(13)  Bbb    -0.0019    -0.259    -0.093    -0.087 -0.0000  0.0000  1.0000
              Bcc     0.0052     0.697     0.249     0.233  0.0229  0.9997 -0.0000
 
              Baa    -0.0916   -12.288    -4.385    -4.099  0.9883 -0.1524 -0.0000
     9 C(13)  Bbb    -0.0862   -11.561    -4.125    -3.856  0.1524  0.9883  0.0000
              Bcc     0.1777    23.849     8.510     7.955  0.0000 -0.0000  1.0000
 
              Baa    -0.0866   -11.621    -4.147    -3.877 -0.0000 -0.0000  1.0000
    10 C(13)  Bbb     0.0401     5.378     1.919     1.794 -0.1907  0.9816  0.0000
              Bcc     0.0465     6.243     2.228     2.083  0.9816  0.1907  0.0000
 
              Baa    -0.1375   -18.453    -6.585    -6.155  0.2850  0.9585  0.0000
    11 C(13)  Bbb    -0.1282   -17.209    -6.141    -5.740  0.9585 -0.2850  0.0000
              Bcc     0.2658    35.662    12.725    11.896 -0.0000 -0.0000  1.0000
 
              Baa    -0.0387    -5.189    -1.852    -1.731 -0.0000 -0.0000  1.0000
    12 C(13)  Bbb     0.0170     2.281     0.814     0.761  0.7931  0.6091  0.0000
              Bcc     0.0217     2.908     1.038     0.970 -0.6091  0.7931 -0.0000
 
              Baa    -0.0610    -8.183    -2.920    -2.730  0.9108 -0.4128 -0.0000
    13 C(13)  Bbb    -0.0528    -7.091    -2.530    -2.365  0.4128  0.9108 -0.0000
              Bcc     0.1138    15.274     5.450     5.095  0.0000  0.0000  1.0000
 
              Baa    -0.0632    -8.476    -3.024    -2.827 -0.6433  0.7656  0.0000
    14 C(13)  Bbb    -0.0584    -7.832    -2.795    -2.613  0.7656  0.6433  0.0000
              Bcc     0.1215    16.308     5.819     5.440 -0.0000 -0.0000  1.0000
 
              Baa    -0.0040    -2.110    -0.753    -0.704 -0.0000 -0.0000  1.0000
    15 H(1)   Bbb    -0.0023    -1.204    -0.430    -0.402  0.9859  0.1673  0.0000
              Bcc     0.0062     3.314     1.182     1.105 -0.1673  0.9859  0.0000
 
              Baa    -0.0065    -3.472    -1.239    -1.158  0.9961 -0.0885 -0.0000
    16 H(1)   Bbb    -0.0040    -2.146    -0.766    -0.716  0.0000 -0.0000  1.0000
              Bcc     0.0105     5.618     2.005     1.874  0.0885  0.9961  0.0000
 
              Baa    -0.0040    -2.126    -0.759    -0.709 -0.0000 -0.0000  1.0000
    17 H(1)   Bbb    -0.0009    -0.474    -0.169    -0.158  0.7440  0.6681  0.0000
              Bcc     0.0049     2.600     0.928     0.867 -0.6681  0.7440 -0.0000
 
              Baa    -0.0040    -2.141    -0.764    -0.714  0.0181  0.2570  0.9662
    18 H(1)   Bbb    -0.0010    -0.510    -0.182    -0.170  0.9981 -0.0618 -0.0022
              Bcc     0.0050     2.652     0.946     0.884  0.0591  0.9644 -0.2576
 
              Baa    -0.0040    -2.141    -0.764    -0.714 -0.0181 -0.2570  0.9662
    19 H(1)   Bbb    -0.0010    -0.510    -0.182    -0.170  0.9981 -0.0618  0.0022
              Bcc     0.0050     2.652     0.946     0.884  0.0591  0.9644  0.2576
 
              Baa    -0.0035    -1.854    -0.662    -0.618  0.0000 -0.0000  1.0000
    20 H(1)   Bbb    -0.0014    -0.747    -0.266    -0.249 -0.4113  0.9115  0.0000
              Bcc     0.0049     2.601     0.928     0.867  0.9115  0.4113  0.0000
 
              Baa    -0.0179    -9.539    -3.404    -3.182  0.2770  0.9609  0.0000
    21 H(1)   Bbb    -0.0022    -1.179    -0.421    -0.393 -0.0000 -0.0000  1.0000
              Bcc     0.0201    10.718     3.825     3.575  0.9609 -0.2770  0.0000
 
              Baa    -0.0033    -1.761    -0.628    -0.587  0.0000  0.0000  1.0000
    22 H(1)   Bbb    -0.0010    -0.515    -0.184    -0.172  0.9995 -0.0316 -0.0000
              Bcc     0.0043     2.276     0.812     0.759  0.0316  0.9995 -0.0000
 
              Baa    -0.0074    -3.951    -1.410    -1.318  1.0000  0.0006 -0.0000
    23 H(1)   Bbb    -0.0036    -1.929    -0.688    -0.643  0.0000  0.0000  1.0000
              Bcc     0.0110     5.880     2.098     1.961 -0.0006  1.0000 -0.0000
 

 ---------------------------------------------------------------------------------

 Running external command "gaunbo6 R"
         input file       "/home/rpaton/opt/dzvp/fukui/Gau-1729372.EIn"
         output file      "/home/rpaton/opt/dzvp/fukui/Gau-1729372.EOu"
         message file     "/home/rpaton/opt/dzvp/fukui/Gau-1729372.EMs"
         fchk file        "/home/rpaton/opt/dzvp/fukui/Gau-1729372.EFC"
         mat. el file     "/home/rpaton/opt/dzvp/fukui/Gau-1729372.EUF"

 Writing WrtUnf unformatted file "/home/rpaton/opt/dzvp/fukui/Gau-1729372.EUF"
 Gaussian matrix elements                                         Version   2 NLab=11 Len12L=8 Len4L=8
 Write SHELL TO ATOM MAP                   from file      0 offset           0 length                 117 to matrix element file.
 Write SHELL TYPES                         from file      0 offset           0 length                 117 to matrix element file.
 Write NUMBER OF PRIMITIVES PER SHELL      from file      0 offset           0 length                 117 to matrix element file.
 Write PRIMITIVE EXPONENTS                 from file      0 offset           0 length                 231 to matrix element file.
 Write CONTRACTION COEFFICIENTS            from file      0 offset           0 length                 231 to matrix element file.
 Write P(S=P) CONTRACTION COEFFICIENTS     from file      0 offset           0 length                 231 to matrix element file.
 Write COORDINATES OF EACH SHELL           from file      0 offset           0 length                 351 to matrix element file.
 Write BONDS PER ATOM                      from file      0 offset           0 length                  23 to matrix element file.
 Write BONDED ATOMS                        from file      0 offset           0 length                  50 to matrix element file.
 Write BOND TYPES                          from file      0 offset           0 length                  50 to matrix element file.
 Write ONIOM CHARGE/MULT                   from file      0 offset           0 length                  32 to matrix element file.
 Write ONIOM ATOM LAYERS                   from file      0 offset           0 length                  23 to matrix element file.
 Write ONIOM ATOM MODIFIERS                from file      0 offset           0 length                  23 to matrix element file.
 Write ONIOM ATOM TYPES                    from file      0 offset           0 length                  23 to matrix element file.
 Write ONIOM LINK ATOMS                    from file      0 offset           0 length                  23 to matrix element file.
 Write ONIOM LINK CHARGES                  from file      0 offset           0 length                  23 to matrix element file.
 Write ONIOM LINK DISTANCES                from file      0 offset           0 length                  92 to matrix element file.
 Write SYMINF INTS                         from file      0 offset           0 length                  26 to matrix element file.
 Write ROTTR TO SO                         from file      0 offset           0 length                  12 to matrix element file.
 Write GAUSSIAN SCALARS                    from file    501 offset           0 to matrix element file.
 Write OPTIMIZATION FLAGS                  from file      0 offset           0 length                  23 to matrix element file.
 Write INTEGER ISO                         from file      0 offset           0 length                  23 to matrix element file.
 Write INTEGER SPIN                        from file      0 offset           0 length                  23 to matrix element file.
 Write REAL ZEFFECTIVE                     from file      0 offset           0 length                  23 to matrix element file.
 Write REAL QUADRUPOLEMOMENT               from file      0 offset           0 length                  23 to matrix element file.
 Write REAL GFACTOR                        from file      0 offset           0 length                  23 to matrix element file.
 Write REAL ZNUCLEAR                       from file      0 offset           0 length                  23 to matrix element file.
 Write MULLIKEN CHARGES                    from file      0 offset           0 length                  23 to matrix element file.
 Write TYPE 6 CHARGES                      from file      0 offset           0 length                  23 to matrix element file.
 Write TYPE 7 CHARGES                      from file      0 offset           0 length                  23 to matrix element file.
 Write NUCLEAR GRADIENT                    from file  10584 offset           0 length                  69 to matrix element file.
 Array NUCLEAR FORCE CONSTANTS              on  file  10585 does not exist.
 Write ELECTRIC DIPOLE MOMENT              from file      0 offset           0 length                   3 to matrix element file.
 Write NON-ADIABATIC COUPLING              from file  10810 offset           0 length                  69 to matrix element file.
 Write FINITE EM FIELD                     from file  10521 offset           0 length                  35 to matrix element file.
 Write OVERLAP                             from file  10514 offset           0 length               33670 to matrix element file.
 Write CORE HAMILTONIAN ALPHA              from file  10515 offset           0 length               33670 to matrix element file.
 Write CORE HAMILTONIAN BETA               from file  10515 offset       33670 length               33670 to matrix element file.
 Write KINETIC ENERGY                      from file  10516 offset           0 length               33670 to matrix element file.
 Write ORTHOGONAL BASIS                    from file  10685 offset           0 length               67081 to matrix element file.
 Write DIPOLE INTEGRALS                    from file  10518 offset           0 length              101010 to matrix element file.
 Array DIP VEL INTEGRALS                    on  file  10572 does not exist.
 Array R X DEL INTEGRALS                    on  file  10572 does not exist.
 Write ALPHA ORBITAL ENERGIES              from file      0 offset           0 length                 259 to matrix element file.
 Write BETA ORBITAL ENERGIES               from file      0 offset           0 length                 259 to matrix element file.
 Write ALPHA MO COEFFICIENTS               from file  10524 offset           0 length               67081 to matrix element file.
 Write BETA MO COEFFICIENTS                from file  10526 offset           0 length               67081 to matrix element file.
 Write ALPHA DENSITY MATRIX                from file      0 offset           0 length               33670 to matrix element file.
 Write BETA DENSITY MATRIX                 from file      0 offset           0 length               33670 to matrix element file.
 Write ALPHA FOCK MATRIX                   from file  10536 offset           0 length               33670 to matrix element file.
 Write BETA FOCK MATRIX                    from file  10538 offset           0 length               33670 to matrix element file.
 Write ENERGY-WEIGHTED DENSITY             from file  10571 offset           0 length               33670 to matrix element file.
 Write ALPHA SCF DENSITY MATRIX            from file      0 offset           0 length               33670 to matrix element file.
 Write BETA SCF DENSITY MATRIX             from file      0 offset           0 length               33670 to matrix element file.
 No 2e integrals to process.
 Perform NBO analysis...

 *********************************** NBO 7.0 ***********************************
             N A T U R A L   A T O M I C   O R B I T A L   A N D
          N A T U R A L   B O N D   O R B I T A L   A N A L Y S I S
 **************************** Robert Paton (I101709) ***************************
  (c) Copyright 1996-2019 Board of Regents of the University of Wisconsin System
      on behalf of the Theoretical Chemistry Institute.  All rights reserved.

          Cite this program [NBO 7.0.5 (4-Jun-2019)] as:

          NBO 7.0.  E. D. Glendening, J. K. Badenhoop, A. E. Reed,
          J. E. Carpenter, J. A. Bohmann, C. M. Morales, P. Karafiloglou,
          C. R. Landis, and F. Weinhold, Theoretical Chemistry Institute,
          University of Wisconsin, Madison, WI (2018)

 Filename set to /home/rpaton/opt/dzvp/fukui/Gau-1729372

 Job title:  arbr34_wb97xd_popncreated by GaussianPrep


 NATURAL POPULATIONS:  Natural atomic orbital occupancies

  NAO Atom No lang   Type(AO)    Occupancy     Spin
 -----------------------------------------------------
   1   Br  1  s      Cor( 1s)     2.00000     0.00000
   2   Br  1  s      Cor( 2s)     2.00000     0.00000
   3   Br  1  s      Cor( 3s)     2.00000     0.00000
   4   Br  1  s      Val( 4s)     1.85698     0.00115
   5   Br  1  s      Ryd( 5s)     0.00289     0.00008
   6   Br  1  px     Cor( 2p)     2.00000     0.00000
   7   Br  1  px     Cor( 3p)     2.00000     0.00000
   8   Br  1  px     Val( 4p)     1.12216    -0.00944
   9   Br  1  px     Ryd( 5p)     0.00286     0.00006
  10   Br  1  py     Cor( 2p)     2.00000     0.00000
  11   Br  1  py     Cor( 3p)     2.00000     0.00000
  12   Br  1  py     Val( 4p)     1.95760     0.00013
  13   Br  1  py     Ryd( 5p)     0.00124    -0.00001
  14   Br  1  pz     Cor( 2p)     2.00000     0.00000
  15   Br  1  pz     Cor( 3p)     2.00000     0.00000
  16   Br  1  pz     Val( 4p)     1.82556     0.11135
  17   Br  1  pz     Ryd( 5p)     0.00098     0.00029
  18   Br  1  dxy    Cor( 3d)     2.00000     0.00000
  19   Br  1  dxy    Ryd( 4d)     0.00149    -0.00004
  20   Br  1  dxy    Ryd( 5d)     0.00001     0.00000
  21   Br  1  dxz    Cor( 3d)     2.00000     0.00000
  22   Br  1  dxz    Ryd( 4d)     0.00286    -0.00038
  23   Br  1  dxz    Ryd( 5d)     0.00002     0.00000
  24   Br  1  dyz    Cor( 3d)     2.00000     0.00000
  25   Br  1  dyz    Ryd( 4d)     0.00009    -0.00001
  26   Br  1  dyz    Ryd( 5d)     0.00000     0.00000
  27   Br  1  dx2y2  Cor( 3d)     1.99999     0.00000
  28   Br  1  dx2y2  Ryd( 4d)     0.00575    -0.00008
  29   Br  1  dx2y2  Ryd( 5d)     0.00001     0.00000
  30   Br  1  dz2    Cor( 3d)     2.00000     0.00000
  31   Br  1  dz2    Ryd( 4d)     0.00202     0.00006
  32   Br  1  dz2    Ryd( 5d)     0.00000     0.00000

  33    C  2  s      Cor( 1s)     1.99996     0.00000
  34    C  2  s      Val( 2s)     0.94828     0.01018
  35    C  2  s      Ryd( 3s)     0.00100    -0.00001
  36    C  2  px     Val( 2p)     1.01190     0.00661
  37    C  2  px     Ryd( 3p)     0.00774    -0.00004
  38    C  2  py     Val( 2p)     1.09978     0.00457
  39    C  2  py     Ryd( 3p)     0.00808    -0.00007
  40    C  2  pz     Val( 2p)     0.94236     0.20145
  41    C  2  pz     Ryd( 3p)     0.00193    -0.00039
  42    C  2  dxy    Ryd( 3d)     0.00138     0.00001
  43    C  2  dxz    Ryd( 3d)     0.00118     0.00000
  44    C  2  dyz    Ryd( 3d)     0.00087     0.00002
  45    C  2  dx2y2  Ryd( 3d)     0.00193     0.00000
  46    C  2  dz2    Ryd( 3d)     0.00088    -0.00018

  47    C  3  s      Cor( 1s)     1.99995     0.00000
  48    C  3  s      Val( 2s)     0.95543    -0.00192
  49    C  3  s      Ryd( 3s)     0.00142     0.00002
  50    C  3  px     Val( 2p)     1.12478    -0.00179
  51    C  3  px     Ryd( 3p)     0.00651     0.00007
  52    C  3  py     Val( 2p)     1.15668    -0.00422
  53    C  3  py     Ryd( 3p)     0.00581     0.00004
  54    C  3  pz     Val( 2p)     0.95071    -0.00426
  55    C  3  pz     Ryd( 3p)     0.00103     0.00003
  56    C  3  dxy    Ryd( 3d)     0.00085     0.00000
  57    C  3  dxz    Ryd( 3d)     0.00060     0.00000
  58    C  3  dyz    Ryd( 3d)     0.00049     0.00018
  59    C  3  dx2y2  Ryd( 3d)     0.00097    -0.00001
  60    C  3  dz2    Ryd( 3d)     0.00065    -0.00001

  61    C  4  s      Cor( 1s)     1.99994     0.00000
  62    C  4  s      Val( 2s)     0.94356     0.00219
  63    C  4  s      Ryd( 3s)     0.00097     0.00001
  64    C  4  px     Val( 2p)     1.07880     0.00063
  65    C  4  px     Ryd( 3p)     0.00407     0.00003
  66    C  4  py     Val( 2p)     1.18501    -0.00011
  67    C  4  py     Ryd( 3p)     0.00624     0.00002
  68    C  4  pz     Val( 2p)     0.92864     0.07017
  69    C  4  pz     Ryd( 3p)     0.00101     0.00003
  70    C  4  dxy    Ryd( 3d)     0.00100     0.00000
  71    C  4  dxz    Ryd( 3d)     0.00061    -0.00002
  72    C  4  dyz    Ryd( 3d)     0.00047     0.00012
  73    C  4  dx2y2  Ryd( 3d)     0.00076    -0.00001
  74    C  4  dz2    Ryd( 3d)     0.00059    -0.00006

  75    C  5  s      Cor( 1s)     1.99996     0.00000
  76    C  5  s      Val( 2s)     0.86023     0.00361
  77    C  5  s      Ryd( 3s)     0.00216     0.00003
  78    C  5  px     Val( 2p)     1.08376     0.00093
  79    C  5  px     Ryd( 3p)     0.00434     0.00001
  80    C  5  py     Val( 2p)     1.10512    -0.00074
  81    C  5  py     Ryd( 3p)     0.00536     0.00007
  82    C  5  pz     Val( 2p)     0.91305     0.13307
  83    C  5  pz     Ryd( 3p)     0.00116     0.00035
  84    C  5  dxy    Ryd( 3d)     0.00100     0.00001
  85    C  5  dxz    Ryd( 3d)     0.00071     0.00014
  86    C  5  dyz    Ryd( 3d)     0.00077     0.00010
  87    C  5  dx2y2  Ryd( 3d)     0.00098    -0.00001
  88    C  5  dz2    Ryd( 3d)     0.00060    -0.00011

  89    C  6  s      Cor( 1s)     1.99996     0.00000
  90    C  6  s      Val( 2s)     0.86353     0.00440
  91    C  6  s      Ryd( 3s)     0.00196     0.00004
  92    C  6  px     Val( 2p)     1.09169     0.00321
  93    C  6  px     Ryd( 3p)     0.00515     0.00008
  94    C  6  py     Val( 2p)     1.05924     0.00032
  95    C  6  py     Ryd( 3p)     0.00479     0.00003
  96    C  6  pz     Val( 2p)     0.90665     0.11079
  97    C  6  pz     Ryd( 3p)     0.00183     0.00010
  98    C  6  dxy    Ryd( 3d)     0.00092     0.00000
  99    C  6  dxz    Ryd( 3d)     0.00080    -0.00010
 100    C  6  dyz    Ryd( 3d)     0.00067     0.00014
 101    C  6  dx2y2  Ryd( 3d)     0.00108     0.00000
 102    C  6  dz2    Ryd( 3d)     0.00058    -0.00009

 103    C  7  s      Cor( 1s)     1.99995     0.00000
 104    C  7  s      Val( 2s)     0.93902    -0.00415
 105    C  7  s      Ryd( 3s)     0.00159     0.00001
 106    C  7  px     Val( 2p)     1.08790    -0.00483
 107    C  7  px     Ryd( 3p)     0.00530     0.00007
 108    C  7  py     Val( 2p)     1.20364    -0.00410
 109    C  7  py     Ryd( 3p)     0.00743     0.00005
 110    C  7  pz     Val( 2p)     0.97425    -0.05104
 111    C  7  pz     Ryd( 3p)     0.00099     0.00003
 112    C  7  dxy    Ryd( 3d)     0.00095    -0.00001
 113    C  7  dxz    Ryd( 3d)     0.00046     0.00010
 114    C  7  dyz    Ryd( 3d)     0.00057     0.00008
 115    C  7  dx2y2  Ryd( 3d)     0.00082    -0.00001
 116    C  7  dz2    Ryd( 3d)     0.00066     0.00002

 117    C  8  s      Cor( 1s)     1.99993     0.00000
 118    C  8  s      Val( 2s)     1.01508    -0.00162
 119    C  8  s      Ryd( 3s)     0.00096     0.00000
 120    C  8  px     Val( 2p)     1.01735    -0.00543
 121    C  8  px     Ryd( 3p)     0.00380     0.00001
 122    C  8  py     Val( 2p)     1.16264    -0.00255
 123    C  8  py     Ryd( 3p)     0.00322     0.00002
 124    C  8  pz     Val( 2p)     1.26388    -0.00199
 125    C  8  pz     Ryd( 3p)     0.00230     0.00020
 126    C  8  dxy    Ryd( 3d)     0.00097    -0.00002
 127    C  8  dxz    Ryd( 3d)     0.00036     0.00010
 128    C  8  dyz    Ryd( 3d)     0.00079     0.00002
 129    C  8  dx2y2  Ryd( 3d)     0.00037     0.00000
 130    C  8  dz2    Ryd( 3d)     0.00076    -0.00001

 131    C  9  s      Cor( 1s)     1.99996     0.00000
 132    C  9  s      Val( 2s)     0.86460     0.00576
 133    C  9  s      Ryd( 3s)     0.00206     0.00004
 134    C  9  px     Val( 2p)     1.09623     0.00417
 135    C  9  px     Ryd( 3p)     0.00525     0.00006
 136    C  9  py     Val( 2p)     1.05598     0.00159
 137    C  9  py     Ryd( 3p)     0.00432     0.00001
 138    C  9  pz     Val( 2p)     0.91060     0.13441
 139    C  9  pz     Ryd( 3p)     0.00185     0.00012
 140    C  9  dxy    Ryd( 3d)     0.00088     0.00000
 141    C  9  dxz    Ryd( 3d)     0.00076    -0.00010
 142    C  9  dyz    Ryd( 3d)     0.00065     0.00011
 143    C  9  dx2y2  Ryd( 3d)     0.00112     0.00000
 144    C  9  dz2    Ryd( 3d)     0.00059    -0.00010

 145    C 10  s      Cor( 1s)     1.99995     0.00000
 146    C 10  s      Val( 2s)     0.94637    -0.00494
 147    C 10  s      Ryd( 3s)     0.00117     0.00001
 148    C 10  px     Val( 2p)     1.06957    -0.00582
 149    C 10  px     Ryd( 3p)     0.00380     0.00006
 150    C 10  py     Val( 2p)     1.20732    -0.00385
 151    C 10  py     Ryd( 3p)     0.00711     0.00006
 152    C 10  pz     Val( 2p)     0.97985    -0.06687
 153    C 10  pz     Ryd( 3p)     0.00069     0.00001
 154    C 10  dxy    Ryd( 3d)     0.00086    -0.00001
 155    C 10  dxz    Ryd( 3d)     0.00044     0.00017
 156    C 10  dyz    Ryd( 3d)     0.00055     0.00003
 157    C 10  dx2y2  Ryd( 3d)     0.00089    -0.00001
 158    C 10  dz2    Ryd( 3d)     0.00059     0.00003

 159    C 11  s      Cor( 1s)     1.99995     0.00000
 160    C 11  s      Val( 2s)     0.96958     0.00957
 161    C 11  s      Ryd( 3s)     0.00099     0.00000
 162    C 11  px     Val( 2p)     1.19575     0.00560
 163    C 11  px     Ryd( 3p)     0.00641     0.00000
 164    C 11  py     Val( 2p)     1.06733     0.00510
 165    C 11  py     Ryd( 3p)     0.00371    -0.00003
 166    C 11  pz     Val( 2p)     0.84727     0.20940
 167    C 11  pz     Ryd( 3p)     0.00047     0.00025
 168    C 11  dxy    Ryd( 3d)     0.00094     0.00001
 169    C 11  dxz    Ryd( 3d)     0.00053     0.00000
 170    C 11  dyz    Ryd( 3d)     0.00068    -0.00001
 171    C 11  dx2y2  Ryd( 3d)     0.00095     0.00001
 172    C 11  dz2    Ryd( 3d)     0.00060    -0.00015

 173    C 12  s      Cor( 1s)     1.99995     0.00000
 174    C 12  s      Val( 2s)     0.96281    -0.00316
 175    C 12  s      Ryd( 3s)     0.00100     0.00002
 176    C 12  px     Val( 2p)     1.13236    -0.00235
 177    C 12  px     Ryd( 3p)     0.00521     0.00006
 178    C 12  py     Val( 2p)     1.13406    -0.00479
 179    C 12  py     Ryd( 3p)     0.00533     0.00004
 180    C 12  pz     Val( 2p)     0.95817    -0.02994
 181    C 12  pz     Ryd( 3p)     0.00066    -0.00003
 182    C 12  dxy    Ryd( 3d)     0.00086     0.00000
 183    C 12  dxz    Ryd( 3d)     0.00055     0.00002
 184    C 12  dyz    Ryd( 3d)     0.00049     0.00017
 185    C 12  dx2y2  Ryd( 3d)     0.00094    -0.00001
 186    C 12  dz2    Ryd( 3d)     0.00057     0.00001

 187    C 13  s      Cor( 1s)     1.99994     0.00000
 188    C 13  s      Val( 2s)     0.94491     0.00346
 189    C 13  s      Ryd( 3s)     0.00116     0.00000
 190    C 13  px     Val( 2p)     1.07457     0.00155
 191    C 13  px     Ryd( 3p)     0.00390     0.00002
[...]
                                                     218(g),139(v),172(v),75(r)
                                                     174(v),176(v),220(g),63(r)
   32. BD ( 1)Br  1- C  2       0.99160    -0.79781  74(v),67(v),116(v),152(v)
   33. BD ( 1) C  2- C  3       0.99017    -0.87864  66(g),67(g),77(v),71(v)
                                                     69(g),126(v),152(v),125(v)
                                                     153(v)
   34. BD ( 1) C  2- C  7       0.98904    -0.87514  76(v),74(g),65(g),143(v)
                                                     69(v),77(g),116(v)
   35. BD ( 1) C  3- C  4       0.98568    -0.84994  64(v),73(v),134(v),70(g)
                                                     65(g),108(v),69(g),71(g)
                                                     107(v)
   36. BD ( 2) C  3- C  4       0.85779    -0.47908  61(v),62(v),137(v),109(v)
                                                     110(v),118(g)
   37. BD ( 1) C  3- H 15       0.98856    -0.72505  66(v),70(v),64(v),108(v)
                                                     67(g),65(g),71(v),125(v)
   38. BD ( 1) C  4- C  5       0.98727    -0.86073  72(g),73(g),67(g),76(v)
                                                     69(v),117(v),71(g),116(v)
                                                     215(v),83(v),143(v)
   39. BD ( 1) C  4- H 16       0.98939    -0.72980  72(v),65(v),67(g),70(g)
                                                     116(v),69(v)
   40. BD ( 1) C  5- C  6       0.98208    -0.84040  70(g),91(v),74(g),77(v)
                                                     71(v),73(g),76(g),125(v)
                                                     215(v),152(v),153(v),216(v)
                                                     79(v),80(v),161(v),162(v)
                                                     78(v)
   41. BD ( 1) C  5- C 14       0.98354    -0.81613  70(g),74(v),91(g),81(v)
                                                     72(g),83(g),67(v),88(v)
                                                     206(v),125(v),170(v),143(v)
                                                     144(v),171(v)
   42. BD ( 1) C  6- C  7       0.98447    -0.85708  64(v),72(g),66(g),76(g)
                                                     73(v),77(g),107(v),108(v)
                                                     135(v),161(v),78(v)
   43. BD ( 2) C  6- C  7       0.84033    -0.47746  61(v),62(v),79(v),80(v)
                                                     109(v),138(v),163(v),154(g)
                                                     110(v),75(g)
   44. BD ( 1) C  6- C  8       0.98610    -0.78863  81(v),70(v),74(g),66(v)
                                                     72(g),171(v),152(v),78(g)
                                                     135(v),79(g),80(g),153(v)
                                                     73(v)
   45. BD ( 1) C  7- H 17       0.98850    -0.72634  72(v),65(v),108(v),74(g)
                                                     64(v),66(g),143(v)
   46. BD ( 1) C  8- C  9       0.98643    -0.78438  74(v),91(v),81(g),84(v)
                                                     83(g),179(v),144(v),76(g)
                                                     79(g),80(g),216(v),73(v)
   47. BD ( 1) C  8- H 18       0.97817    -0.70143  82(v),75(v),72(v),83(v)
                                                     145(v),172(v)
   48. BD ( 1) C  8- H 19       0.97817    -0.70143  82(v),75(v),72(v),83(v)
                                                     145(v),172(v)
   49. BD ( 1) C  9- C 10       0.98741    -0.84628  83(g),78(g),84(g),73(v)
                                                     87(v),85(g),188(v),216(v)
                                                     189(v),161(v),76(v)
   50. BD ( 2) C  9- C 10       0.82357    -0.46077  63(v),192(v),79(v),80(v)
                                                     218(v),82(g),163(v),190(v)
                                                     183(g)
   51. BD ( 1) C  9- C 14       0.98188    -0.83128  91(g),70(v),81(g),85(v)
                                                     92(v),73(g),179(v),78(g)
                                                     206(v),134(v),79(v),80(v)
                                                     135(v),161(v),162(v),76(v)
   52. BD ( 1) C 10- C 11       0.98876    -0.83692  78(v),81(g),90(v),170(v)
                                                     86(g),85(g),197(v),87(g)
                                                     198(v)
   53. BD ( 1) C 10- H 20       0.98991    -0.71355  83(v),86(v),81(g),170(v)
                                                     188(v),84(g),87(v)
   54. BD ( 1) C 11- C 12       0.98997    -0.83962  92(v),85(v),88(g),84(g)
                                                     180(v),207(v),90(g),87(g)
                                                     179(v),206(v)
   55. BD ( 1) C 11- H 21       0.99000    -0.71551  88(v),81(v),197(v),85(v)
                                                     90(v),179(v),86(g),84(g)
   56. BD ( 1) C 12- C 13       0.98869    -0.83721  73(v),215(v),91(g),87(v)
                                                     86(g),92(g),90(g),188(v)
                                                     189(v)
   57. BD ( 2) C 12- C 13       0.84934    -0.46349  63(v),192(v),219(v),190(v)
                                                     200(g),62(r)
   58. BD ( 1) C 12- H 22       0.98987    -0.71054  91(v),84(v),188(v),88(g)
                                                     92(v),87(v),206(v),86(g)
   59. BD ( 1) C 13- C 14       0.98708    -0.85009  83(g),73(g),88(g),90(v)
                                                     78(v),197(v),92(g),198(v)
                                                     134(v),72(v),170(v)
   60. BD ( 1) C 13- H 23       0.98998    -0.72104  83(v),86(v),88(g),197(v)
                                                     91(g),90(v)
 ------ non-Lewis ----------------------------------
   61. LV ( 1) C  2             0.37047    -0.26730
   62. LV ( 1) C  5             0.39014    -0.24613
   63. LV ( 1) C 11             0.31918    -0.20675
   64. BD*( 1)Br  1- C  2       0.01355     0.03776
   65. BD*( 1) C  2- C  3       0.01299     0.47971
   66. BD*( 1) C  2- C  7       0.01256     0.48025
   67. BD*( 1) C  3- C  4       0.00779     0.49748
   68. BD*( 2) C  3- C  4       0.04956    -0.04909
   69. BD*( 1) C  3- H 15       0.00651     0.41957
   70. BD*( 1) C  4- C  5       0.01219     0.49667
   71. BD*( 1) C  4- H 16       0.00665     0.40863
   72. BD*( 1) C  5- C  6       0.01479     0.47286
   73. BD*( 1) C  5- C 14       0.01681     0.40070
   74. BD*( 1) C  6- C  7       0.01237     0.50971
   75. BD*( 2) C  6- C  7       0.07076    -0.04842
   76. BD*( 1) C  6- C  8       0.00942     0.34752
   77. BD*( 1) C  7- H 17       0.00719     0.40840
   78. BD*( 1) C  8- C  9       0.00974     0.35191
   79. BD*( 1) C  8- H 18       0.00629     0.39297
   80. BD*( 1) C  8- H 19       0.00629     0.39297
   81. BD*( 1) C  9- C 10       0.01166     0.52036
   82. BD*( 2) C  9- C 10       0.08831    -0.04222
   83. BD*( 1) C  9- C 14       0.01504     0.48123
   84. BD*( 1) C 10- C 11       0.00723     0.50828
   85. BD*( 1) C 10- H 20       0.00698     0.42318
   86. BD*( 1) C 11- C 12       0.00764     0.50802
   87. BD*( 1) C 11- H 21       0.00623     0.43331
   88. BD*( 1) C 12- C 13       0.00724     0.51058
   89. BD*( 2) C 12- C 13       0.06543    -0.04070
   90. BD*( 1) C 12- H 22       0.00636     0.43589
   91. BD*( 1) C 13- C 14       0.01237     0.50483
   92. BD*( 1) C 13- H 23       0.00684     0.41632
   93. RY ( 1)Br  1             0.00060     0.63335
   94. RY ( 2)Br  1             0.00055     0.54079
   95. RY ( 3)Br  1             0.00014     0.51343
   96. RY ( 4)Br  1             0.00005     0.86697
   97. RY ( 5)Br  1             0.00002     0.47847
   98. RY ( 6)Br  1             0.00001     0.74012
   99. RY ( 7)Br  1             0.00000     0.89335
  100. RY ( 8)Br  1             0.00000     0.77174
  101. RY ( 9)Br  1             0.00000     3.44124
  102. RY (10)Br  1             0.00000     0.93155
  103. RY (11)Br  1             0.00000     3.29784
  104. RY (12)Br  1             0.00000     3.37142
  105. RY (13)Br  1             0.00000     3.50375
  106. RY (14)Br  1             0.00000     3.07704
  107. RY ( 1) C  2             0.00380     0.70693
  108. RY ( 2) C  2             0.00346     1.01795
  109. RY ( 3) C  2             0.00173     0.89317
  110. RY ( 4) C  2             0.00043     1.83337
  111. RY ( 5) C  2             0.00040     0.50592
  112. RY ( 6) C  2             0.00026     2.20867
  113. RY ( 7) C  2             0.00016     1.99609
  114. RY ( 8) C  2             0.00000     1.32854
  115. RY ( 9) C  2             0.00000     2.09882
  116. RY ( 1) C  3             0.00333     1.04864
  117. RY ( 2) C  3             0.00138     0.64858
  118. RY ( 3) C  3             0.00052     0.66002
  119. RY ( 4) C  3             0.00044     0.54064
  120. RY ( 5) C  3             0.00008     2.26697
  121. RY ( 6) C  3             0.00007     1.68497
  122. RY ( 7) C  3             0.00002     2.24158
  123. RY ( 8) C  3             0.00001     1.77960
  124. RY ( 9) C  3             0.00000     2.12250
  125. RY ( 1) C  4             0.00291     1.08907
  126. RY ( 2) C  4             0.00130     0.67652
  127. RY ( 3) C  4             0.00062     0.79347
  128. RY ( 4) C  4             0.00023     0.63652
  129. RY ( 5) C  4             0.00008     1.59541
  130. RY ( 6) C  4             0.00004     2.19145
  131. RY ( 7) C  4             0.00001     2.27801
  132. RY ( 8) C  4             0.00000     1.78202
  133. RY ( 9) C  4             0.00000     2.14799
  134. RY ( 1) C  5             0.00281     1.05813
  135. RY ( 2) C  5             0.00170     1.26008
  136. RY ( 3) C  5             0.00091     0.58824
  137. RY ( 4) C  5             0.00043     1.37627
  138. RY ( 5) C  5             0.00034     1.41405
  139. RY ( 6) C  5             0.00010     1.40832
  140. RY ( 7) C  5             0.00007     2.31432
  141. RY ( 8) C  5             0.00004     2.05541
  142. RY ( 9) C  5             0.00001     2.12923
  143. RY ( 1) C  6             0.00258     1.14425
  144. RY ( 2) C  6             0.00186     1.01587
  145. RY ( 3) C  6             0.00103     0.89669
  146. RY ( 4) C  6             0.00040     0.66404
  147. RY ( 5) C  6             0.00028     1.79753
  148. RY ( 6) C  6             0.00011     2.23812
  149. RY ( 7) C  6             0.00008     1.55574
  150. RY ( 8) C  6             0.00003     2.13745
  151. RY ( 9) C  6             0.00000     2.12282
  152. RY ( 1) C  7             0.00352     1.05850
  153. RY ( 2) C  7             0.00175     0.62824
  154. RY ( 3) C  7             0.00049     0.55432
  155. RY ( 4) C  7             0.00041     0.57997
  156. RY ( 5) C  7             0.00008     1.77490
  157. RY ( 6) C  7             0.00004     2.22851
  158. RY ( 7) C  7             0.00002     1.81021
  159. RY ( 8) C  7             0.00001     2.25247
  160. RY ( 9) C  7             0.00000     2.12660
  161. RY ( 1) C  8             0.00173     0.54964
  162. RY ( 2) C  8             0.00146     0.62777
  163. RY ( 3) C  8             0.00097     0.99029
  164. RY ( 4) C  8             0.00045     0.95182
  165. RY ( 5) C  8             0.00013     1.92424
  166. RY ( 6) C  8             0.00003     2.07756
  167. RY ( 7) C  8             0.00001     2.19665
  168. RY ( 8) C  8             0.00001     2.07948
  169. RY ( 9) C  8             0.00000     2.11744
  170. RY ( 1) C  9             0.00240     1.16959
  171. RY ( 2) C  9             0.00186     1.00743
  172. RY ( 3) C  9             0.00103     0.90412
  173. RY ( 4) C  9             0.00047     0.68393
  174. RY ( 5) C  9             0.00032     1.76568
  175. RY ( 6) C  9             0.00010     2.22825
  176. RY ( 7) C  9             0.00008     1.59767
  177. RY ( 8) C  9             0.00003     2.10729
  178. RY ( 9) C  9             0.00000     2.13769
  179. RY ( 1) C 10             0.00307     1.09161
  180. RY ( 2) C 10             0.00125     0.68332
  181. RY ( 3) C 10             0.00032     0.53929
  182. RY ( 4) C 10             0.00030     0.58044
  183. RY ( 5) C 10             0.00011     1.85173
  184. RY ( 6) C 10             0.00004     2.21881
  185. RY ( 7) C 10             0.00001     2.26903
  186. RY ( 8) C 10             0.00000     2.18017
  187. RY ( 9) C 10             0.00000     1.81002
  188. RY ( 1) C 11             0.00269     1.13495
  189. RY ( 2) C 11             0.00113     0.64890
  190. RY ( 3) C 11             0.00036     1.84490
  191. RY ( 4) C 11             0.00034     0.62028
  192. RY ( 5) C 11             0.00011     0.58389
  193. RY ( 6) C 11             0.00007     2.29610
  194. RY ( 7) C 11             0.00002     2.16018
  195. RY ( 8) C 11             0.00000     2.15059
  196. RY ( 9) C 11             0.00000     1.75713
  197. RY ( 1) C 12             0.00271     1.12916
  198. RY ( 2) C 12             0.00118     0.65065
  199. RY ( 3) C 12             0.00032     0.60499
  200. RY ( 4) C 12             0.00028     0.70594
  201. RY ( 5) C 12             0.00013     1.71472
  202. RY ( 6) C 12             0.00006     2.30023
  203. RY ( 7) C 12             0.00002     2.19480
  204. RY ( 8) C 12             0.00000     2.14971
  205. RY ( 9) C 12             0.00000     1.77022
  206. RY ( 1) C 13             0.00280     1.09116
  207. RY ( 2) C 13             0.00127     0.69315
  208. RY ( 3) C 13             0.00064     0.84474
  209. RY ( 4) C 13             0.00032     0.58216
  210. RY ( 5) C 13             0.00011     1.55240
  211. RY ( 6) C 13             0.00004     2.21399
  212. RY ( 7) C 13             0.00001     2.29865
  213. RY ( 8) C 13             0.00000     2.15525
  214. RY ( 9) C 13             0.00000     1.79493
  215. RY ( 1) C 14             0.00288     1.05994
  216. RY ( 2) C 14             0.00176     1.25567
  217. RY ( 3) C 14             0.00089     0.58619
  218. RY ( 4) C 14             0.00039     0.79771
  219. RY ( 5) C 14             0.00038     1.74250
  220. RY ( 6) C 14             0.00010     1.67785
  221. RY ( 7) C 14             0.00007     2.32829
  222. RY ( 8) C 14             0.00003     2.06920
  223. RY ( 9) C 14             0.00001     2.13328
  224. RY ( 1) H 15             0.00068     0.29344
  225. RY ( 2) H 15             0.00006     1.60115
  226. RY ( 3) H 15             0.00003     2.16616
  227. RY ( 4) H 15             0.00001     2.06776
  228. RY ( 1) H 16             0.00062     0.30781
  229. RY ( 2) H 16             0.00006     1.59665
  230. RY ( 3) H 16             0.00003     2.29874
  231. RY ( 4) H 16             0.00001     1.94246
  232. RY ( 1) H 17             0.00067     0.30044
  233. RY ( 2) H 17             0.00007     1.61185
  234. RY ( 3) H 17             0.00003     2.18892
  235. RY ( 4) H 17             0.00002     2.06116
  236. RY ( 1) H 18             0.00064     0.30879
  237. RY ( 2) H 18             0.00004     1.86809
  238. RY ( 3) H 18             0.00004     1.71680
  239. RY ( 4) H 18             0.00001     2.20672
  240. RY ( 1) H 19             0.00064     0.30879
  241. RY ( 2) H 19             0.00004     1.86809
  242. RY ( 3) H 19             0.00004     1.71680
  243. RY ( 4) H 19             0.00001     2.20673
  244. RY ( 1) H 20             0.00059     0.30278
  245. RY ( 2) H 20             0.00007     1.61473
  246. RY ( 3) H 20             0.00002     2.29974
  247. RY ( 4) H 20             0.00001     1.94836
  248. RY ( 1) H 21             0.00063     0.29394
  249. RY ( 2) H 21             0.00003     1.59818
  250. RY ( 3) H 21             0.00002     2.31540
  251. RY ( 4) H 21             0.00001     1.90900
  252. RY ( 1) H 22             0.00060     0.29711
  253. RY ( 2) H 22             0.00006     1.60483
  254. RY ( 3) H 22             0.00002     2.32236
  255. RY ( 4) H 22             0.00001     1.91533
  256. RY ( 1) H 23             0.00064     0.31619
  257. RY ( 2) H 23             0.00006     1.60458
  258. RY ( 3) H 23             0.00003     2.30107
  259. RY ( 4) H 23             0.00001     1.94846
          -------------------------------
                 Total Lewis   58.31779  ( 97.1963%)
           Valence non-Lewis    1.59657  (  2.6609%)
           Rydberg non-Lewis    0.08565  (  0.1427%)
          -------------------------------
               Total unit  1   60.00000  (100.0000%)
              Charge unit  1    1.00000

 $CHOOSE
  ALPHA
   LONE 1 3 END
   BOND S 1 2 S 2 3 D 2 7 D 3 4 S 3 15 S 4 5 S 4 16 D 5 6 S 5 14 S 6 7 S 6 8
        S 7 17 S 8 9 S 8 18 S 8 19 S 9 10 D 9 14 D 10 11 S 10 20 S 11 12
        S 11 21 D 12 13 S 12 22 S 13 14 S 13 23 END
  END
  BETA
   LONE 1 3 14 1 END
   BOND S 1 2 S 2 3 S 2 7 D 3 4 S 3 15 S 4 5 S 4 16 S 5 6 S 5 14 D 6 7 S 6 8
        S 7 17 S 8 9 S 8 18 S 8 19 D 9 10 S 9 14 S 10 11 S 10 20 S 11 12
        S 11 21 D 12 13 S 12 22 S 13 14 S 13 23 END
  END
 $END

 NBO analysis completed in 2.03 CPU seconds (2 wall seconds)
 Maximum scratch memory used by NBO was 1089855 words (8.31 MB)
 Maximum scratch memory used by G16NBO was 144009 words (1.10 MB)

 Opening RunExU unformatted file "/home/rpaton/opt/dzvp/fukui/Gau-1729372.EUF"
 Read unf file /home/rpaton/opt/dzvp/fukui/Gau-1729372.EUF:
 Label Gaussian matrix elements                                         IVers= 2 NLab= 2 Version=ES64L-G16RevC.01
 Title arbr34_wb97xd_popncreated by GaussianPrep                       
 NAtoms=    23 NBasis=   259 NBsUse=   259 ICharg=     1 Multip=     2 NE=   121 Len12L=8 Len4L=8 IOpCl= 1 ICGU=112
 GAUSSIAN SCALARS                    NI= 1 NR= 1 NTot=       1 LenBuf=    2 NRI=1 N=    1000
 NPA CHARGES                         NI= 0 NR= 1 NTot=      23 LenBuf= 2048 NRI=1 N=      23
 Recovered energy= -3073.90743394     dipole=      2.347532370522      0.053064971201      0.000001889621
 Unable to Open any file for archive entry.
 1\1\GINC-DYNAMO\SP\UwB97XD\def2SVP\C13H9Br1(1+,2)\RPATON\27-Sep-2024\0
 \\# pop=(nbo6,hirshfeld) wb97xd/def2svp\\arbr34_wb97xd_popncreated by 
 GaussianPrep\\1,2\Br,0,3.832292,-0.112738,-0.000001\C,0,1.955577,0.143
 382,0.000003\C,0,1.444482,1.443484,0.000001\C,0,0.065161,1.645215,0.00
 0001\C,0,-0.784325,0.540792,0.000001\C,0,-0.256555,-0.762172,0.000001\
 C,0,1.116555,-0.972986,0.000003\C,0,-1.37428,-1.777081,-0.000002\C,0,-
 2.61136,-0.91072,0.000001\C,0,-3.950585,-1.283392,0.000002\C,0,-4.9298
 68,-0.28716,-0.000001\C,0,-4.57173,1.063936,0.000001\C,0,-3.229545,1.4
 42857,-0.000003\C,0,-2.252172,0.448808,-0.000002\H,0,2.126916,2.294546
 ,-0.000001\H,0,-0.334429,2.661602,-0.000001\H,0,1.537161,-1.980207,0.0
 00002\H,0,-1.330937,-2.432411,-0.885757\H,0,-1.330939,-2.432413,0.8857
 5\H,0,-4.236777,-2.338007,0.000001\H,0,-5.985756,-0.566295,-0.000001\H
 ,0,-5.350569,1.829566,0.000001\H,0,-2.953031,2.499653,-0.000001\\Versi
 on=ES64L-G16RevC.01\State=2-A\HF=-3073.9074339\S2=0.781498\S2-1=0.\S2A
 =0.750672\RMSD=8.705e-09\Dipole=-2.3475324,0.0530651,-0.0000019\Quadru
 pole=24.171181,-3.2845716,-20.8866093,0.9155585,-0.0000009,0.0000037\P
 G=C01 [X(C13H9Br1)]\\@
 The archive entry for this job was punched.


 ALL MY ATTEMPTS TO ADAPT THE THEORETICAL FOUNDATIONS OF PHYSICS
 TO THESE NEW NOTIONS FAILED COMPLETELY. IT WAS AS IF THE GROUND HAD
 BEEN PULLED OUT FROM UNDER ONE WITH NO FIRM FOUNDATION TO BE SEEN ANYWHERE,
 UPON WHICH ONE COULD HAVE BUILT.  -- A.EINSTEIN
 Job cpu time:       0 days  0 hours 20 minutes 46.6 seconds.
 Elapsed time:       0 days  0 hours  0 minutes 52.4 seconds.
 File lengths (MBytes):  RWF=     68 Int=      0 D2E=      0 Chk=      6 Scr=      1
 Normal termination of Gaussian 16 at Fri Sep 27 18:22:27 2024.
