 Entering Gaussian System, Link 0=/usr/local/Gaussian/G16C/g16/g16
 Input=arbr79_wb97xd_oxd.com
 Output=arbr79_wb97xd_oxd.log
 Initial command:
 /usr/local/Gaussian/G16C/g16/l1.exe "/home/rpaton/opt/dzvp/fukui/Gau-1851628.inp" -scrdir="/home/rpaton/opt/dzvp/fukui/"
 Entering Link 1 = /usr/local/Gaussian/G16C/g16/l1.exe PID=   1851629.
  
 Copyright (c) 1988-2019, Gaussian, Inc.  All Rights Reserved.
  
 This is part of the Gaussian(R) 16 program.  It is based on
 the Gaussian(R) 09 system (copyright 2009, Gaussian, Inc.),
 the Gaussian(R) 03 system (copyright 2003, Gaussian, Inc.),
 the Gaussian(R) 98 system (copyright 1998, Gaussian, Inc.),
 the Gaussian(R) 94 system (copyright 1995, Gaussian, Inc.),
 the Gaussian 92(TM) system (copyright 1992, Gaussian, Inc.),
 the Gaussian 90(TM) system (copyright 1990, Gaussian, Inc.),
 the Gaussian 88(TM) system (copyright 1988, Gaussian, Inc.),
 the Gaussian 86(TM) system (copyright 1986, Carnegie Mellon
 University), and the Gaussian 82(TM) system (copyright 1983,
 Carnegie Mellon University). Gaussian is a federally registered
 trademark of Gaussian, Inc.
  
 This software contains proprietary and confidential information,
 including trade secrets, belonging to Gaussian, Inc.
  
 This software is provided under written license and may be
 used, copied, transmitted, or stored only in accord with that
 written license.
  
 The following legend is applicable only to US Government
 contracts under FAR:
  
                    RESTRICTED RIGHTS LEGEND
  
 Use, reproduction and disclosure by the US Government is
 subject to restrictions as set forth in subparagraphs (a)
 and (c) of the Commercial Computer Software - Restricted
 Rights clause in FAR 52.227-19.
  
 Gaussian, Inc.
 340 Quinnipiac St., Bldg. 40, Wallingford CT 06492
  
  
 ---------------------------------------------------------------
 Warning -- This program may not be used in any manner that
 competes with the business of Gaussian, Inc. or will provide
 assistance to any competitor of Gaussian, Inc.  The licensee
 of this program is prohibited from giving any competitor of
 Gaussian, Inc. access to this program.  By using this program,
 the user acknowledges that Gaussian, Inc. is engaged in the
 business of creating and licensing software in the field of
 computational chemistry and represents and warrants to the
 licensee that it is not a competitor of Gaussian, Inc. and that
 it will not use this program in any manner prohibited above.
 ---------------------------------------------------------------
  

 Cite this work as:
 Gaussian 16, Revision C.01,
 M. J. Frisch, G. W. Trucks, H. B. Schlegel, G. E. Scuseria, 
 M. A. Robb, J. R. Cheeseman, G. Scalmani, V. Barone, 
 G. A. Petersson, H. Nakatsuji, X. Li, M. Caricato, A. V. Marenich, 
 J. Bloino, B. G. Janesko, R. Gomperts, B. Mennucci, H. P. Hratchian, 
 J. V. Ortiz, A. F. Izmaylov, J. L. Sonnenberg, D. Williams-Young, 
 F. Ding, F. Lipparini, F. Egidi, J. Goings, B. Peng, A. Petrone, 
 T. Henderson, D. Ranasinghe, V. G. Zakrzewski, J. Gao, N. Rega, 
 G. Zheng, W. Liang, M. Hada, M. Ehara, K. Toyota, R. Fukuda, 
 J. Hasegawa, M. Ishida, T. Nakajima, Y. Honda, O. Kitao, H. Nakai, 
 T. Vreven, K. Throssell, J. A. Montgomery, Jr., J. E. Peralta, 
 F. Ogliaro, M. J. Bearpark, J. J. Heyd, E. N. Brothers, K. N. Kudin, 
 V. N. Staroverov, T. A. Keith, R. Kobayashi, J. Normand, 
 K. Raghavachari, A. P. Rendell, J. C. Burant, S. S. Iyengar, 
 J. Tomasi, M. Cossi, J. M. Millam, M. Klene, C. Adamo, R. Cammi, 
 J. W. Ochterski, R. L. Martin, K. Morokuma, O. Farkas, 
 J. B. Foresman, and D. J. Fox, Gaussian, Inc., Wallingford CT, 2019.
 
 ******************************************
 Gaussian 16:  ES64L-G16RevC.01  3-Jul-2019
                27-Sep-2024 
 ******************************************
 %chk=arbr79_wb97xd_popn.chk
 %mem=48GB
 %nprocshared=24
 Will use up to   24 processors via shared memory.
 -------------------------------------
 # pop=(nbo6,hirshfeld) wb97xd/def2svp
 -------------------------------------
 1/38=1,172=1/1;
 2/12=2,17=6,18=5,40=1/2;
 3/5=43,7=101,11=2,25=1,30=1,74=-58/1,2,3;
 4//1;
 5/5=2,38=5/2;
 6/7=2,8=2,9=2,10=2,28=1,40=1,79=1,113=1,114=1,124=3103,126=1/1,12;
 99/5=1,9=1/99;
 -----------------------------------------
 arbr79_wb97xd_popncreated by GaussianPrep
 -----------------------------------------
 Symbolic Z-matrix:
 Charge =  1 Multiplicity = 2
 C                    -3.96837   1.38768  -0.13211 
 C                    -3.10276   0.38019   0.01247 
 C                    -3.4503   -1.08833   0.19873 
 C                    -2.15291  -1.86749  -0.10701 
 C                    -1.07285  -0.81517  -0.03474 
 C                     0.30734  -0.99454  -0.04259 
 C                     1.12144   0.13711  -0.00058 
 Br                    3.00319  -0.07547  -0.00064 
 C                     0.58129   1.42583   0.04519 
 C                    -0.80086   1.59245   0.05146 
 C                    -1.62875   0.46951   0.01323 
 H                    -3.63      2.41912  -0.25746 
 H                    -5.04699   1.21302  -0.13321 
 H                    -3.75     -1.25189   1.24713 
 H                    -4.29766  -1.39805  -0.42879 
 H                    -2.1781   -2.30434  -1.11931 
 H                    -1.9766   -2.69768   0.59278 
 H                     0.74852  -1.99225  -0.08035 
 H                     1.24378   2.29175   0.08138 
 H                    -1.22442   2.59823   0.09582 
 
                          Input orientation:                          
 ---------------------------------------------------------------------
 Center     Atomic      Atomic             Coordinates (Angstroms)
 Number     Number       Type             X           Y           Z
 ---------------------------------------------------------------------
      1          6           0       -3.968366    1.387681   -0.132112
      2          6           0       -3.102758    0.380186    0.012471
      3          6           0       -3.450303   -1.088332    0.198733
      4          6           0       -2.152911   -1.867494   -0.107012
      5          6           0       -1.072845   -0.815174   -0.034740
      6          6           0        0.307337   -0.994541   -0.042587
      7          6           0        1.121438    0.137114   -0.000584
      8         35           0        3.003194   -0.075465   -0.000636
      9          6           0        0.581294    1.425830    0.045187
     10          6           0       -0.800856    1.592445    0.051456
     11          6           0       -1.628752    0.469514    0.013230
     12          1           0       -3.630004    2.419117   -0.257460
     13          1           0       -5.046992    1.213015   -0.133205
     14          1           0       -3.750003   -1.251890    1.247129
     15          1           0       -4.297658   -1.398048   -0.428792
     16          1           0       -2.178101   -2.304339   -1.119306
     17          1           0       -1.976595   -2.697676    0.592778
     18          1           0        0.748515   -1.992248   -0.080349
     19          1           0        1.243776    2.291745    0.081375
     20          1           0       -1.224417    2.598232    0.095820
 ---------------------------------------------------------------------
                    Distance matrix (angstroms):
                    1          2          3          4          5
     1  C    0.000000
     2  C    1.336124   0.000000
     3  C    2.551174   1.520535   0.000000
     4  C    3.727287   2.443062   1.543956   0.000000
     5  C    3.639518   2.356196   2.404461   1.509683   0.000000
     6  C    4.895368   3.677180   3.766549   2.611325   1.391810
     7  C    5.242835   4.231204   4.737326   3.840721   2.392258
     8  Br   7.124657   6.122944   6.535539   5.459680   4.142756
     9  C    4.553273   3.829710   4.753773   4.283109   2.786515
    10  C    3.179425   2.601892   3.771979   3.718110   2.424466
    11  C    2.517528   1.476710   2.404027   2.398084   1.400627
    12  H    1.092731   2.123226   3.541554   4.536460   4.129080
    13  H    1.092677   2.120111   2.820602   4.226810   4.462857
    14  H    2.986189   2.146387   1.102590   2.182514   3.000181
    15  H    2.820769   2.187376   1.098964   2.218978   3.300672
    16  H    4.220262   3.056564   2.198726   1.102818   2.148368
    17  H    4.602473   3.328398   2.217448   1.099998   2.180449
    18  H    5.803065   4.524308   4.304071   2.904229   2.169086
    19  H    5.294274   4.748807   5.785592   5.373290   3.877262
    20  H    3.007764   2.907721   4.307658   4.565737   3.419263
                    6          7          8          9         10
     6  C    0.000000
     7  C    1.394693   0.000000
     8  Br   2.848527   1.893725   0.000000
     9  C    2.437407   1.398084   2.849840   0.000000
    10  C    2.815925   2.411620   4.153966   1.392170   0.000000
    11  C    2.427965   2.770239   4.663917   2.408291   1.395653
    12  H    5.215543   5.277284   7.091418   4.337424   2.963595
    13  H    5.792267   6.262961   8.153726   5.635132   4.267053
    14  H    4.265162   5.216997   6.967536   5.232111   4.268178
    15  H    4.638745   5.648600   7.432024   5.657130   4.626155
    16  H    3.008703   4.254314   5.750228   4.783771   4.295627
    17  H    2.919024   4.240981   5.659190   4.883232   4.481130
    18  H    1.091551   2.163242   2.960403   3.424468   3.907422
    19  H    3.419351   2.159657   2.950586   1.090872   2.161119
    20  H    3.908125   3.401387   5.003064   2.153528   1.092236
                   11         12         13         14         15
    11  C    0.000000
    12  H    2.806997   0.000000
    13  H    3.501229   1.864933   0.000000
    14  H    2.997573   3.969191   3.108578   0.000000
    15  H    3.287283   3.878900   2.732494   1.769180   0.000000
    16  H    3.046093   5.016158   4.644858   3.029610   2.406386
    17  H    3.238512   5.444101   5.024728   2.379800   2.849556
    18  H    3.423511   6.217953   6.623021   4.748367   5.092970
    19  H    3.402438   4.887204   6.386193   6.233311   6.677000
    20  H    2.168351   2.437978   4.072267   4.746318   5.068558
                   16         17         18         19         20
    16  H    0.000000
    17  H    1.768205   0.000000
    18  H    3.121204   2.894297   0.000000
    19  H    5.854474   5.960423   4.315557   0.000000
    20  H    5.140160   5.372093   4.999600   2.487191   0.000000
 Stoichiometry    C10H9Br(1+,2)
 Framework group  C1[X(C10H9Br)]
 Deg. of freedom    54
 Full point group                 C1      NOp   1
 Largest Abelian subgroup         C1      NOp   1
 Largest concise Abelian subgroup C1      NOp   1
                         Standard orientation:                         
 ---------------------------------------------------------------------
 Center     Atomic      Atomic             Coordinates (Angstroms)
 Number     Number       Type             X           Y           Z
 ---------------------------------------------------------------------
      1          6           0       -3.968366    1.387681   -0.132112
      2          6           0       -3.102758    0.380186    0.012471
      3          6           0       -3.450303   -1.088332    0.198733
      4          6           0       -2.152911   -1.867494   -0.107012
      5          6           0       -1.072845   -0.815174   -0.034740
      6          6           0        0.307337   -0.994541   -0.042587
      7          6           0        1.121438    0.137114   -0.000584
      8         35           0        3.003194   -0.075465   -0.000636
      9          6           0        0.581294    1.425830    0.045187
     10          6           0       -0.800856    1.592445    0.051456
     11          6           0       -1.628752    0.469514    0.013230
     12          1           0       -3.630004    2.419117   -0.257460
     13          1           0       -5.046992    1.213015   -0.133205
     14          1           0       -3.750003   -1.251890    1.247129
     15          1           0       -4.297658   -1.398048   -0.428792
     16          1           0       -2.178101   -2.304339   -1.119306
     17          1           0       -1.976595   -2.697676    0.592778
     18          1           0        0.748515   -1.992248   -0.080349
     19          1           0        1.243776    2.291745    0.081375
     20          1           0       -1.224417    2.598232    0.095820
 ---------------------------------------------------------------------
 Rotational constants (GHZ):           2.4899512           0.3698631           0.3238416
 Standard basis: def2SVP (5D, 7F)
 There are   230 symmetry adapted cartesian basis functions of A   symmetry.
 There are   217 symmetry adapted basis functions of A   symmetry.
   217 basis functions,   393 primitive gaussians,   230 cartesian basis functions
    52 alpha electrons       51 beta electrons
       nuclear repulsion energy       784.4421361515 Hartrees.
 NAtoms=   20 NActive=   20 NUniq=   20 SFac= 1.00D+00 NAtFMM=   60 NAOKFM=F Big=F
 Integral buffers will be    131072 words long.
 Raffenetti 2 integral format.
 Two-electron integral symmetry is turned on.
 Nuclear repulsion after empirical dispersion term =      784.4298281738 Hartrees.
 One-electron integrals computed using PRISM.
   1 Symmetry operations used in ECPInt.
 ECPInt:  NShTT=    4950 NPrTT=   19307 LenC2=    4743 LenP2D=   13969.
 LDataN:  DoStor=T MaxTD1= 4 Len=   56
 NBasis=   217 RedAO= T EigKep=  2.60D-04  NBF=   217
 NBsUse=   217 1.00D-06 EigRej= -1.00D+00 NBFU=   217
 ExpMin= 1.22D-01 ExpMax= 1.13D+05 ExpMxC= 1.70D+04 IAcc=3 IRadAn=         5 AccDes= 0.00D+00
 Harris functional with IExCor= 4639 and IRadAn=       5 diagonalized for initial guess.
 HarFok:  IExCor= 4639 AccDes= 0.00D+00 IRadAn=         5 IDoV= 1 UseB2=F ITyADJ=14
 ICtDFT=  3500011 ScaDFX=  1.000000  1.000000  1.000000  1.000000
 FoFCou: FMM=F IPFlag=           0 FMFlag=      100000 FMFlg1=           0
         NFxFlg=           0 DoJE=T BraDBF=F KetDBF=T FulRan=T
         wScrn=  0.000000 ICntrl=       500 IOpCl=  0 I1Cent=   200000004 NGrid=           0
         NMat0=    1 NMatS0=      1 NMatT0=    0 NMatD0=    1 NMtDS0=    0 NMtDT0=    0
 Petite list used in FoFCou.
 Initial guess <Sx>= 0.0000 <Sy>= 0.0000 <Sz>= 0.5000 <S**2>= 0.7500 S= 0.5000
 Requested convergence on RMS density matrix=1.00D-08 within 128 cycles.
 Requested convergence on MAX density matrix=1.00D-06.
 Requested convergence on             energy=1.00D-06.
 No special actions if energy rises.
 Integral accuracy reduced to 1.0D-05 until final iterations.
 Initial convergence to 1.0D-05 achieved.  Increase integral accuracy.
 SCF Done:  E(UwB97XD) =  -2959.67744374     A.U. after   26 cycles
            NFock= 26  Conv=0.72D-08     -V/T= 2.0024
 <Sx>= 0.0000 <Sy>= 0.0000 <Sz>= 0.5000 <S**2>= 0.7866 S= 0.5181
 <L.S>= 0.000000000000E+00
 Annihilation of the first spin contaminant:
 S**2 before annihilation     0.7866,   after     0.7505

 **********************************************************************

            Population analysis using the SCF Density.

 **********************************************************************

 Orbital symmetries:
 Alpha Orbitals:
       Occupied  (A) (A) (A) (A) (A) (A) (A) (A) (A) (A) (A) (A)
                 (A) (A) (A) (A) (A) (A) (A) (A) (A) (A) (A) (A)
                 (A) (A) (A) (A) (A) (A) (A) (A) (A) (A) (A) (A)
                 (A) (A) (A) (A) (A) (A) (A) (A) (A) (A) (A) (A)
                 (A) (A) (A) (A)
       Virtual   (A) (A) (A) (A) (A) (A) (A) (A) (A) (A) (A) (A)
                 (A) (A) (A) (A) (A) (A) (A) (A) (A) (A) (A) (A)
                 (A) (A) (A) (A) (A) (A) (A) (A) (A) (A) (A) (A)
                 (A) (A) (A) (A) (A) (A) (A) (A) (A) (A) (A) (A)
                 (A) (A) (A) (A) (A) (A) (A) (A) (A) (A) (A) (A)
                 (A) (A) (A) (A) (A) (A) (A) (A) (A) (A) (A) (A)
                 (A) (A) (A) (A) (A) (A) (A) (A) (A) (A) (A) (A)
                 (A) (A) (A) (A) (A) (A) (A) (A) (A) (A) (A) (A)
                 (A) (A) (A) (A) (A) (A) (A) (A) (A) (A) (A) (A)
                 (A) (A) (A) (A) (A) (A) (A) (A) (A) (A) (A) (A)
                 (A) (A) (A) (A) (A) (A) (A) (A) (A) (A) (A) (A)
                 (A) (A) (A) (A) (A) (A) (A) (A) (A) (A) (A) (A)
                 (A) (A) (A) (A) (A) (A) (A) (A) (A) (A) (A) (A)
                 (A) (A) (A) (A) (A) (A) (A) (A) (A)
 Beta  Orbitals:
       Occupied  (A) (A) (A) (A) (A) (A) (A) (A) (A) (A) (A) (A)
                 (A) (A) (A) (A) (A) (A) (A) (A) (A) (A) (A) (A)
                 (A) (A) (A) (A) (A) (A) (A) (A) (A) (A) (A) (A)
                 (A) (A) (A) (A) (A) (A) (A) (A) (A) (A) (A) (A)
                 (A) (A) (A)
       Virtual   (A) (A) (A) (A) (A) (A) (A) (A) (A) (A) (A) (A)
                 (A) (A) (A) (A) (A) (A) (A) (A) (A) (A) (A) (A)
                 (A) (A) (A) (A) (A) (A) (A) (A) (A) (A) (A) (A)
                 (A) (A) (A) (A) (A) (A) (A) (A) (A) (A) (A) (A)
                 (A) (A) (A) (A) (A) (A) (A) (A) (A) (A) (A) (A)
                 (A) (A) (A) (A) (A) (A) (A) (A) (A) (A) (A) (A)
                 (A) (A) (A) (A) (A) (A) (A) (A) (A) (A) (A) (A)
                 (A) (A) (A) (A) (A) (A) (A) (A) (A) (A) (A) (A)
                 (A) (A) (A) (A) (A) (A) (A) (A) (A) (A) (A) (A)
                 (A) (A) (A) (A) (A) (A) (A) (A) (A) (A) (A) (A)
                 (A) (A) (A) (A) (A) (A) (A) (A) (A) (A) (A) (A)
                 (A) (A) (A) (A) (A) (A) (A) (A) (A) (A) (A) (A)
                 (A) (A) (A) (A) (A) (A) (A) (A) (A) (A) (A) (A)
                 (A) (A) (A) (A) (A) (A) (A) (A) (A) (A)
 The electronic state is 2-A.
 Alpha  occ. eigenvalues -- -483.22370 -62.80545 -56.61324 -56.61015 -56.60907
 Alpha  occ. eigenvalues --  -10.54905 -10.51239 -10.51095 -10.50692 -10.50540
 Alpha  occ. eigenvalues --  -10.49584 -10.49337 -10.48507 -10.46850 -10.46770
 Alpha  occ. eigenvalues --   -8.97488  -6.80051  -6.78855  -6.78547  -2.90437
 Alpha  occ. eigenvalues --   -2.90138  -2.89913  -2.88940  -2.88928  -1.17417
 Alpha  occ. eigenvalues --   -1.12009  -1.06080  -1.05434  -1.00211  -0.98620
 Alpha  occ. eigenvalues --   -0.91507  -0.88979  -0.84341  -0.82073  -0.76752
 Alpha  occ. eigenvalues --   -0.74877  -0.72298  -0.71684  -0.70656  -0.68987
 Alpha  occ. eigenvalues --   -0.67071  -0.65889  -0.63040  -0.62252  -0.61565
 Alpha  occ. eigenvalues --   -0.60457  -0.59454  -0.58974  -0.53742  -0.52435
 Alpha  occ. eigenvalues --   -0.50937  -0.48806
 Alpha virt. eigenvalues --   -0.16803  -0.12565  -0.07781  -0.06782   0.00685
 Alpha virt. eigenvalues --    0.01140   0.02756   0.03358   0.03856   0.05557
 Alpha virt. eigenvalues --    0.07255   0.08639   0.09101   0.11453   0.12094
 Alpha virt. eigenvalues --    0.14183   0.14605   0.16475   0.18899   0.20902
 Alpha virt. eigenvalues --    0.22570   0.23758   0.24478   0.25541   0.26454
 Alpha virt. eigenvalues --    0.29373   0.30878   0.33328   0.33845   0.35342
 Alpha virt. eigenvalues --    0.37539   0.38670   0.39080   0.39470   0.40214
 Alpha virt. eigenvalues --    0.40873   0.41941   0.42891   0.43176   0.44192
 Alpha virt. eigenvalues --    0.45576   0.47488   0.48193   0.50933   0.53791
 Alpha virt. eigenvalues --    0.54381   0.54461   0.55275   0.55992   0.56119
 Alpha virt. eigenvalues --    0.57631   0.58017   0.58514   0.58799   0.59977
 Alpha virt. eigenvalues --    0.61012   0.61559   0.62663   0.62696   0.63465
 Alpha virt. eigenvalues --    0.64415   0.65022   0.66496   0.67281   0.69194
 Alpha virt. eigenvalues --    0.70664   0.74108   0.75795   0.77864   0.79521
 Alpha virt. eigenvalues --    0.82312   0.83547   0.88786   0.92000   0.96474
 Alpha virt. eigenvalues --    0.98691   1.03179   1.05468   1.08395   1.10251
 Alpha virt. eigenvalues --    1.11867   1.14263   1.14525   1.17935   1.20065
 Alpha virt. eigenvalues --    1.21926   1.24263   1.29358   1.32005   1.37846
 Alpha virt. eigenvalues --    1.39120   1.45720   1.46890   1.51648   1.52318
 Alpha virt. eigenvalues --    1.56526   1.58479   1.60796   1.60979   1.62873
 Alpha virt. eigenvalues --    1.64154   1.64703   1.64999   1.67980   1.68296
 Alpha virt. eigenvalues --    1.68818   1.71765   1.72786   1.73020   1.74656
 Alpha virt. eigenvalues --    1.76915   1.77132   1.80379   1.83847   1.85421
 Alpha virt. eigenvalues --    1.86178   1.87627   1.89727   1.94237   1.97118
 Alpha virt. eigenvalues --    1.97523   2.01261   2.02919   2.04714   2.06518
 Alpha virt. eigenvalues --    2.10820   2.11756   2.16054   2.17459   2.17617
 Alpha virt. eigenvalues --    2.18594   2.22138   2.22938   2.24977   2.28283
 Alpha virt. eigenvalues --    2.30892   2.31943   2.38672   2.42611   2.46748
 Alpha virt. eigenvalues --    2.48695   2.53040   2.54409   2.55131   2.56225
 Alpha virt. eigenvalues --    2.63915   2.65066   2.69535   2.72565   2.74713
 Alpha virt. eigenvalues --    2.79546   2.80372   2.86007   2.88271   2.91370
 Alpha virt. eigenvalues --    2.95564   3.01453   3.05942   3.22551   3.36519
 Alpha virt. eigenvalues --    3.40217   3.44227   3.45043   3.57075   3.76511
  Beta  occ. eigenvalues -- -483.22340 -62.80524 -56.61314 -56.60940 -56.60892
  Beta  occ. eigenvalues --  -10.54636 -10.51169 -10.50985 -10.50407 -10.50146
  Beta  occ. eigenvalues --  -10.49572 -10.49298 -10.48594 -10.46854 -10.46756
  Beta  occ. eigenvalues --   -8.97450  -6.80043  -6.78740  -6.78531  -2.90414
  Beta  occ. eigenvalues --   -2.90085  -2.89908  -2.88885  -2.88877  -1.16833
  Beta  occ. eigenvalues --   -1.11476  -1.05501  -1.04803  -0.99545  -0.97953
  Beta  occ. eigenvalues --   -0.90899  -0.88667  -0.83957  -0.81784  -0.76326
  Beta  occ. eigenvalues --   -0.74572  -0.71826  -0.71256  -0.70477  -0.68667
  Beta  occ. eigenvalues --   -0.66735  -0.64520  -0.62518  -0.61843  -0.61291
  Beta  occ. eigenvalues --   -0.60199  -0.59267  -0.56587  -0.52266  -0.51048
  Beta  occ. eigenvalues --   -0.49390
  Beta virt. eigenvalues --   -0.29635  -0.13932  -0.11219  -0.07336  -0.04886
  Beta virt. eigenvalues --    0.00944   0.01195   0.03209   0.03489   0.04080
  Beta virt. eigenvalues --    0.05658   0.07962   0.08725   0.09284   0.11657
  Beta virt. eigenvalues --    0.12203   0.14428   0.14845   0.16650   0.19148
  Beta virt. eigenvalues --    0.21135   0.22835   0.23884   0.24647   0.25714
  Beta virt. eigenvalues --    0.26643   0.29413   0.31079   0.33436   0.34040
  Beta virt. eigenvalues --    0.35803   0.37841   0.39111   0.39245   0.40004
  Beta virt. eigenvalues --    0.40767   0.41576   0.42297   0.43480   0.43659
  Beta virt. eigenvalues --    0.44508   0.46063   0.47919   0.48719   0.51345
  Beta virt. eigenvalues --    0.54051   0.54580   0.54764   0.55637   0.56347
  Beta virt. eigenvalues --    0.56356   0.57890   0.58420   0.58751   0.59001
  Beta virt. eigenvalues --    0.60177   0.61316   0.61654   0.62796   0.62839
  Beta virt. eigenvalues --    0.63744   0.64613   0.65279   0.66681   0.67722
  Beta virt. eigenvalues --    0.69368   0.70864   0.74356   0.76110   0.78059
  Beta virt. eigenvalues --    0.79745   0.82472   0.83644   0.88912   0.92213
  Beta virt. eigenvalues --    0.96717   0.98864   1.03625   1.05586   1.08775
  Beta virt. eigenvalues --    1.11267   1.12307   1.14693   1.14870   1.18183
  Beta virt. eigenvalues --    1.20512   1.22186   1.24759   1.29543   1.32135
  Beta virt. eigenvalues --    1.38152   1.39478   1.46121   1.47268   1.51850
  Beta virt. eigenvalues --    1.52382   1.56691   1.58731   1.61142   1.61174
  Beta virt. eigenvalues --    1.63234   1.64544   1.65135   1.65422   1.68322
  Beta virt. eigenvalues --    1.68622   1.68919   1.71907   1.73074   1.73296
  Beta virt. eigenvalues --    1.75053   1.77367   1.77835   1.80728   1.84425
  Beta virt. eigenvalues --    1.86006   1.86412   1.87937   1.90148   1.94691
  Beta virt. eigenvalues --    1.97585   1.98155   2.01566   2.03299   2.05535
  Beta virt. eigenvalues --    2.07348   2.11007   2.12536   2.16805   2.17886
  Beta virt. eigenvalues --    2.18224   2.19034   2.22317   2.23128   2.25310
  Beta virt. eigenvalues --    2.28598   2.31382   2.32426   2.39230   2.43254
  Beta virt. eigenvalues --    2.47245   2.49074   2.53294   2.54652   2.55614
  Beta virt. eigenvalues --    2.56796   2.64175   2.65229   2.69723   2.72924
  Beta virt. eigenvalues --    2.74974   2.79784   2.80920   2.86175   2.88451
  Beta virt. eigenvalues --    2.91535   2.95641   3.01650   3.06180   3.22883
  Beta virt. eigenvalues --    3.36626   3.40322   3.44322   3.45202   3.57089
  Beta virt. eigenvalues --    3.76553
          Condensed to atoms (all electrons):
               1          2          3          4          5          6
     1  C    4.706849   0.607814  -0.065148   0.010408   0.014289  -0.000334
     2  C    0.607814   5.047664   0.362088  -0.067392  -0.050290   0.010105
     3  C   -0.065148   0.362088   4.715221   0.378748  -0.072739   0.014644
     4  C    0.010408  -0.067392   0.378748   4.681244   0.379406  -0.068984
     5  C    0.014289  -0.050290  -0.072739   0.379406   5.252524   0.372023
     6  C   -0.000334   0.010105   0.014644  -0.068984   0.372023   5.007863
     7  C    0.000035   0.000935  -0.001342   0.011163   0.099067   0.275723
     8  Br  -0.000000   0.000016   0.000001  -0.000069   0.003003  -0.065748
     9  C   -0.000101   0.009827   0.000126  -0.001632  -0.105306   0.030759
    10  C   -0.004327  -0.074761   0.008561   0.012516  -0.006554  -0.073254
    11  C   -0.071675   0.320076  -0.086603  -0.096770   0.266350   0.029107
    12  H    0.386738   0.001515   0.007170  -0.000613   0.000225   0.000030
    13  H    0.387359  -0.007102  -0.012647   0.000535  -0.000458   0.000001
    14  H   -0.004095  -0.003701   0.368202  -0.007419  -0.002017  -0.000387
    15  H   -0.005144  -0.013297   0.377634  -0.010882   0.002174  -0.000331
    16  H   -0.000180  -0.000297  -0.010046   0.364541   0.001739  -0.005348
    17  H   -0.000284   0.002395  -0.010550   0.374478  -0.009715  -0.004888
    18  H    0.000003  -0.000371   0.000425  -0.011561  -0.042115   0.442585
    19  H    0.000006  -0.000207   0.000004   0.000013  -0.001259   0.010121
    20  H    0.004529  -0.017820  -0.000006  -0.000213   0.012267  -0.001972
               7          8          9         10         11         12
     1  C    0.000035  -0.000000  -0.000101  -0.004327  -0.071675   0.386738
     2  C    0.000935   0.000016   0.009827  -0.074761   0.320076   0.001515
     3  C   -0.001342   0.000001   0.000126   0.008561  -0.086603   0.007170
     4  C    0.011163  -0.000069  -0.001632   0.012516  -0.096770  -0.000613
     5  C    0.099067   0.003003  -0.105306  -0.006554   0.266350   0.000225
     6  C    0.275723  -0.065748   0.030759  -0.073254   0.029107   0.000030
     7  C    5.305140   0.286261   0.245897   0.069484  -0.145204  -0.000015
     8  Br   0.286261  34.684343  -0.062868   0.002772   0.000560  -0.000000
     9  C    0.245897  -0.062868   4.953141   0.409701   0.075401   0.000308
    10  C    0.069484   0.002772   0.409701   4.981459   0.278173   0.003825
    11  C   -0.145204   0.000560   0.075401   0.278173   5.355512  -0.025359
    12  H   -0.000015  -0.000000   0.000308   0.003825  -0.025359   0.550672
    13  H    0.000001  -0.000000  -0.000008   0.000059   0.010253  -0.029907
    14  H    0.000026  -0.000000   0.000003  -0.000405   0.000152  -0.000223
    15  H    0.000018  -0.000000   0.000005  -0.000205   0.008697  -0.000177
    16  H   -0.000291   0.000003   0.000067  -0.000412   0.000418   0.000012
    17  H   -0.000135  -0.000002   0.000058  -0.000303   0.007498   0.000010
    18  H   -0.054735  -0.000327   0.010401  -0.001520   0.012841   0.000000
    19  H   -0.055807  -0.000359   0.438018  -0.038502   0.011580   0.000004
    20  H    0.012199  -0.000107  -0.049061   0.450025  -0.057558   0.001535
              13         14         15         16         17         18
     1  C    0.387359  -0.004095  -0.005144  -0.000180  -0.000284   0.000003
     2  C   -0.007102  -0.003701  -0.013297  -0.000297   0.002395  -0.000371
     3  C   -0.012647   0.368202   0.377634  -0.010046  -0.010550   0.000425
     4  C    0.000535  -0.007419  -0.010882   0.364541   0.374478  -0.011561
     5  C   -0.000458  -0.002017   0.002174   0.001739  -0.009715  -0.042115
     6  C    0.000001  -0.000387  -0.000331  -0.005348  -0.004888   0.442585
     7  C    0.000001   0.000026   0.000018  -0.000291  -0.000135  -0.054735
     8  Br  -0.000000  -0.000000  -0.000000   0.000003  -0.000002  -0.000327
     9  C   -0.000008   0.000003   0.000005   0.000067   0.000058   0.010401
    10  C    0.000059  -0.000405  -0.000205  -0.000412  -0.000303  -0.001520
    11  C    0.010253   0.000152   0.008697   0.000418   0.007498   0.012841
    12  H   -0.029907  -0.000223  -0.000177   0.000012   0.000010   0.000000
    13  H    0.531492   0.000973   0.003003  -0.000017  -0.000005  -0.000000
    14  H    0.000973   0.550111  -0.010213   0.003362  -0.009163  -0.000009
    15  H    0.003003  -0.010213   0.563843  -0.008752   0.001218  -0.000005
    16  H   -0.000017   0.003362  -0.008752   0.550223  -0.010301   0.000934
    17  H   -0.000005  -0.009163   0.001218  -0.010301   0.558928   0.002147
    18  H   -0.000000  -0.000009  -0.000005   0.000934   0.002147   0.574329
    19  H   -0.000000  -0.000000  -0.000000  -0.000000  -0.000000  -0.000120
    20  H   -0.000019  -0.000001   0.000000   0.000002   0.000006   0.000010
              19         20
     1  C    0.000006   0.004529
     2  C   -0.000207  -0.017820
     3  C    0.000004  -0.000006
     4  C    0.000013  -0.000213
     5  C   -0.001259   0.012267
     6  C    0.010121  -0.001972
     7  C   -0.055807   0.012199
     8  Br  -0.000359  -0.000107
     9  C    0.438018  -0.049061
    10  C   -0.038502   0.450025
    11  C    0.011580  -0.057558
    12  H    0.000004   0.001535
    13  H   -0.000000  -0.000019
    14  H   -0.000000  -0.000001
    15  H   -0.000000   0.000000
    16  H   -0.000000   0.000002
    17  H   -0.000000   0.000006
    18  H   -0.000120   0.000010
    19  H    0.560536  -0.009240
    20  H   -0.009240   0.588676
          Atomic-Atomic Spin Densities.
               1          2          3          4          5          6
     1  C    0.458646   0.055126  -0.005591  -0.000016  -0.001264   0.000034
     2  C    0.055126  -0.063904   0.002045   0.002747  -0.005428   0.000431
     3  C   -0.005591   0.002045   0.003816  -0.000732   0.002219  -0.000265
     4  C   -0.000016   0.002747  -0.000732  -0.002766  -0.010699   0.003012
     5  C   -0.001264  -0.005428   0.002219  -0.010699   0.112823  -0.012700
     6  C    0.000034   0.000431  -0.000265   0.003012  -0.012700  -0.082379
     7  C    0.000012   0.000185  -0.000037   0.000136  -0.006608   0.014791
     8  Br  -0.000000  -0.000001   0.000000  -0.000001   0.000352   0.000139
     9  C    0.000103   0.000548  -0.000043   0.000011  -0.003639   0.000010
    10  C   -0.000088  -0.000393  -0.000263   0.000100  -0.000133  -0.000555
    11  C   -0.017384  -0.065210   0.008820  -0.007886   0.043062  -0.003708
    12  H    0.002906  -0.002398  -0.000292   0.000031  -0.000020  -0.000002
    13  H    0.002633  -0.002560   0.000357  -0.000039   0.000037  -0.000000
    14  H   -0.000872  -0.002254   0.005621  -0.003685   0.001401  -0.000050
    15  H   -0.000530   0.002127  -0.001742   0.001296  -0.000268  -0.000006
    16  H    0.000171   0.000366   0.000524   0.000229  -0.002154   0.000192
    17  H    0.000010   0.000336  -0.001606   0.006308  -0.003054   0.000336
    18  H   -0.000000  -0.000005   0.000008   0.000030   0.000051   0.000039
    19  H   -0.000000   0.000003   0.000000  -0.000001  -0.000042  -0.000016
    20  H   -0.000129  -0.000047  -0.000002   0.000007  -0.000019  -0.000036
               7          8          9         10         11         12
     1  C    0.000012  -0.000000   0.000103  -0.000088  -0.017384   0.002906
     2  C    0.000185  -0.000001   0.000548  -0.000393  -0.065210  -0.002398
     3  C   -0.000037   0.000000  -0.000043  -0.000263   0.008820  -0.000292
     4  C    0.000136  -0.000001   0.000011   0.000100  -0.007886   0.000031
     5  C   -0.006608   0.000352  -0.003639  -0.000133   0.043062  -0.000020
     6  C    0.014791   0.000139   0.000010  -0.000555  -0.003708  -0.000002
     7  C    0.228081  -0.036791   0.027922  -0.004538  -0.007574   0.000001
     8  Br  -0.036791   0.132431  -0.002878   0.000281   0.000063  -0.000000
     9  C    0.027922  -0.002878   0.031671  -0.022603  -0.004189  -0.000029
    10  C   -0.004538   0.000281  -0.022603  -0.000423   0.028421  -0.000227
    11  C   -0.007574   0.000063  -0.004189   0.028421   0.253186   0.000670
    12  H    0.000001  -0.000000  -0.000029  -0.000227   0.000670  -0.022259
    13  H   -0.000000   0.000000   0.000001  -0.000021  -0.000339   0.001128
    14  H   -0.000005   0.000000  -0.000005  -0.000024   0.001454   0.000006
    15  H    0.000000   0.000000  -0.000000   0.000002   0.000232   0.000005
    16  H    0.000048  -0.000002   0.000016  -0.000052  -0.000981  -0.000000
    17  H    0.000039  -0.000001   0.000008   0.000005  -0.000386  -0.000000
    18  H   -0.000140  -0.000116   0.000059  -0.000035   0.000148  -0.000000
    19  H   -0.000300  -0.000046   0.000747   0.000067   0.000052   0.000000
    20  H    0.000049   0.000001   0.000137   0.000941  -0.000466   0.000024
              13         14         15         16         17         18
     1  C    0.002633  -0.000872  -0.000530   0.000171   0.000010  -0.000000
     2  C   -0.002560  -0.002254   0.002127   0.000366   0.000336  -0.000005
     3  C    0.000357   0.005621  -0.001742   0.000524  -0.001606   0.000008
     4  C   -0.000039  -0.003685   0.001296   0.000229   0.006308   0.000030
     5  C    0.000037   0.001401  -0.000268  -0.002154  -0.003054   0.000051
     6  C   -0.000000  -0.000050  -0.000006   0.000192   0.000336   0.000039
     7  C   -0.000000  -0.000005   0.000000   0.000048   0.000039  -0.000140
     8  Br   0.000000   0.000000   0.000000  -0.000002  -0.000001  -0.000116
     9  C    0.000001  -0.000005  -0.000000   0.000016   0.000008   0.000059
    10  C   -0.000021  -0.000024   0.000002  -0.000052   0.000005  -0.000035
    11  C   -0.000339   0.001454   0.000232  -0.000981  -0.000386   0.000148
    12  H    0.001128   0.000006   0.000005  -0.000000  -0.000000  -0.000000
    13  H   -0.022389  -0.000054   0.000026  -0.000002   0.000001   0.000000
    14  H   -0.000054   0.001490   0.000968   0.000392  -0.000942   0.000000
    15  H    0.000026   0.000968  -0.003851  -0.000270   0.000144  -0.000000
    16  H   -0.000002   0.000392  -0.000270   0.022356  -0.003041   0.000000
    17  H    0.000001  -0.000942   0.000144  -0.003041   0.010415  -0.000003
    18  H    0.000000   0.000000  -0.000000   0.000000  -0.000003   0.002180
    19  H   -0.000000   0.000000   0.000000   0.000000  -0.000000   0.000001
    20  H    0.000003   0.000000  -0.000000  -0.000001   0.000000  -0.000001
              19         20
     1  C   -0.000000  -0.000129
     2  C    0.000003  -0.000047
     3  C    0.000000  -0.000002
     4  C   -0.000001   0.000007
     5  C   -0.000042  -0.000019
     6  C   -0.000016  -0.000036
     7  C   -0.000300   0.000049
     8  Br  -0.000046   0.000001
     9  C    0.000747   0.000137
    10  C    0.000067   0.000941
    11  C    0.000052  -0.000466
    12  H    0.000000   0.000024
    13  H   -0.000000   0.000003
    14  H    0.000000   0.000000
    15  H    0.000000  -0.000000
    16  H    0.000000  -0.000001
    17  H   -0.000000   0.000000
    18  H    0.000001  -0.000001
    19  H   -0.002447   0.000076
    20  H    0.000076  -0.001682
 Mulliken charges and spin densities:
               1          2
     1  C    0.033258   0.493767
     2  C   -0.127199  -0.078286
     3  C    0.026257   0.012836
     4  C    0.052481  -0.011918
     5  C   -0.112613   0.113919
     6  C    0.028283  -0.080734
     7  C   -0.048421   0.215270
     8  Br   0.152520   0.093430
     9  C    0.045263   0.027845
    10  C   -0.016332   0.000462
    11  C    0.106550   0.227985
    12  H    0.104252  -0.020458
    13  H    0.116486  -0.021218
    14  H    0.114803   0.003443
    15  H    0.092414  -0.001867
    16  H    0.114344   0.017791
    17  H    0.098610   0.008568
    18  H    0.067087   0.002217
    19  H    0.085210  -0.001907
    20  H    0.066747  -0.001145
 Sum of Mulliken charges =   1.00000   1.00000
 Mulliken charges and spin densities with hydrogens summed into heavy atoms:
               1          2
     1  C    0.253996   0.452091
     2  C   -0.127199  -0.078286
     3  C    0.233474   0.014412
     4  C    0.265435   0.014441
     5  C   -0.112613   0.113919
     6  C    0.095370  -0.078517
     7  C   -0.048421   0.215270
     8  Br   0.152520   0.093430
     9  C    0.130473   0.025938
    10  C    0.050415  -0.000683
    11  C    0.106550   0.227985
 Electronic spatial extent (au):  <R**2>=           3012.8113
 Charge=              1.0000 electrons
 Dipole moment (field-independent basis, Debye):
    X=             -7.2175    Y=              0.9438    Z=             -0.0605  Tot=              7.2792
 Quadrupole moment (field-independent basis, Debye-Ang):
   XX=            -28.9582   YY=            -56.7427   ZZ=            -75.3412
   XY=             -2.6704   XZ=              0.3696   YZ=             -0.0940
 Traceless Quadrupole moment (field-independent basis, Debye-Ang):
   XX=             24.7225   YY=             -3.0620   ZZ=            -21.6605
   XY=             -2.6704   XZ=              0.3696   YZ=             -0.0940
 Octapole moment (field-independent basis, Debye-Ang**2):
  XXX=            -25.2537  YYY=              6.2655  ZZZ=              0.3764  XYY=              3.6771
  XXY=             15.6016  XXZ=             -1.9313  XZZ=             28.6043  YZZ=             -5.5689
  YYZ=             -0.7300  XYZ=              2.0774
 Hexadecapole moment (field-independent basis, Debye-Ang**3):
 XXXX=          -1970.3982 YYYY=           -523.9087 ZZZZ=            -94.1882 XXXY=           -103.2409
 XXXZ=             12.4295 YYYX=            -21.2637 YYYZ=             -1.1413 ZZZX=             -3.0111
 ZZZY=              0.0813 XXYY=           -467.1911 XXZZ=           -477.9213 YYZZ=           -118.9696
 XXYZ=             -7.6865 YYXZ=              4.5689 ZZXY=              8.5991
 N-N= 7.844298281738D+02 E-N=-8.595922266728D+03  KE= 2.952614270474D+03
 There are a total of      456378 grid points.
 ElSum from          density=      102.9999921751
 ElSum from atomic densities=      103.9999761331
 Hirshfeld populations at iteration   1 (CA, CB, DipXYZ):
               1          2          3          4          5
     1  C    3.149838   2.797200  -0.080583   0.070457  -0.009653
     2  C    2.982559   2.959817  -0.003742  -0.034714   0.009123
     3  C    3.017059   3.011318  -0.010224  -0.022320  -0.003921
     4  C    3.018055   3.006976  -0.011974  -0.025022   0.003822
     5  C    3.016436   2.924784  -0.029837  -0.044655  -0.000095
     6  C    2.999331   3.020608   0.008344  -0.062139  -0.003790
     7  C    3.037494   2.887606   0.053684   0.006256  -0.000045
     8  Br  17.491013  17.386210   0.116186  -0.014427   0.000197
     9  C    3.020449   2.976978   0.035019   0.048184   0.001999
    10  C    3.010947   2.979131  -0.041758   0.054523   0.001817
    11  C    3.053181   2.899406  -0.017208   0.019073   0.004066
    12  H    0.468620   0.452360   0.032146   0.164638  -0.020756
    13  H    0.464636   0.447696  -0.175242  -0.017883  -0.000789
    14  H    0.469197   0.465912  -0.051734  -0.036203   0.156240
    15  H    0.468887   0.469493  -0.130065  -0.055626  -0.088804
    16  H    0.472160   0.460054  -0.008582  -0.077938  -0.150032
    17  H    0.470387   0.463991   0.020425  -0.133239   0.101081
    18  H    0.462984   0.465090   0.053227  -0.167875  -0.006769
    19  H    0.462812   0.461689   0.089638   0.154375   0.006233
    20  H    0.463953   0.463678  -0.054971   0.163536   0.007450
       Tot  51.999996  50.999996  -0.207254  -0.010998   0.007373

 Dip from Atomic Chgs             -2.632394   0.382347  -0.031165
         Total Dipole             -2.839648   0.371349  -0.023792

 Hirshfeld charges, spin densities, dipoles, and CM5 charges using IRadAn=      5:
              Q-H        S-H        Dx         Dy         Dz        Q-CM5   
     1  C    0.052963   0.352638  -0.080583   0.070457  -0.009653  -0.043498
     2  C    0.057624   0.022742  -0.003742  -0.034714   0.009123   0.042412
     3  C   -0.028377   0.005741  -0.010224  -0.022320  -0.003921  -0.128235
     4  C   -0.025031   0.011079  -0.011974  -0.025022   0.003822  -0.124631
     5  C    0.058780   0.091652  -0.029837  -0.044655  -0.000095   0.047853
     6  C   -0.019939  -0.021277   0.008344  -0.062139  -0.003790  -0.070025
     7  C    0.074900   0.149888   0.053684   0.006256  -0.000045   0.053761
     8  Br   0.122777   0.104803   0.116186  -0.014427   0.000197   0.137792
     9  C    0.002573   0.043471   0.035019   0.048184   0.001999  -0.050049
    10  C    0.009923   0.031816  -0.041758   0.054523   0.001817  -0.041600
    11  C    0.047413   0.153774  -0.017208   0.019073   0.004066   0.041724
    12  H    0.079020   0.016260   0.032146   0.164638  -0.020756   0.131494
    13  H    0.087668   0.016940  -0.175242  -0.017883  -0.000789   0.139700
    14  H    0.064891   0.003286  -0.051734  -0.036203   0.156240   0.119234
    15  H    0.061620  -0.000607  -0.130065  -0.055626  -0.088804   0.115523
    16  H    0.067787   0.012106  -0.008582  -0.077938  -0.150032   0.121855
    17  H    0.065622   0.006396   0.020425  -0.133239   0.101081   0.119370
    18  H    0.071926  -0.002107   0.053227  -0.167875  -0.006769   0.128064
    19  H    0.075499   0.001123   0.089638   0.154375   0.006233   0.131295
    20  H    0.072369   0.000276  -0.054971   0.163536   0.007450   0.127969
       Tot   1.000008   1.000000  -0.207254  -0.010998   0.007373   1.000008
 Hirshfeld charges and spin densities with hydrogens summed into heavy atoms:
              Q-H        S-H       Q-CM5   
     1  C    0.219651   0.385838   0.227696
     2  C    0.057624   0.022742   0.042412
     3  C    0.098134   0.008420   0.106522
     4  C    0.108378   0.029581   0.116594
     5  C    0.058780   0.091652   0.047853
     6  C    0.051987  -0.023384   0.058039
     7  C    0.074900   0.149888   0.053761
     8  Br   0.122777   0.104803   0.137792
     9  C    0.078072   0.044594   0.081246
    10  C    0.082291   0.032092   0.086369
    11  C    0.047413   0.153774   0.041724
 
 EQQ= 0.734450907352E-01 EQD=-0.674332633274E-01 EDD= 0.891091531144E-02
 EQQ+QD+DD= 0.149227427193E-01
 
                          Isotropic Fermi Contact Couplings
        Atom                 a.u.       MegaHertz       Gauss      10(-4) cm-1
     1  C(13)              0.08241      92.64690      33.05872      30.90368
     2  C(13)             -0.03061     -34.41112     -12.27874     -11.47831
     3  C(13)              0.00299       3.35585       1.19745       1.11939
     4  C(13)             -0.00653      -7.34182      -2.61974      -2.44897
     5  C(13)              0.01271      14.28990       5.09899       4.76660
     6  C(13)             -0.02065     -23.21937      -8.28525      -7.74515
     7  C(13)              0.03879      43.61276      15.56212      14.54765
     8  Br(79)             0.03191      35.85832      12.79514      11.96105
     9  C(13)             -0.00180      -2.02714      -0.72333      -0.67618
    10  C(13)             -0.00628      -7.05895      -2.51881      -2.35461
    11  C(13)              0.03059      34.38917      12.27091      11.47099
    12  H(1)              -0.00672     -30.03260     -10.71638     -10.01780
    13  H(1)              -0.00687     -30.72090     -10.96198     -10.24739
    14  H(1)               0.00189       8.45387       3.01655       2.81991
    15  H(1)              -0.00052      -2.30993      -0.82424      -0.77051
    16  H(1)               0.00812      36.30366      12.95405      12.10960
    17  H(1)               0.00422      18.85401       6.72758       6.28902
    18  H(1)               0.00068       3.03986       1.08470       1.01399
    19  H(1)              -0.00071      -3.17975      -1.13461      -1.06065
    20  H(1)              -0.00047      -2.08937      -0.74554      -0.69694
 --------------------------------------------------------
       Center         ----  Spin Dipole Couplings  ----
                      3XX-RR        3YY-RR        3ZZ-RR
 --------------------------------------------------------
     1   Atom       -0.261066     -0.249207      0.510273
     2   Atom        0.019768      0.014158     -0.033927
     3   Atom       -0.004153      0.000125      0.004027
     4   Atom       -0.009116     -0.002671      0.011787
     5   Atom       -0.073790     -0.061736      0.135525
     6   Atom        0.033170      0.031932     -0.065102
     7   Atom       -0.121605     -0.128804      0.250409
     8   Atom       -0.748007     -0.595478      1.343485
     9   Atom       -0.025346     -0.022508      0.047854
    10   Atom       -0.012999     -0.010993      0.023992
    11   Atom       -0.122057     -0.122877      0.244934
    12   Atom       -0.026072      0.031334     -0.005262
    13   Atom        0.037396     -0.032065     -0.005331
    14   Atom       -0.000701      0.001489     -0.000788
    15   Atom       -0.000129      0.003846     -0.003717
    16   Atom       -0.002594      0.002072      0.000522
    17   Atom       -0.002141      0.004806     -0.002665
    18   Atom        0.001704      0.001903     -0.003607
    19   Atom       -0.003034      0.006770     -0.003736
    20   Atom       -0.001162      0.006114     -0.004952
 --------------------------------------------------------
                        XY            XZ            YZ
 --------------------------------------------------------
     1   Atom       -0.003253     -0.028329      0.108459
     2   Atom       -0.019326      0.002077     -0.021827
     3   Atom       -0.000692     -0.002420     -0.001130
     4   Atom        0.001333     -0.005744      0.001678
     5   Atom       -0.001154     -0.000869     -0.013564
     6   Atom        0.001094     -0.000058      0.003147
     7   Atom       -0.002718      0.000286     -0.012024
     8   Atom        0.018746      0.011640     -0.071106
     9   Atom       -0.000825     -0.002119     -0.002887
    10   Atom        0.002694     -0.001569     -0.000558
    11   Atom       -0.005793     -0.001364     -0.008977
    12   Atom        0.017426     -0.002800     -0.003712
    13   Atom        0.008544     -0.000418      0.003817
    14   Atom        0.000830     -0.001753     -0.003066
    15   Atom        0.002030      0.000940      0.000777
    16   Atom        0.001260      0.001126      0.003711
    17   Atom       -0.000411      0.000416     -0.002257
    18   Atom        0.002497      0.000094      0.000289
    19   Atom        0.003942      0.000150      0.000464
    20   Atom        0.001636      0.000326      0.000321
 --------------------------------------------------------


 ---------------------------------------------------------------------------------
              Anisotropic Spin Dipole Couplings in Principal Axis System
 ---------------------------------------------------------------------------------

       Atom             a.u.   MegaHertz   Gauss  10(-4) cm-1        Axes

              Baa    -0.2646   -35.506   -12.669   -11.843 -0.2721  0.9516 -0.1431
     1 C(13)  Bbb    -0.2619   -35.144   -12.540   -11.723  0.9616  0.2745 -0.0033
              Bcc     0.5265    70.650    25.210    23.566 -0.0362  0.1385  0.9897
 
              Baa    -0.0428    -5.743    -2.049    -1.916  0.0875  0.3822  0.9199
     2 C(13)  Bbb     0.0026     0.355     0.127     0.119  0.7256  0.6082 -0.3218
              Bcc     0.0401     5.388     1.922     1.797 -0.6825  0.6957 -0.2241
 
              Baa    -0.0050    -0.671    -0.239    -0.224  0.9425  0.1881  0.2762
     3 C(13)  Bbb     0.0001     0.018     0.006     0.006 -0.2319  0.9633  0.1353
              Bcc     0.0049     0.653     0.233     0.218 -0.2406 -0.1916  0.9515
 
              Baa    -0.0109    -1.469    -0.524    -0.490  0.9455 -0.2039  0.2540
     4 C(13)  Bbb    -0.0024    -0.325    -0.116    -0.108  0.2177  0.9756 -0.0272
              Bcc     0.0134     1.794     0.640     0.598 -0.2422  0.0810  0.9668
 
              Baa    -0.0739    -9.920    -3.540    -3.309  0.9943  0.1064  0.0110
     5 C(13)  Bbb    -0.0625    -8.391    -2.994    -2.799 -0.1069  0.9920  0.0675
              Bcc     0.1365    18.311     6.534     6.108 -0.0038 -0.0683  0.9977
 
              Baa    -0.0652    -8.750    -3.122    -2.919  0.0009 -0.0324  0.9995
     6 C(13)  Bbb     0.0314     4.210     1.502     1.404 -0.5187  0.8545  0.0282
              Bcc     0.0338     4.540     1.620     1.514  0.8550  0.5184  0.0160
 
              Baa    -0.1301   -17.452    -6.227    -5.821  0.3052  0.9518  0.0299
     7 C(13)  Bbb    -0.1207   -16.202    -5.781    -5.404  0.9523 -0.3050 -0.0106
              Bcc     0.2508    33.654    12.008    11.226  0.0010 -0.0317  0.9995
 
              Baa    -0.7505  -100.666   -35.920   -33.579  0.9922 -0.1245 -0.0097
     8 Br(79) Bbb    -0.5957   -79.902   -28.511   -26.652  0.1247  0.9916  0.0356
              Bcc     1.3461   180.568    64.431    60.231  0.0052 -0.0365  0.9993
 
              Baa    -0.0257    -3.446    -1.229    -1.149  0.9578  0.2847  0.0388
     9 C(13)  Bbb    -0.0224    -3.000    -1.070    -1.001 -0.2859  0.9578  0.0307
              Bcc     0.0480     6.445     2.300     2.150 -0.0284 -0.0405  0.9988
 
              Baa    -0.0149    -1.999    -0.713    -0.667  0.8244 -0.5655  0.0251
    10 C(13)  Bbb    -0.0092    -1.231    -0.439    -0.411  0.5644  0.8245  0.0406
              Bcc     0.0241     3.230     1.153     1.077 -0.0437 -0.0193  0.9989
 
              Baa    -0.1284   -17.233    -6.149    -5.748  0.6751  0.7375  0.0202
    11 C(13)  Bbb    -0.1167   -15.664    -5.589    -5.225  0.7377 -0.6750 -0.0140
              Bcc     0.2452    32.898    11.739    10.974 -0.0033 -0.0243  0.9997
 
              Baa    -0.0311   -16.572    -5.913    -5.528  0.9620 -0.2647  0.0663
    12 H(1)   Bbb    -0.0056    -2.986    -1.066    -0.996 -0.0363  0.1169  0.9925
              Bcc     0.0367    19.559     6.979     6.524  0.2705  0.9572 -0.1028
 
              Baa    -0.0336   -17.939    -6.401    -5.984 -0.1191  0.9837 -0.1345
    13 H(1)   Bbb    -0.0048    -2.566    -0.916    -0.856 -0.0172  0.1334  0.9909
              Bcc     0.0384    20.505     7.317     6.840  0.9927  0.1204  0.0010
 
              Baa    -0.0033    -1.781    -0.635    -0.594  0.3956  0.4430  0.8045
    14 H(1)   Bbb    -0.0009    -0.467    -0.167    -0.156  0.8565 -0.4941 -0.1491
              Bcc     0.0042     2.248     0.802     0.750  0.3315  0.7481 -0.5749
 
              Baa    -0.0040    -2.112    -0.754    -0.705 -0.2179 -0.0404  0.9751
    15 H(1)   Bbb    -0.0009    -0.468    -0.167    -0.156  0.8922 -0.4134  0.1822
              Bcc     0.0048     2.580     0.921     0.861  0.3957  0.9097  0.1261
 
              Baa    -0.0030    -1.580    -0.564    -0.527  0.9656 -0.0540 -0.2545
    16 H(1)   Bbb    -0.0025    -1.324    -0.472    -0.442  0.1596 -0.6498  0.7432
              Bcc     0.0054     2.904     1.036     0.969  0.2055  0.7582  0.6188
 
              Baa    -0.0034    -1.795    -0.640    -0.599 -0.2363  0.2476  0.9396
    17 H(1)   Bbb    -0.0021    -1.123    -0.401    -0.375  0.9694  0.1264  0.2105
              Bcc     0.0055     2.918     1.041     0.973 -0.0667  0.9606 -0.2699
 
              Baa    -0.0036    -1.933    -0.690    -0.645  0.0087 -0.0561  0.9984
    18 H(1)   Bbb    -0.0007    -0.368    -0.131    -0.123  0.7220 -0.6904 -0.0451
              Bcc     0.0043     2.301     0.821     0.767  0.6918  0.7212  0.0345
 
              Baa    -0.0044    -2.360    -0.842    -0.787  0.9428 -0.3329  0.0185
    19 H(1)   Bbb    -0.0038    -2.004    -0.715    -0.668 -0.0311 -0.0324  0.9990
              Bcc     0.0082     4.364     1.557     1.456  0.3319  0.9424  0.0409
 
              Baa    -0.0050    -2.659    -0.949    -0.887 -0.0776 -0.0174  0.9968
    20 H(1)   Bbb    -0.0015    -0.797    -0.285    -0.266  0.9745 -0.2126  0.0721
              Bcc     0.0065     3.456     1.233     1.153  0.2106  0.9770  0.0334
 

 ---------------------------------------------------------------------------------

 Running external command "gaunbo6 R"
         input file       "/home/rpaton/opt/dzvp/fukui/Gau-1851629.EIn"
         output file      "/home/rpaton/opt/dzvp/fukui/Gau-1851629.EOu"
         message file     "/home/rpaton/opt/dzvp/fukui/Gau-1851629.EMs"
         fchk file        "/home/rpaton/opt/dzvp/fukui/Gau-1851629.EFC"
         mat. el file     "/home/rpaton/opt/dzvp/fukui/Gau-1851629.EUF"

 Writing WrtUnf unformatted file "/home/rpaton/opt/dzvp/fukui/Gau-1851629.EUF"
 Gaussian matrix elements                                         Version   2 NLab=11 Len12L=8 Len4L=8
 Write SHELL TO ATOM MAP                   from file      0 offset           0 length                  99 to matrix element file.
 Write SHELL TYPES                         from file      0 offset           0 length                  99 to matrix element file.
 Write NUMBER OF PRIMITIVES PER SHELL      from file      0 offset           0 length                  99 to matrix element file.
 Write PRIMITIVE EXPONENTS                 from file      0 offset           0 length                 195 to matrix element file.
 Write CONTRACTION COEFFICIENTS            from file      0 offset           0 length                 195 to matrix element file.
 Write P(S=P) CONTRACTION COEFFICIENTS     from file      0 offset           0 length                 195 to matrix element file.
 Write COORDINATES OF EACH SHELL           from file      0 offset           0 length                 297 to matrix element file.
 Write BONDS PER ATOM                      from file      0 offset           0 length                  20 to matrix element file.
 Write BONDED ATOMS                        from file      0 offset           0 length                  42 to matrix element file.
 Write BOND TYPES                          from file      0 offset           0 length                  42 to matrix element file.
 Write ONIOM CHARGE/MULT                   from file      0 offset           0 length                  32 to matrix element file.
 Write ONIOM ATOM LAYERS                   from file      0 offset           0 length                  20 to matrix element file.
 Write ONIOM ATOM MODIFIERS                from file      0 offset           0 length                  20 to matrix element file.
 Write ONIOM ATOM TYPES                    from file      0 offset           0 length                  20 to matrix element file.
 Write ONIOM LINK ATOMS                    from file      0 offset           0 length                  20 to matrix element file.
 Write ONIOM LINK CHARGES                  from file      0 offset           0 length                  20 to matrix element file.
 Write ONIOM LINK DISTANCES                from file      0 offset           0 length                  80 to matrix element file.
 Write SYMINF INTS                         from file      0 offset           0 length                  26 to matrix element file.
 Write ROTTR TO SO                         from file      0 offset           0 length                  12 to matrix element file.
 Write GAUSSIAN SCALARS                    from file    501 offset           0 to matrix element file.
 Write OPTIMIZATION FLAGS                  from file      0 offset           0 length                  20 to matrix element file.
 Write INTEGER ISO                         from file      0 offset           0 length                  20 to matrix element file.
 Write INTEGER SPIN                        from file      0 offset           0 length                  20 to matrix element file.
 Write REAL ZEFFECTIVE                     from file      0 offset           0 length                  20 to matrix element file.
 Write REAL QUADRUPOLEMOMENT               from file      0 offset           0 length                  20 to matrix element file.
 Write REAL GFACTOR                        from file      0 offset           0 length                  20 to matrix element file.
 Write REAL ZNUCLEAR                       from file      0 offset           0 length                  20 to matrix element file.
 Write MULLIKEN CHARGES                    from file      0 offset           0 length                  20 to matrix element file.
 Write TYPE 6 CHARGES                      from file      0 offset           0 length                  20 to matrix element file.
 Write TYPE 7 CHARGES                      from file      0 offset           0 length                  20 to matrix element file.
 Write NUCLEAR GRADIENT                    from file  10584 offset           0 length                  60 to matrix element file.
 Array NUCLEAR FORCE CONSTANTS              on  file  10585 does not exist.
 Write ELECTRIC DIPOLE MOMENT              from file      0 offset           0 length                   3 to matrix element file.
 Write NON-ADIABATIC COUPLING              from file  10810 offset           0 length                  60 to matrix element file.
 Write FINITE EM FIELD                     from file  10521 offset           0 length                  35 to matrix element file.
 Write OVERLAP                             from file  10514 offset           0 length               23653 to matrix element file.
 Write CORE HAMILTONIAN ALPHA              from file  10515 offset           0 length               23653 to matrix element file.
 Write CORE HAMILTONIAN BETA               from file  10515 offset       23653 length               23653 to matrix element file.
 Write KINETIC ENERGY                      from file  10516 offset           0 length               23653 to matrix element file.
 Write ORTHOGONAL BASIS                    from file  10685 offset           0 length               47089 to matrix element file.
 Write DIPOLE INTEGRALS                    from file  10518 offset           0 length               70959 to matrix element file.
 Array DIP VEL INTEGRALS                    on  file  10572 does not exist.
 Array R X DEL INTEGRALS                    on  file  10572 does not exist.
 Write ALPHA ORBITAL ENERGIES              from file      0 offset           0 length                 217 to matrix element file.
 Write BETA ORBITAL ENERGIES               from file      0 offset           0 length                 217 to matrix element file.
 Write ALPHA MO COEFFICIENTS               from file  10524 offset           0 length               47089 to matrix element file.
 Write BETA MO COEFFICIENTS                from file  10526 offset           0 length               47089 to matrix element file.
 Write ALPHA DENSITY MATRIX                from file      0 offset           0 length               23653 to matrix element file.
 Write BETA DENSITY MATRIX                 from file      0 offset           0 length               23653 to matrix element file.
 Write ALPHA FOCK MATRIX                   from file  10536 offset           0 length               23653 to matrix element file.
 Write BETA FOCK MATRIX                    from file  10538 offset           0 length               23653 to matrix element file.
 Write ENERGY-WEIGHTED DENSITY             from file  10571 offset           0 length               23653 to matrix element file.
 Write ALPHA SCF DENSITY MATRIX            from file      0 offset           0 length               23653 to matrix element file.
 Write BETA SCF DENSITY MATRIX             from file      0 offset           0 length               23653 to matrix element file.
 No 2e integrals to process.
 Perform NBO analysis...

 *********************************** NBO 7.0 ***********************************
             N A T U R A L   A T O M I C   O R B I T A L   A N D
          N A T U R A L   B O N D   O R B I T A L   A N A L Y S I S
 **************************** Robert Paton (I101709) ***************************
  (c) Copyright 1996-2019 Board of Regents of the University of Wisconsin System
      on behalf of the Theoretical Chemistry Institute.  All rights reserved.

          Cite this program [NBO 7.0.5 (4-Jun-2019)] as:

          NBO 7.0.  E. D. Glendening, J. K. Badenhoop, A. E. Reed,
          J. E. Carpenter, J. A. Bohmann, C. M. Morales, P. Karafiloglou,
          C. R. Landis, and F. Weinhold, Theoretical Chemistry Institute,
          University of Wisconsin, Madison, WI (2018)

 Filename set to /home/rpaton/opt/dzvp/fukui/Gau-1851629

 Job title:  arbr79_wb97xd_popncreated by GaussianPrep


 NATURAL POPULATIONS:  Natural atomic orbital occupancies

  NAO Atom No lang   Type(AO)    Occupancy     Spin
 -----------------------------------------------------
   1    C  1  s      Cor( 1s)     1.99994     0.00000
   2    C  1  s      Val( 2s)     1.06265     0.01904
   3    C  1  s      Ryd( 3s)     0.00058    -0.00002
   4    C  1  px     Val( 2p)     1.17742     0.01020
   5    C  1  px     Ryd( 3p)     0.00423     0.00002
   6    C  1  py     Val( 2p)     1.14615     0.01681
   7    C  1  py     Ryd( 3p)     0.00301     0.00003
   8    C  1  pz     Val( 2p)     0.76869     0.41037
   9    C  1  pz     Ryd( 3p)     0.00078     0.00053
  10    C  1  dxy    Ryd( 3d)     0.00114     0.00003
  11    C  1  dxz    Ryd( 3d)     0.00043     0.00009
  12    C  1  dyz    Ryd( 3d)     0.00048     0.00015
  13    C  1  dx2y2  Ryd( 3d)     0.00077     0.00000
  14    C  1  dz2    Ryd( 3d)     0.00070    -0.00033

  15    C  2  s      Cor( 1s)     1.99996     0.00000
  16    C  2  s      Val( 2s)     0.89336    -0.00564
  17    C  2  s      Ryd( 3s)     0.00241    -0.00006
  18    C  2  px     Val( 2p)     1.06729    -0.00687
  19    C  2  px     Ryd( 3p)     0.00324     0.00000
  20    C  2  py     Val( 2p)     1.10151    -0.00657
  21    C  2  py     Ryd( 3p)     0.00624     0.00008
  22    C  2  pz     Val( 2p)     0.92062    -0.02477
  23    C  2  pz     Ryd( 3p)     0.00177     0.00017
  24    C  2  dxy    Ryd( 3d)     0.00100     0.00000
  25    C  2  dxz    Ryd( 3d)     0.00056     0.00034
  26    C  2  dyz    Ryd( 3d)     0.00085     0.00031
  27    C  2  dx2y2  Ryd( 3d)     0.00108    -0.00002
  28    C  2  dz2    Ryd( 3d)     0.00056     0.00003

  29    C  3  s      Cor( 1s)     1.99994     0.00000
  30    C  3  s      Val( 2s)     1.02797     0.00047
  31    C  3  s      Ryd( 3s)     0.00088     0.00002
  32    C  3  px     Val( 2p)     1.15281     0.00038
  33    C  3  px     Ryd( 3p)     0.00402     0.00005
  34    C  3  py     Val( 2p)     1.02023     0.00138
  35    C  3  py     Ryd( 3p)     0.00253     0.00001
  36    C  3  pz     Val( 2p)     1.24329     0.00715
  37    C  3  pz     Ryd( 3p)     0.00276     0.00011
  38    C  3  dxy    Ryd( 3d)     0.00058     0.00000
  39    C  3  dxz    Ryd( 3d)     0.00064    -0.00001
  40    C  3  dyz    Ryd( 3d)     0.00036    -0.00005
  41    C  3  dx2y2  Ryd( 3d)     0.00087     0.00000
  42    C  3  dz2    Ryd( 3d)     0.00087     0.00001

  43    C  4  s      Cor( 1s)     1.99994     0.00000
  44    C  4  s      Val( 2s)     1.02427    -0.00113
  45    C  4  s      Ryd( 3s)     0.00060    -0.00001
  46    C  4  px     Val( 2p)     1.01578    -0.00181
  47    C  4  px     Ryd( 3p)     0.00289     0.00000
  48    C  4  py     Val( 2p)     1.15626    -0.00240
  49    C  4  py     Ryd( 3p)     0.00348     0.00001
  50    C  4  pz     Val( 2p)     1.24640     0.00455
  51    C  4  pz     Ryd( 3p)     0.00301     0.00016
  52    C  4  dxy    Ryd( 3d)     0.00097    -0.00001
  53    C  4  dxz    Ryd( 3d)     0.00039     0.00000
  54    C  4  dyz    Ryd( 3d)     0.00067     0.00008
  55    C  4  dx2y2  Ryd( 3d)     0.00043     0.00000
  56    C  4  dz2    Ryd( 3d)     0.00083     0.00002

  57    C  5  s      Cor( 1s)     1.99996     0.00000
  58    C  5  s      Val( 2s)     0.87049     0.00348
  59    C  5  s      Ryd( 3s)     0.00190     0.00002
  60    C  5  px     Val( 2p)     1.09631     0.00263
  61    C  5  px     Ryd( 3p)     0.00456     0.00003
  62    C  5  py     Val( 2p)     1.06600    -0.00060
  63    C  5  py     Ryd( 3p)     0.00463     0.00004
  64    C  5  pz     Val( 2p)     0.87558     0.10277
  65    C  5  pz     Ryd( 3p)     0.00178     0.00015
  66    C  5  dxy    Ryd( 3d)     0.00093     0.00000
  67    C  5  dxz    Ryd( 3d)     0.00085    -0.00008
  68    C  5  dyz    Ryd( 3d)     0.00066     0.00024
  69    C  5  dx2y2  Ryd( 3d)     0.00114     0.00000
  70    C  5  dz2    Ryd( 3d)     0.00059    -0.00008

  71    C  6  s      Cor( 1s)     1.99995     0.00000
  72    C  6  s      Val( 2s)     0.93936    -0.00376
  73    C  6  s      Ryd( 3s)     0.00171     0.00001
  74    C  6  px     Val( 2p)     1.08873    -0.00422
  75    C  6  px     Ryd( 3p)     0.00544     0.00006
  76    C  6  py     Val( 2p)     1.20184    -0.00368
  77    C  6  py     Ryd( 3p)     0.00749     0.00005
  78    C  6  pz     Val( 2p)     0.98301    -0.04937
  79    C  6  pz     Ryd( 3p)     0.00109     0.00003
  80    C  6  dxy    Ryd( 3d)     0.00095    -0.00001
  81    C  6  dxz    Ryd( 3d)     0.00040     0.00007
  82    C  6  dyz    Ryd( 3d)     0.00059     0.00006
  83    C  6  dx2y2  Ryd( 3d)     0.00083    -0.00001
  84    C  6  dz2    Ryd( 3d)     0.00066     0.00002

  85    C  7  s      Cor( 1s)     1.99996     0.00000
  86    C  7  s      Val( 2s)     0.95029     0.00835
  87    C  7  s      Ryd( 3s)     0.00101    -0.00001
  88    C  7  px     Val( 2p)     1.01526     0.00530
  89    C  7  px     Ryd( 3p)     0.00780    -0.00003
  90    C  7  py     Val( 2p)     1.10024     0.00352
  91    C  7  py     Ryd( 3p)     0.00817    -0.00006
  92    C  7  pz     Val( 2p)     0.93167     0.17116
  93    C  7  pz     Ryd( 3p)     0.00194    -0.00035
  94    C  7  dxy    Ryd( 3d)     0.00136     0.00001
  95    C  7  dxz    Ryd( 3d)     0.00122     0.00000
  96    C  7  dyz    Ryd( 3d)     0.00087     0.00005
  97    C  7  dx2y2  Ryd( 3d)     0.00196     0.00000
  98    C  7  dz2    Ryd( 3d)     0.00088    -0.00016

  99   Br  8  s      Cor( 1s)     2.00000     0.00000
 100   Br  8  s      Cor( 2s)     2.00000     0.00000
 101   Br  8  s      Cor( 3s)     2.00000     0.00000
 102   Br  8  s      Val( 4s)     1.85730     0.00106
 103   Br  8  s      Ryd( 5s)     0.00289     0.00007
 104   Br  8  px     Cor( 2p)     2.00000     0.00000
 105   Br  8  px     Cor( 3p)     2.00000     0.00000
 106   Br  8  px     Val( 4p)     1.11309    -0.00769
 107   Br  8  px     Ryd( 5p)     0.00288     0.00006
 108   Br  8  py     Cor( 2p)     2.00000     0.00000
 109   Br  8  py     Cor( 3p)     2.00000     0.00000
 110   Br  8  py     Val( 4p)     1.96210     0.00030
 111   Br  8  py     Ryd( 5p)     0.00124    -0.00001
 112   Br  8  pz     Cor( 2p)     2.00000     0.00000
 113   Br  8  pz     Cor( 3p)     2.00000     0.00000
 114   Br  8  pz     Val( 4p)     1.82037     0.10857
 115   Br  8  pz     Ryd( 5p)     0.00097     0.00024
 116   Br  8  dxy    Cor( 3d)     2.00000     0.00000
 117   Br  8  dxy    Ryd( 4d)     0.00140    -0.00004
 118   Br  8  dxy    Ryd( 5d)     0.00001     0.00000
 119   Br  8  dxz    Cor( 3d)     2.00000     0.00000
 120   Br  8  dxz    Ryd( 4d)     0.00286    -0.00042
 121   Br  8  dxz    Ryd( 5d)     0.00002     0.00000
 122   Br  8  dyz    Cor( 3d)     2.00000     0.00000
 123   Br  8  dyz    Ryd( 4d)     0.00007    -0.00001
 124   Br  8  dyz    Ryd( 5d)     0.00000     0.00000
 125   Br  8  dx2y2  Cor( 3d)     1.99999     0.00000
 126   Br  8  dx2y2  Ryd( 4d)     0.00590    -0.00007
 127   Br  8  dx2y2  Ryd( 5d)     0.00001     0.00000
 128   Br  8  dz2    Cor( 3d)     2.00000     0.00000
 129   Br  8  dz2    Ryd( 4d)     0.00202     0.00006
 130   Br  8  dz2    Ryd( 5d)     0.00000     0.00000

 131    C  9  s      Cor( 1s)     1.99995     0.00000
 132    C  9  s      Val( 2s)     0.95654     0.00026
 133    C  9  s      Ryd( 3s)     0.00144     0.00001
 134    C  9  px     Val( 2p)     1.12142     0.00009
 135    C  9  px     Ryd( 3p)     0.00646     0.00005
 136    C  9  py     Val( 2p)     1.15997    -0.00264
 137    C  9  py     Ryd( 3p)     0.00590     0.00003
 138    C  9  pz     Val( 2p)     0.93976     0.03448
 139    C  9  pz     Ryd( 3p)     0.00102     0.00005
 140    C  9  dxy    Ryd( 3d)     0.00087     0.00000
 141    C  9  dxz    Ryd( 3d)     0.00060    -0.00004
 142    C  9  dyz    Ryd( 3d)     0.00049     0.00017
 143    C  9  dx2y2  Ryd( 3d)     0.00097    -0.00001
 144    C  9  dz2    Ryd( 3d)     0.00065    -0.00004

 145    C 10  s      Cor( 1s)     1.99995     0.00000
 146    C 10  s      Val( 2s)     0.94386    -0.00052
 147    C 10  s      Ryd( 3s)     0.00107     0.00001
 148    C 10  px     Val( 2p)     1.08366    -0.00148
 149    C 10  px     Ryd( 3p)     0.00433     0.00005
 150    C 10  py     Val( 2p)     1.18190    -0.00201
 151    C 10  py     Ryd( 3p)     0.00626     0.00004
 152    C 10  pz     Val( 2p)     0.93283     0.01822
 153    C 10  pz     Ryd( 3p)     0.00098     0.00007
 154    C 10  dxy    Ryd( 3d)     0.00099     0.00000
 155    C 10  dxz    Ryd( 3d)     0.00061     0.00001
 156    C 10  dyz    Ryd( 3d)     0.00045     0.00011
 157    C 10  dx2y2  Ryd( 3d)     0.00077    -0.00001
 158    C 10  dz2    Ryd( 3d)     0.00058    -0.00003

 159    C 11  s      Cor( 1s)     1.99996     0.00000
 160    C 11  s      Val( 2s)     0.86789     0.00701
 161    C 11  s      Ryd( 3s)     0.00246     0.00005
 162    C 11  px     Val( 2p)     1.09059     0.00501
 163    C 11  px     Ryd( 3p)     0.00461     0.00002
 164    C 11  py     Val( 2p)     1.10555     0.00145
 165    C 11  py     Ryd( 3p)     0.00451     0.00007
 166    C 11  pz     Val( 2p)     0.90802     0.18434
 167    C 11  pz     Ryd( 3p)     0.00122     0.00039
 168    C 11  dxy    Ryd( 3d)     0.00106     0.00001
 169    C 11  dxz    Ryd( 3d)     0.00059     0.00000
 170    C 11  dyz    Ryd( 3d)     0.00076     0.00013
 171    C 11  dx2y2  Ryd( 3d)     0.00100     0.00000
 172    C 11  dz2    Ryd( 3d)     0.00062    -0.00014

 173    H 12  s      Val( 1s)     0.77193    -0.01391
 174    H 12  s      Ryd( 2s)     0.00105    -0.00001
 175    H 12  px     Ryd( 2p)     0.00013     0.00000
 176    H 12  py     Ryd( 2p)     0.00090    -0.00004
 177    H 12  pz     Ryd( 2p)     0.00016     0.00007

 178    H 13  s      Val( 1s)     0.75954    -0.01407
 179    H 13  s      Ryd( 2s)     0.00089    -0.00002
 180    H 13  px     Ryd( 2p)     0.00098    -0.00004
 181    H 13  py     Ryd( 2p)     0.00007     0.00000
 182    H 13  pz     Ryd( 2p)     0.00012     0.00008

 183    H 14  s      Val( 1s)     0.72067     0.00280
 184    H 14  s      Ryd( 2s)     0.00146    -0.00004
 185    H 14  px     Ryd( 2p)     0.00013     0.00000
 186    H 14  py     Ryd( 2p)     0.00012     0.00000
 187    H 14  pz     Ryd( 2p)     0.00091     0.00000

 188    H 15  s      Val( 1s)     0.72902    -0.00195
 189    H 15  s      Ryd( 2s)     0.00116    -0.00007
 190    H 15  px     Ryd( 2p)     0.00058     0.00000
 191    H 15  py     Ryd( 2p)     0.00016     0.00000
 192    H 15  pz     Ryd( 2p)     0.00038     0.00000

 193    H 16  s      Val( 1s)     0.71744     0.01429
 194    H 16  s      Ryd( 2s)     0.00146     0.00021
 195    H 16  px     Ryd( 2p)     0.00008     0.00000
 196    H 16  py     Ryd( 2p)     0.00024     0.00000
 197    H 16  pz     Ryd( 2p)     0.00085     0.00002

 198    H 17  s      Val( 1s)     0.72308     0.00738
 199    H 17  s      Ryd( 2s)     0.00117     0.00009
 200    H 17  px     Ryd( 2p)     0.00008     0.00000
 201    H 17  py     Ryd( 2p)     0.00059     0.00001
 202    H 17  pz     Ryd( 2p)     0.00046     0.00000

 203    H 18  s      Val( 1s)     0.72117     0.00150
 204    H 18  s      Ryd( 2s)     0.00131    -0.00001
 205    H 18  px     Ryd( 2p)     0.00023     0.00000
 206    H 18  py     Ryd( 2p)     0.00085     0.00000
 207    H 18  pz     Ryd( 2p)     0.00013    -0.00001

 208    H 19  s      Val( 1s)     0.72072    -0.00129
 209    H 19  s      Ryd( 2s)     0.00136    -0.00001
 210    H 19  px     Ryd( 2p)     0.00044     0.00000
 211    H 19  py     Ryd( 2p)     0.00067     0.00000
 212    H 19  pz     Ryd( 2p)     0.00011     0.00001

 213    H 20  s      Val( 1s)     0.73736    -0.00085
 214    H 20  s      Ryd( 2s)     0.00127     0.00000
 215    H 20  px     Ryd( 2p)     0.00015     0.00000
 216    H 20  py     Ryd( 2p)     0.00090     0.00000
 217    H 20  pz     Ryd( 2p)     0.00013     0.00000


 Summary of Natural Population Analysis:

                                     Natural Population                 Natural
             Natural    ---------------------------------------------    Spin
  Atom No    Charge        Core      Valence    Rydberg      Total      Density
 -------------------------------------------------------------------------------
    C  1   -0.16698      1.99994     4.15491    0.01213     6.16698     0.45692
    C  2   -0.00044      1.99996     3.98278    0.01770     6.00044    -0.04300
    C  3   -0.45775      1.99994     4.44430    0.01351     6.45775     0.00953
    C  4   -0.45591      1.99994     4.44271    0.01327     6.45591    -0.00055
    C  5    0.07462      1.99996     3.90838    0.01704     5.92538     0.10859
    C  6   -0.23205      1.99995     4.21295    0.01915     6.23205    -0.06075
    C  7   -0.02264      1.99996     3.99747    0.02521     6.02264     0.18777
   Br  8    0.22688     27.99997     6.75286    0.02028    34.77312     0.10212
    C  9   -0.19605      1.99995     4.17769    0.01840     6.19605     0.03242
    C 10   -0.15824      1.99995     4.14224    0.01605     6.15824     0.01447
    C 11    0.01117      1.99996     3.97206    0.01682     5.98883     0.19834
    H 12    0.22584      0.00000     0.77193    0.00223     0.77416    -0.01389
    H 13    0.23839      0.00000     0.75954    0.00207     0.76161    -0.01406
    H 14    0.27670      0.00000     0.72067    0.00263     0.72330     0.00276
    H 15    0.26869      0.00000     0.72902    0.00228     0.73131    -0.00202
    H 16    0.27994      0.00000     0.71744    0.00263     0.72006     0.01452
    H 17    0.27462      0.00000     0.72308    0.00230     0.72538     0.00749
    H 18    0.27631      0.00000     0.72117    0.00252     0.72369     0.00148
    H 19    0.27670      0.00000     0.72072    0.00258     0.72330    -0.00130
    H 20    0.26020      0.00000     0.73736    0.00244     0.73980    -0.00085
 ===============================================================================
 * Total *  1.00000     47.99948    54.78927    0.21125   103.00000     1.00000

                                 Natural Population
 ---------------------------------------------------------
   Core                      47.99948 ( 99.9989% of   48)
   Valence                   54.78927 ( 99.6169% of   55)
   Natural Minimal Basis    102.78875 ( 99.7949% of  103)
   Natural Rydberg Basis      0.21125 (  0.2051% of  103)
 ---------------------------------------------------------

    Atom No         Natural Electron Configuration
 ----------------------------------------------------------------------------
      C  1      [core]2s( 1.06)2p( 3.09)3p( 0.01)
      C  2      [core]2s( 0.89)2p( 3.09)3p( 0.01)
      C  3      [core]2s( 1.03)2p( 3.42)3p( 0.01)
      C  4      [core]2s( 1.02)2p( 3.42)3p( 0.01)
      C  5      [core]2s( 0.87)2p( 3.04)3p( 0.01)
      C  6      [core]2s( 0.94)2p( 3.27)3p( 0.01)
      C  7      [core]2s( 0.95)2p( 3.05)3p( 0.02)3d( 0.01)
     Br  8      [core]4s( 1.86)4p( 4.90)4d( 0.01)5p( 0.01)
      C  9      [core]2s( 0.96)2p( 3.22)3p( 0.01)
      C 10      [core]2s( 0.94)2p( 3.20)3p( 0.01)
      C 11      [core]2s( 0.87)2p( 3.10)3p( 0.01)
      H 12            1s( 0.77)
      H 13            1s( 0.76)
      H 14            1s( 0.72)
      H 15            1s( 0.73)
      H 16            1s( 0.72)
      H 17            1s( 0.72)
      H 18            1s( 0.72)
      H 19            1s( 0.72)
      H 20            1s( 0.74)


 ***************************************************
 *******         Alpha spin orbitals         *******
 ***************************************************


 NATURAL POPULATIONS:  Natural atomic orbital occupancies

  NAO Atom No lang   Type(AO)    Occupancy      Energy
 -------------------------------------------------------
   1    C  1  s      Cor( 1s)     0.99997     -10.50592
   2    C  1  s      Val( 2s)     0.54085      -0.34605
   3    C  1  s      Ryd( 3s)     0.00028       0.50010
   4    C  1  px     Val( 2p)     0.59381      -0.23905
   5    C  1  px     Ryd( 3p)     0.00213       0.69035
   6    C  1  py     Val( 2p)     0.58148      -0.23037
   7    C  1  py     Ryd( 3p)     0.00152       0.61408
   8    C  1  pz     Val( 2p)     0.58953      -0.34777
   9    C  1  pz     Ryd( 3p)     0.00066       0.43304
  10    C  1  dxy    Ryd( 3d)     0.00058       2.29118
  11    C  1  dxz    Ryd( 3d)     0.00026       1.78050
  12    C  1  dyz    Ryd( 3d)     0.00032       1.80979
  13    C  1  dx2y2  Ryd( 3d)     0.00039       2.38000
  14    C  1  dz2    Ryd( 3d)     0.00018       2.03998

  15    C  2  s      Cor( 1s)     0.99998     -10.50992
  16    C  2  s      Val( 2s)     0.44386      -0.24524
  17    C  2  s      Ryd( 3s)     0.00118       0.46145
  18    C  2  px     Val( 2p)     0.53021      -0.21253
  19    C  2  px     Ryd( 3p)     0.00162       0.80635
  20    C  2  py     Val( 2p)     0.54747      -0.23022
  21    C  2  py     Ryd( 3p)     0.00316       0.95194
  22    C  2  pz     Val( 2p)     0.44793      -0.27818
  23    C  2  pz     Ryd( 3p)     0.00097       0.54033
  24    C  2  dxy    Ryd( 3d)     0.00050       2.31344
  25    C  2  dxz    Ryd( 3d)     0.00045       1.83853
  26    C  2  dyz    Ryd( 3d)     0.00058       1.87672
  27    C  2  dx2y2  Ryd( 3d)     0.00053       2.37023
  28    C  2  dz2    Ryd( 3d)     0.00029       2.07934

  29    C  3  s      Cor( 1s)     0.99997     -10.46623
  30    C  3  s      Val( 2s)     0.51422      -0.31753
  31    C  3  s      Ryd( 3s)     0.00045       0.89499
  32    C  3  px     Val( 2p)     0.57660      -0.24004
  33    C  3  px     Ryd( 3p)     0.00204       0.54217
  34    C  3  py     Val( 2p)     0.51080      -0.21776
  35    C  3  py     Ryd( 3p)     0.00127       0.49880
  36    C  3  pz     Val( 2p)     0.62522      -0.26507
  37    C  3  pz     Ryd( 3p)     0.00143       0.66848
  38    C  3  dxy    Ryd( 3d)     0.00029       2.15996
  39    C  3  dxz    Ryd( 3d)     0.00031       2.23824
  40    C  3  dyz    Ryd( 3d)     0.00015       1.99555
  41    C  3  dx2y2  Ryd( 3d)     0.00044       2.15930
  42    C  3  dz2    Ryd( 3d)     0.00044       2.28331

  43    C  4  s      Cor( 1s)     0.99997     -10.46698
  44    C  4  s      Val( 2s)     0.51157      -0.31383
  45    C  4  s      Ryd( 3s)     0.00030       0.90075
  46    C  4  px     Val( 2p)     0.50699      -0.21814
  47    C  4  px     Ryd( 3p)     0.00144       0.51468
  48    C  4  py     Val( 2p)     0.57693      -0.23587
  49    C  4  py     Ryd( 3p)     0.00174       0.49502
  50    C  4  pz     Val( 2p)     0.62547      -0.26544
  51    C  4  pz     Ryd( 3p)     0.00159       0.68286
  52    C  4  dxy    Ryd( 3d)     0.00048       2.21482
  53    C  4  dxz    Ryd( 3d)     0.00020       1.96665
  54    C  4  dyz    Ryd( 3d)     0.00037       2.32582
  55    C  4  dx2y2  Ryd( 3d)     0.00021       2.11570
  56    C  4  dz2    Ryd( 3d)     0.00042       2.25158

  57    C  5  s      Cor( 1s)     0.99998     -10.50439
[...]
   49. BD ( 1) C 10- C 11      57. BD*( 1) C  2- C 11      1.72    1.25   0.058
   49. BD ( 1) C 10- C 11      61. BD*( 1) C  4- C  5      1.12    1.21   0.046
   49. BD ( 1) C 10- C 11      66. BD*( 1) C  5- C 11      1.88    1.34   0.063
   49. BD ( 1) C 10- C 11      71. BD*( 1) C  9- C 10      1.22    1.36   0.051
   49. BD ( 1) C 10- C 11      73. BD*( 1) C  9- H 19      1.05    1.28   0.046
   49. BD ( 1) C 10- C 11      75. BD*( 1) C 10- H 20      0.76    1.27   0.039
   49. BD ( 1) C 10- C 11      87. RY ( 1) C  2            0.65    1.93   0.045
   49. BD ( 1) C 10- C 11     114. RY ( 1) C  5            0.43    2.01   0.037
   49. BD ( 1) C 10- C 11     155. RY ( 1) C  9            0.52    1.91   0.040
   49. BD ( 1) C 10- C 11     156. RY ( 2) C  9            0.89    1.51   0.046
   50. BD ( 1) C 10- H 20      66. BD*( 1) C  5- C 11      2.33    1.21   0.067
   50. BD ( 1) C 10- H 20      70. BD*( 1) C  7- C  9      1.96    1.21   0.061
   50. BD ( 1) C 10- H 20      71. BD*( 1) C  9- C 10      0.40    1.23   0.028
   50. BD ( 1) C 10- H 20      73. BD*( 1) C  9- H 19      0.30    1.15   0.023
   50. BD ( 1) C 10- H 20      74. BD*( 1) C 10- C 11      0.38    1.22   0.027
   50. BD ( 1) C 10- H 20     155. RY ( 1) C  9            0.33    1.78   0.030
   51. 3C ( 1)C1-C2-C11        59. BD*( 1) C  3- H 14      1.62    0.93   0.049
   51. 3C ( 1)C1-C2-C11        60. BD*( 1) C  3- H 15      0.89    0.94   0.036
   51. 3C ( 1)C1-C2-C11        65. BD*( 2) C  5- C  6     10.32    0.47   0.088
   51. 3C ( 1)C1-C2-C11        72. BD*( 2) C  9- C 10      8.04    0.47   0.078
   51. 3C ( 1)C1-C2-C11        76. 3Cn( 1)C1-C2-C11        1.74    0.37   0.032
   51. 3C ( 1)C1-C2-C11       116. RY ( 3) C  5            0.29    1.54   0.027
   51. 3C ( 1)C1-C2-C11       166. RY ( 3) C 10            0.84    1.30   0.042


 NATURAL BOND ORBITALS (Summary):

                                                     Principal Delocalizations
           NBO                 Occupancy    Energy   (geminal,vicinal,remote)
 ===============================================================================
 Molecular unit  1  (C10H9Br)
 ------ Lewis --------------------------------------
    1. CR ( 1) C  1             0.99997   -10.50036
    2. CR ( 1) C  2             0.99998   -10.51069
    3. CR ( 1) C  3             0.99997   -10.46608
    4. CR ( 1) C  4             0.99997   -10.46701
    5. CR ( 1) C  5             0.99998   -10.50303
    6. CR ( 1) C  6             0.99997   -10.48486
    7. CR ( 1) C  7             0.99998   -10.54568
    8. CR ( 1)Br  8             1.00000  -399.35408
    9. CR ( 2)Br  8             1.00000  -131.03421
   10. CR ( 3)Br  8             1.00000   -24.61466
   11. CR ( 4)Br  8             1.00000   -38.55568
   12. CR ( 5)Br  8             1.00000   -24.85761
   13. CR ( 6)Br  8             1.00000   -38.54601
   14. CR ( 7)Br  8             1.00000   -24.84842
   15. CR ( 8)Br  8             1.00000   -38.54731
   16. CR ( 9)Br  8             1.00000   -24.84946
   17. CR (10)Br  8             1.00000    -2.89910
   18. CR (11)Br  8             1.00000    -2.90070
   19. CR (12)Br  8             1.00000    -2.88900
   20. CR (13)Br  8             1.00000    -2.89930
   21. CR (14)Br  8             1.00000    -2.89355
   22. CR ( 1) C  9             0.99998   -10.49192
   23. CR ( 1) C 10             0.99997   -10.49459
   24. CR ( 1) C 11             0.99998   -10.50874
   25. LP ( 1)Br  8             0.99714    -0.90195  133(v),67(v),70(v)
   26. LP ( 2)Br  8             0.98714    -0.51698  70(v),67(v),132(v),71(r)
                                                     64(r)
   27. LP ( 3)Br  8             0.85720    -0.48613  52(v),134(v),142(g),76(r)
   28. BD ( 1) C  1- C  2       0.99294    -0.90765  57(g),56(g),173(v),66(v)
                                                     55(g),54(g),96(v),174(v)
                                                     58(v)
   29. BD ( 1) C  1- H 12       0.99150    -0.74530  56(v),89(v),53(g),57(v)
   30. BD ( 1) C  1- H 13       0.99158    -0.74186  57(v),87(v),53(g),56(v)
   31. BD ( 1) C  2- C  3       0.98628    -0.79220  74(v),53(g),54(v),78(v)
                                                     63(v),57(g),173(v),107(v)
                                                     61(v),58(g),60(g)
   32. BD ( 1) C  2- C 11       0.98385    -0.82937  64(v),74(g),53(g),66(g)
                                                     55(v),78(v),71(v),164(v)
                                                     60(v),114(v),96(v),56(g)
   33. BD ( 1) C  3- C  4       0.98748    -0.76300  64(v),53(v),88(v),115(v)
                                                     61(g),63(g),60(g),56(g)
                                                     57(v),62(g),59(g)
   34. BD ( 1) C  3- H 14       0.97231    -0.69750  76(v),77(v),62(v),105(v)
                                                     63(v),87(v),57(v)
   35. BD ( 1) C  3- H 15       0.98616    -0.70478  57(v),61(v),77(v),76(v)
                                                     62(v),107(v)
   36. BD ( 1) C  4- C  5       0.98687    -0.79389  74(v),64(g),67(v),66(g)
                                                     60(v),123(v),56(v),98(v)
                                                     124(v),63(g),58(g),57(v)
                                                     62(g)
   37. BD ( 1) C  4- H 16       0.96817    -0.69620  65(v),59(v),66(v),96(v)
                                                     60(v),116(v)
   38. BD ( 1) C  4- H 17       0.98070    -0.70224  65(v),66(v),56(v),116(v)
                                                     59(v),98(v)
   39. BD ( 1) C  5- C  6       0.98442    -0.86366  69(v),66(g),67(g),61(g)
                                                     57(v),68(g),133(v),132(v)
                                                     174(v),105(v),58(v)
   40. BD ( 2) C  5- C  6       0.82425    -0.48037  52(v),76(v),62(v),134(v)
                                                     63(v),177(v),65(g),125(g)
                                                     135(v),106(v)
   41. BD ( 1) C  5- C 11       0.98281    -0.85455  74(g),64(g),53(v),75(v)
                                                     57(g),68(v),61(g),87(v)
                                                     164(v),123(v),105(v),124(v)
                                                     63(v)
   42. BD ( 1) C  6- C  7       0.98926    -0.88424  61(v),70(g),64(g),114(v)
                                                     73(v),68(g),155(v)
   43. BD ( 1) C  6- H 18       0.98842    -0.73165  66(v),70(v),133(v),64(g)
                                                     69(v),67(g),114(v)
   44. BD ( 1) C  7-Br  8       0.99156    -0.80594  64(v),71(v),155(v),123(v)
   45. BD ( 1) C  7- C  9       0.99020    -0.88797  67(g),71(g),68(v),75(v)
                                                     73(g),165(v),123(v),164(v)
                                                     124(v)
   46. BD ( 1) C  9- C 10       0.98585    -0.86092  69(v),57(v),173(v),74(g)
                                                     70(g),133(v),73(g),75(g)
                                                     132(v)
   47. BD ( 2) C  9- C 10       0.86202    -0.49060  52(v),76(v),176(v),134(v)
                                                     135(v),157(g),166(g)
   48. BD ( 1) C  9- H 19       0.98860    -0.73402  67(v),74(v),69(v),133(v)
                                                     71(g),70(g),75(v),164(v)
   49. BD ( 1) C 10- C 11       0.98713    -0.86924  66(g),57(g),71(g),61(v)
                                                     73(v),156(v),75(g),87(v)
                                                     155(v),56(v),114(v)
   50. BD ( 1) C 10- H 20       0.98940    -0.73994  66(v),70(v),71(g),74(g)
                                                     155(v),73(v)
   51. 3C ( 1) C  1- C  2- C 11 0.89477    -0.53096  65(v),72(v),76(g),59(v)
                                                     60(v),166(v),116(v)
 ------ non-Lewis ----------------------------------
   52. LV ( 1) C  7             0.38008    -0.28062
   53. BD*( 1) C  1- C  2       0.00693     0.56733
   54. BD*( 1) C  1- H 12       0.00358     0.39089
   55. BD*( 1) C  1- H 13       0.00333     0.39722
   56. BD*( 1) C  2- C  3       0.01247     0.32463
   57. BD*( 1) C  2- C 11       0.01937     0.37691
   58. BD*( 1) C  3- C  4       0.00344     0.30610
   59. BD*( 1) C  3- H 14       0.00611     0.39497
   60. BD*( 1) C  3- H 15       0.00531     0.40735
   61. BD*( 1) C  4- C  5       0.01044     0.34234
   62. BD*( 1) C  4- H 16       0.00529     0.39684
   63. BD*( 1) C  4- H 17       0.00465     0.40592
   64. BD*( 1) C  5- C  6       0.01271     0.49805
   65. BD*( 2) C  5- C  6       0.07829    -0.05864
   66. BD*( 1) C  5- C 11       0.01492     0.47194
   67. BD*( 1) C  6- C  7       0.01258     0.47477
   68. BD*( 1) C  6- H 18       0.00716     0.40336
   69. BD*( 1) C  7-Br  8       0.01358     0.02953
   70. BD*( 1) C  7- C  9       0.01306     0.46846
   71. BD*( 1) C  9- C 10       0.00784     0.49024
   72. BD*( 2) C  9- C 10       0.04809    -0.05839
   73. BD*( 1) C  9- H 19       0.00652     0.41157
   74. BD*( 1) C 10- C 11       0.01270     0.48386
   75. BD*( 1) C 10- H 20       0.00680     0.39810
   76. 3Cn( 1) C  1- C  2- C 11 0.10342    -0.16283
   77. 3C*( 1) C  1- C  2- C 11 0.00759    -0.02384
   78. RY ( 1) C  1             0.00278     0.96059
   79. RY ( 2) C  1             0.00032     0.45588
   80. RY ( 3) C  1             0.00008     0.48388
   81. RY ( 4) C  1             0.00002     0.62834
   82. RY ( 5) C  1             0.00001     2.21074
   83. RY ( 6) C  1             0.00000     2.14785
   84. RY ( 7) C  1             0.00000     1.84344
   85. RY ( 8) C  1             0.00000     2.08638
   86. RY ( 9) C  1             0.00000     1.85619
   87. RY ( 1) C  2             0.00270     1.06424
   88. RY ( 2) C  2             0.00129     0.83166
   89. RY ( 3) C  2             0.00101     0.97041
   90. RY ( 4) C  2             0.00053     0.82273
   91. RY ( 5) C  2             0.00015     1.96005
   92. RY ( 6) C  2             0.00012     1.70523
   93. RY ( 7) C  2             0.00004     1.97581
   94. RY ( 8) C  2             0.00001     2.11153
   95. RY ( 9) C  2             0.00001     1.78808
   96. RY ( 1) C  3             0.00200     0.77695
   97. RY ( 2) C  3             0.00115     0.78030
   98. RY ( 3) C  3             0.00088     0.73225
   99. RY ( 4) C  3             0.00019     1.67438
  100. RY ( 5) C  3             0.00015     1.22176
  101. RY ( 6) C  3             0.00002     1.90642
  102. RY ( 7) C  3             0.00001     2.04758
  103. RY ( 8) C  3             0.00000     2.10590
  104. RY ( 9) C  3             0.00000     2.18208
  105. RY ( 1) C  4             0.00194     0.73935
  106. RY ( 2) C  4             0.00122     0.76479
  107. RY ( 3) C  4             0.00077     0.69513
  108. RY ( 4) C  4             0.00016     1.73190
  109. RY ( 5) C  4             0.00013     1.18939
  110. RY ( 6) C  4             0.00002     1.96105
  111. RY ( 7) C  4             0.00000     2.01080
  112. RY ( 8) C  4             0.00001     2.16542
  113. RY ( 9) C  4             0.00000     2.19594
  114. RY ( 1) C  5             0.00264     1.13810
  115. RY ( 2) C  5             0.00150     0.95772
  116. RY ( 3) C  5             0.00100     1.00561
  117. RY ( 4) C  5             0.00047     0.68788
  118. RY ( 5) C  5             0.00019     1.83332
  119. RY ( 6) C  5             0.00013     2.12441
  120. RY ( 7) C  5             0.00010     1.48629
  121. RY ( 8) C  5             0.00003     2.09409
  122. RY ( 9) C  5             0.00001     2.09603
  123. RY ( 1) C  6             0.00359     1.05045
  124. RY ( 2) C  6             0.00177     0.62546
  125. RY ( 3) C  6             0.00053     0.52121
  126. RY ( 4) C  6             0.00045     0.55728
  127. RY ( 5) C  6             0.00009     1.79572
  128. RY ( 6) C  6             0.00004     2.22953
  129. RY ( 7) C  6             0.00002     1.81626
  130. RY ( 8) C  6             0.00001     2.24406
  131. RY ( 9) C  6             0.00000     2.11469
  132. RY ( 1) C  7             0.00385     0.69305
  133. RY ( 2) C  7             0.00347     1.01526
  134. RY ( 3) C  7             0.00173     0.89545
  135. RY ( 4) C  7             0.00041     1.74577
  136. RY ( 5) C  7             0.00041     0.56026
  137. RY ( 6) C  7             0.00026     2.21228
  138. RY ( 7) C  7             0.00016     1.98669
  139. RY ( 8) C  7             0.00000     1.31232
  140. RY ( 9) C  7             0.00000     2.08585
  141. RY ( 1)Br  8             0.00060     0.62602
  142. RY ( 2)Br  8             0.00057     0.53520
  143. RY ( 3)Br  8             0.00014     0.51129
  144. RY ( 4)Br  8             0.00005     0.85456
  145. RY ( 5)Br  8             0.00002     0.47211
  146. RY ( 6)Br  8             0.00001     0.72455
  147. RY ( 7)Br  8             0.00000     0.88602
  148. RY ( 8)Br  8             0.00000     0.76400
  149. RY ( 9)Br  8             0.00000     3.43312
  150. RY (10)Br  8             0.00000     0.91215
  151. RY (11)Br  8             0.00000     3.28809
  152. RY (12)Br  8             0.00000     3.36075
  153. RY (13)Br  8             0.00000     3.48950
  154. RY (14)Br  8             0.00000     3.09561
  155. RY ( 1) C  9             0.00335     1.03926
  156. RY ( 2) C  9             0.00139     0.64028
  157. RY ( 3) C  9             0.00053     0.69457
  158. RY ( 4) C  9             0.00045     0.53276
  159. RY ( 5) C  9             0.00008     2.25431
  160. RY ( 6) C  9             0.00006     1.63736
  161. RY ( 7) C  9             0.00002     2.23084
  162. RY ( 8) C  9             0.00002     1.76907
  163. RY ( 9) C  9             0.00000     2.11241
  164. RY ( 1) C 10             0.00298     1.07379
  165. RY ( 2) C 10             0.00136     0.66683
  166. RY ( 3) C 10             0.00055     0.77005
  167. RY ( 4) C 10             0.00026     0.61314
  168. RY ( 5) C 10             0.00009     1.60431
  169. RY ( 6) C 10             0.00005     2.19875
  170. RY ( 7) C 10             0.00001     2.25899
  171. RY ( 8) C 10             0.00000     2.12776
  172. RY ( 9) C 10             0.00000     1.78326
  173. RY ( 1) C 11             0.00280     1.05717
  174. RY ( 2) C 11             0.00156     1.12458
  175. RY ( 3) C 11             0.00110     0.66123
  176. RY ( 4) C 11             0.00046     1.67751
  177. RY ( 5) C 11             0.00034     1.30756
  178. RY ( 6) C 11             0.00009     1.48858
  179. RY ( 7) C 11             0.00007     2.00208
  180. RY ( 8) C 11             0.00004     2.00414
  181. RY ( 9) C 11             0.00001     2.09111
  182. RY ( 1) H 12             0.00054     0.34864
  183. RY ( 2) H 12             0.00004     1.56672
  184. RY ( 3) H 12             0.00004     1.91888
  185. RY ( 4) H 12             0.00002     2.09750
  186. RY ( 1) H 13             0.00046     0.33410
  187. RY ( 2) H 13             0.00003     1.99577
  188. RY ( 3) H 13             0.00002     1.56548
  189. RY ( 4) H 13             0.00002     2.02761
  190. RY ( 1) H 14             0.00076     0.30364
  191. RY ( 2) H 14             0.00005     1.77814
  192. RY ( 3) H 14             0.00003     1.79327
  193. RY ( 4) H 14             0.00000     2.21102
  194. RY ( 1) H 15             0.00062     0.30532
  195. RY ( 2) H 15             0.00004     1.82243
  196. RY ( 3) H 15             0.00002     1.74035
  197. RY ( 4) H 15             0.00001     2.19739
  198. RY ( 1) H 16             0.00063     0.30700
  199. RY ( 2) H 16             0.00005     1.78350
  200. RY ( 3) H 16             0.00003     1.79045
  201. RY ( 4) H 16             0.00000     2.20322
  202. RY ( 1) H 17             0.00054     0.30793
  203. RY ( 2) H 17             0.00004     1.81812
  204. RY ( 3) H 17             0.00003     1.75790
  205. RY ( 4) H 17             0.00001     2.19542
  206. RY ( 1) H 18             0.00067     0.29593
  207. RY ( 2) H 18             0.00007     1.60801
  208. RY ( 3) H 18             0.00003     2.18595
  209. RY ( 4) H 18             0.00002     2.05291
  210. RY ( 1) H 19             0.00069     0.28516
  211. RY ( 2) H 19             0.00005     1.59302
  212. RY ( 3) H 19             0.00003     2.16200
  213. RY ( 4) H 19             0.00001     2.05465
  214. RY ( 1) H 20             0.00064     0.30130
  215. RY ( 2) H 20             0.00006     1.58790
  216. RY ( 3) H 20             0.00003     2.28736
  217. RY ( 4) H 20             0.00001     1.93260
          -------------------------------
                 Total Lewis   50.12776  ( 98.2897%)
           Valence non-Lewis    0.80627  (  1.5809%)
           Rydberg non-Lewis    0.06598  (  0.1294%)
          -------------------------------
               Total unit  1   51.00000  (100.0000%)
              Charge unit  1    1.00000

 $CHOOSE
  ALPHA
   LONE 8 3 END
   BOND D 1 2 S 1 12 S 1 13 S 2 3 S 2 11 S 3 4 S 3 14 S 3 15 S 4 5 S 4 16
        S 4 17 S 5 6 D 5 11 D 6 7 S 6 18 S 7 8 S 7 9 D 9 10 S 9 19 S 10 11
        S 10 20 END
  END
  BETA
   LONE 8 3 END
   BOND S 1 2 S 1 12 S 1 13 S 2 3 S 2 11 S 3 4 S 3 14 S 3 15 S 4 5 S 4 16
        S 4 17 D 5 6 S 5 11 S 6 7 S 6 18 S 7 8 S 7 9 D 9 10 S 9 19 S 10 11
        S 10 20 END
     3C S 1 2 11 END
  END
 $END

 NBO analysis completed in 1.38 CPU seconds (2 wall seconds)
 Maximum scratch memory used by NBO was 909093 words (6.94 MB)
 Maximum scratch memory used by G16NBO was 103734 words (0.79 MB)

 Opening RunExU unformatted file "/home/rpaton/opt/dzvp/fukui/Gau-1851629.EUF"
 Read unf file /home/rpaton/opt/dzvp/fukui/Gau-1851629.EUF:
 Label Gaussian matrix elements                                         IVers= 2 NLab= 2 Version=ES64L-G16RevC.01
 Title arbr79_wb97xd_popncreated by GaussianPrep                       
 NAtoms=    20 NBasis=   217 NBsUse=   217 ICharg=     1 Multip=     2 NE=   103 Len12L=8 Len4L=8 IOpCl= 1 ICGU=112
 GAUSSIAN SCALARS                    NI= 1 NR= 1 NTot=       1 LenBuf=    2 NRI=1 N=    1000
 NPA CHARGES                         NI= 0 NR= 1 NTot=      20 LenBuf= 2048 NRI=1 N=      20
 Recovered energy= -2959.67744374     dipole=     -2.839599794925      0.371327327574     -0.023801056124
 Unable to Open any file for archive entry.
 1\1\GINC-DYNAMO\SP\UwB97XD\def2SVP\C10H9Br1(1+,2)\RPATON\27-Sep-2024\0
 \\# pop=(nbo6,hirshfeld) wb97xd/def2svp\\arbr79_wb97xd_popncreated by 
 GaussianPrep\\1,2\C,0,-3.968366,1.387681,-0.132112\C,0,-3.102758,0.380
 186,0.012471\C,0,-3.450303,-1.088332,0.198733\C,0,-2.152911,-1.867494,
 -0.107012\C,0,-1.072845,-0.815174,-0.03474\C,0,0.307337,-0.994541,-0.0
 42587\C,0,1.121438,0.137114,-0.000584\Br,0,3.003194,-0.075465,-0.00063
 6\C,0,0.581294,1.42583,0.045187\C,0,-0.800856,1.592445,0.051456\C,0,-1
 .628752,0.469514,0.01323\H,0,-3.630004,2.419117,-0.25746\H,0,-5.046992
 ,1.213015,-0.133205\H,0,-3.750003,-1.25189,1.247129\H,0,-4.297658,-1.3
 98048,-0.428792\H,0,-2.178101,-2.304339,-1.119306\H,0,-1.976595,-2.697
 676,0.592778\H,0,0.748515,-1.992248,-0.080349\H,0,1.243776,2.291745,0.
 081375\H,0,-1.224417,2.598232,0.09582\\Version=ES64L-G16RevC.01\State=
 2-A\HF=-2959.6774437\S2=0.78658\S2-1=0.\S2A=0.750477\RMSD=7.246e-09\Di
 pole=-2.8395998,0.371327,-0.0238011\Quadrupole=18.380543,-2.2765182,-1
 6.1040248,-1.9853467,0.2747644,-0.0698551\PG=C01 [X(C10H9Br1)]\\@
 The archive entry for this job was punched.


 EDUCATION WITHOUT COMMON SENSE IS A LOAD OF BOOKS ON THE BACK OF AN ASS.
 Job cpu time:       0 days  0 hours 12 minutes 35.1 seconds.
 Elapsed time:       0 days  0 hours  0 minutes 31.7 seconds.
 File lengths (MBytes):  RWF=     50 Int=      0 D2E=      0 Chk=      4 Scr=      1
 Normal termination of Gaussian 16 at Fri Sep 27 21:03:04 2024.
