 Entering Gaussian System, Link 0=/usr/local/Gaussian/G16C/g16/g16
 Input=arbr39_wb97xd_oxd.com
 Output=arbr39_wb97xd_oxd.log
 Initial command:
 /usr/local/Gaussian/G16C/g16/l1.exe "/home/rpaton/opt/dzvp/fukui/Gau-1748201.inp" -scrdir="/home/rpaton/opt/dzvp/fukui/"
 Entering Link 1 = /usr/local/Gaussian/G16C/g16/l1.exe PID=   1748202.
  
 Copyright (c) 1988-2019, Gaussian, Inc.  All Rights Reserved.
  
 This is part of the Gaussian(R) 16 program.  It is based on
 the Gaussian(R) 09 system (copyright 2009, Gaussian, Inc.),
 the Gaussian(R) 03 system (copyright 2003, Gaussian, Inc.),
 the Gaussian(R) 98 system (copyright 1998, Gaussian, Inc.),
 the Gaussian(R) 94 system (copyright 1995, Gaussian, Inc.),
 the Gaussian 92(TM) system (copyright 1992, Gaussian, Inc.),
 the Gaussian 90(TM) system (copyright 1990, Gaussian, Inc.),
 the Gaussian 88(TM) system (copyright 1988, Gaussian, Inc.),
 the Gaussian 86(TM) system (copyright 1986, Carnegie Mellon
 University), and the Gaussian 82(TM) system (copyright 1983,
 Carnegie Mellon University). Gaussian is a federally registered
 trademark of Gaussian, Inc.
  
 This software contains proprietary and confidential information,
 including trade secrets, belonging to Gaussian, Inc.
  
 This software is provided under written license and may be
 used, copied, transmitted, or stored only in accord with that
 written license.
  
 The following legend is applicable only to US Government
 contracts under FAR:
  
                    RESTRICTED RIGHTS LEGEND
  
 Use, reproduction and disclosure by the US Government is
 subject to restrictions as set forth in subparagraphs (a)
 and (c) of the Commercial Computer Software - Restricted
 Rights clause in FAR 52.227-19.
  
 Gaussian, Inc.
 340 Quinnipiac St., Bldg. 40, Wallingford CT 06492
  
  
 ---------------------------------------------------------------
 Warning -- This program may not be used in any manner that
 competes with the business of Gaussian, Inc. or will provide
 assistance to any competitor of Gaussian, Inc.  The licensee
 of this program is prohibited from giving any competitor of
 Gaussian, Inc. access to this program.  By using this program,
 the user acknowledges that Gaussian, Inc. is engaged in the
 business of creating and licensing software in the field of
 computational chemistry and represents and warrants to the
 licensee that it is not a competitor of Gaussian, Inc. and that
 it will not use this program in any manner prohibited above.
 ---------------------------------------------------------------
  

 Cite this work as:
 Gaussian 16, Revision C.01,
 M. J. Frisch, G. W. Trucks, H. B. Schlegel, G. E. Scuseria, 
 M. A. Robb, J. R. Cheeseman, G. Scalmani, V. Barone, 
 G. A. Petersson, H. Nakatsuji, X. Li, M. Caricato, A. V. Marenich, 
 J. Bloino, B. G. Janesko, R. Gomperts, B. Mennucci, H. P. Hratchian, 
 J. V. Ortiz, A. F. Izmaylov, J. L. Sonnenberg, D. Williams-Young, 
 F. Ding, F. Lipparini, F. Egidi, J. Goings, B. Peng, A. Petrone, 
 T. Henderson, D. Ranasinghe, V. G. Zakrzewski, J. Gao, N. Rega, 
 G. Zheng, W. Liang, M. Hada, M. Ehara, K. Toyota, R. Fukuda, 
 J. Hasegawa, M. Ishida, T. Nakajima, Y. Honda, O. Kitao, H. Nakai, 
 T. Vreven, K. Throssell, J. A. Montgomery, Jr., J. E. Peralta, 
 F. Ogliaro, M. J. Bearpark, J. J. Heyd, E. N. Brothers, K. N. Kudin, 
 V. N. Staroverov, T. A. Keith, R. Kobayashi, J. Normand, 
 K. Raghavachari, A. P. Rendell, J. C. Burant, S. S. Iyengar, 
 J. Tomasi, M. Cossi, J. M. Millam, M. Klene, C. Adamo, R. Cammi, 
 J. W. Ochterski, R. L. Martin, K. Morokuma, O. Farkas, 
 J. B. Foresman, and D. J. Fox, Gaussian, Inc., Wallingford CT, 2019.
 
 ******************************************
 Gaussian 16:  ES64L-G16RevC.01  3-Jul-2019
                27-Sep-2024 
 ******************************************
 %chk=arbr39_wb97xd_popn.chk
 %mem=48GB
 %nprocshared=24
 Will use up to   24 processors via shared memory.
 -------------------------------------
 # pop=(nbo6,hirshfeld) wb97xd/def2svp
 -------------------------------------
 1/38=1,172=1/1;
 2/12=2,17=6,18=5,40=1/2;
 3/5=43,7=101,11=2,25=1,30=1,74=-58/1,2,3;
 4//1;
 5/5=2,38=5/2;
 6/7=2,8=2,9=2,10=2,28=1,40=1,79=1,113=1,114=1,124=3103,126=1/1,12;
 99/5=1,9=1/99;
 -----------------------------------------
 arbr39_wb97xd_popncreated by GaussianPrep
 -----------------------------------------
 Symbolic Z-matrix:
 Charge =  1 Multiplicity = 2
 O                     1.7345   -2.18905  -0.00001 
 C                     1.61956  -0.98803   0.00011 
 C                     0.35423  -0.21289   0.00005 
 C                    -0.94974  -0.70668   0.00003 
 C                    -1.98458   0.22047   0. 
 Br                   -3.78102  -0.37429  -0.00001 
 C                    -1.72148   1.59837  -0.00001 
 C                    -0.41039   2.06855  0. 
 C                     0.6399    1.15043   0.00002 
 C                     2.12793   1.40787   0. 
 C                     2.77838   0.00878   0.00002 
 C                     3.87582  -0.24329   1.07218 
 C                     4.95564  -0.00216  -0.00006 
 C                     3.87574  -0.24336  -1.07221 
 H                    -1.1325   -1.78268   0.00005 
 H                    -2.55548   2.30238  -0.00003 
 H                    -0.21969   3.14414  -0.00002 
 H                     2.41904   1.99825   0.88365 
 H                     2.41901   1.9982   -0.88369 
 H                     3.86162   0.41051   1.9569 
 H                     3.8504   -1.2938    1.39711 
 H                     5.82945  -0.66875  -0.00007 
 H                     5.30985   1.03962  -0.00011 
 H                     3.86148   0.41038  -1.95697 
 H                     3.8503   -1.29389  -1.39707 
 
                          Input orientation:                          
 ---------------------------------------------------------------------
 Center     Atomic      Atomic             Coordinates (Angstroms)
 Number     Number       Type             X           Y           Z
 ---------------------------------------------------------------------
      1          8           0        1.734501   -2.189052   -0.000010
      2          6           0        1.619555   -0.988030    0.000106
      3          6           0        0.354225   -0.212893    0.000047
      4          6           0       -0.949743   -0.706681    0.000030
      5          6           0       -1.984577    0.220469    0.000003
      6         35           0       -3.781015   -0.374294   -0.000011
      7          6           0       -1.721483    1.598374   -0.000010
      8          6           0       -0.410386    2.068554   -0.000001
      9          6           0        0.639903    1.150428    0.000023
     10          6           0        2.127929    1.407871    0.000001
     11          6           0        2.778383    0.008775    0.000015
     12          6           0        3.875817   -0.243289    1.072180
     13          6           0        4.955640   -0.002161   -0.000061
     14          6           0        3.875741   -0.243356   -1.072210
     15          1           0       -1.132502   -1.782680    0.000049
     16          1           0       -2.555483    2.302381   -0.000032
     17          1           0       -0.219689    3.144138   -0.000023
     18          1           0        2.419042    1.998245    0.883647
     19          1           0        2.419011    1.998200   -0.883685
     20          1           0        3.861620    0.410506    1.956895
     21          1           0        3.850396   -1.293801    1.397112
     22          1           0        5.829451   -0.668754   -0.000070
     23          1           0        5.309848    1.039621   -0.000107
     24          1           0        3.861484    0.410382   -1.956966
     25          1           0        3.850298   -1.293890   -1.397073
 ---------------------------------------------------------------------
                    Distance matrix (angstroms):
                    1          2          3          4          5
     1  O    0.000000
     2  C    1.206510   0.000000
     3  C    2.410470   1.483879   0.000000
     4  C    3.066364   2.584657   1.394331   0.000000
     5  C    4.431403   3.801347   2.378612   1.389420   0.000000
     6  Br   5.806398   5.435331   4.138389   2.850716   1.892335
     7  C    5.127224   4.225165   2.754860   2.430815   1.402797
     8  C    4.767363   3.669246   2.406165   2.827160   2.427652
     9  C    3.514295   2.352174   1.392931   2.444551   2.784370
    10  C    3.618375   2.449242   2.402686   3.734086   4.280494
    11  C    2.433132   1.528562   2.434272   3.796156   4.767662
    12  C    3.085582   2.606665   3.681305   4.964904   5.975688
    13  C    3.893357   3.478707   4.606238   5.947260   6.943787
    14  C    3.085491   2.606679   3.681269   4.964843   5.975626
    15  H    2.895660   2.864487   2.162080   1.091410   2.176841
    16  H    6.211033   5.315802   3.846167   3.410697   2.158771
    17  H    5.679945   4.523011   3.405736   3.919411   3.415065
    18  H    4.333925   3.215224   3.151722   4.409775   4.830442
    19  H    4.333880   3.215243   3.151707   4.409743   4.830406
    20  H    3.887392   3.288127   4.064443   5.312875   6.167946
    21  H    2.688947   2.649863   3.917061   5.033675   6.188040
    22  H    4.368057   4.221985   5.494170   6.779300   7.864461
    23  H    4.817410   4.210657   5.111457   6.498619   7.340276
    24  H    3.887260   3.288150   4.064386   5.312774   6.167838
    25  H    2.688810   2.649882   3.917017   5.033598   6.187962
                    6          7          8          9         10
     6  Br   0.000000
     7  C    2.851857   0.000000
     8  C    4.162769   1.392855   0.000000
     9  C    4.676462   2.403497   1.395013   0.000000
    10  C    6.171850   3.854123   2.622889   1.510132   0.000000
    11  C    6.570574   4.772381   3.796174   2.424143   1.542906
    12  C    7.732647   5.989247   4.986555   3.682812   2.632681
    13  C    8.744577   6.866271   5.751704   4.466995   3.159769
    14  C    7.732572   5.989199   4.986526   3.682793   2.632686
    15  H    2.999695   3.431971   3.918348   3.427031   4.561801
    16  H    2.943895   1.091413   2.157804   3.396688   4.768070
    17  H    5.006237   2.155173   1.092358   2.171124   2.919920
    18  H    6.697052   4.252610   2.965036   2.159843   1.101870
    19  H    6.697009   4.252580   2.965018   2.159834   1.101870
    20  H    7.928131   6.034198   4.982831   3.841392   2.798188
    21  H    7.812546   6.431365   5.604607   4.270056   3.495403
    22  H    9.614976   7.883938   6.813840   5.499166   4.244247
    23  H    9.200160   7.053497   5.812038   4.671259   3.203157
    24  H    7.928000   6.034113   4.982782   3.841361   2.798199
    25  H    7.812450   6.431308   5.604576   4.270036   3.495409
                   11         12         13         14         15
    11  C    0.000000
    12  C    1.554810   0.000000
    13  C    2.177284   1.540734   0.000000
    14  C    1.554809   2.144390   1.540734   0.000000
    15  H    4.301666   5.348126   6.343163   5.348061   0.000000
    16  H    5.806096   6.999407   7.856709   6.999356   4.325806
    17  H    4.338080   5.421942   6.056668   5.421923   5.010665
    18  H    2.206337   2.679965   3.349163   3.312420   5.262091
    19  H    2.206329   3.312396   3.349138   2.679958   5.262061
    20  H    2.272481   1.100168   2.279660   3.098905   5.794874
    21  H    2.190387   1.099910   2.200452   2.683585   5.198082
    22  H    3.125390   2.268794   1.099041   2.268795   7.050505
    23  H    2.733305   2.202749   1.100351   2.202748   7.033438
    24  H    2.272481   3.098906   2.279659   1.100168   5.794767
    25  H    2.190386   2.683584   2.200452   1.099911   5.197996
                   16         17         18         19         20
    16  H    0.000000
    17  H    2.482839   0.000000
    18  H    5.061550   3.009459   0.000000
    19  H    5.061517   3.009447   1.767332   0.000000
    20  H    6.970507   5.287661   2.398710   3.559605   0.000000
    21  H    7.477956   6.181657   3.626291   4.253019   1.793919
    22  H    8.895772   7.150541   4.418680   4.418656   2.977730
    23  H    7.966053   5.916483   3.171236   3.171202   2.514559
    24  H    6.970417   5.287629   3.559639   2.398714   3.913861
    25  H    7.477895   6.181637   4.253038   3.626294   3.762206
                   21         22         23         24         25
    21  H    0.000000
    22  H    2.501891   0.000000
    23  H    3.086597   1.785646   0.000000
    24  H    3.762207   2.977729   2.514557   0.000000
    25  H    2.794185   2.501891   3.086596   1.793920   0.000000
 Stoichiometry    C12H11BrO(1+,2)
 Framework group  C1[X(C12H11BrO)]
 Deg. of freedom    69
 Full point group                 C1      NOp   1
 Largest Abelian subgroup         C1      NOp   1
 Largest concise Abelian subgroup C1      NOp   1
                         Standard orientation:                         
 ---------------------------------------------------------------------
 Center     Atomic      Atomic             Coordinates (Angstroms)
 Number     Number       Type             X           Y           Z
 ---------------------------------------------------------------------
      1          8           0       -1.734501   -2.189052    0.000010
      2          6           0       -1.619555   -0.988030   -0.000106
      3          6           0       -0.354225   -0.212893   -0.000047
      4          6           0        0.949743   -0.706681   -0.000030
      5          6           0        1.984577    0.220469   -0.000003
      6         35           0        3.781015   -0.374294    0.000011
      7          6           0        1.721483    1.598374    0.000010
      8          6           0        0.410386    2.068554    0.000001
      9          6           0       -0.639903    1.150428   -0.000023
     10          6           0       -2.127929    1.407871   -0.000001
     11          6           0       -2.778383    0.008775   -0.000015
     12          6           0       -3.875817   -0.243289   -1.072180
     13          6           0       -4.955640   -0.002161    0.000061
     14          6           0       -3.875741   -0.243356    1.072210
     15          1           0        1.132502   -1.782680   -0.000049
     16          1           0        2.555483    2.302381    0.000032
     17          1           0        0.219689    3.144138    0.000023
     18          1           0       -2.419042    1.998245   -0.883647
     19          1           0       -2.419011    1.998200    0.883685
     20          1           0       -3.861620    0.410506   -1.956895
     21          1           0       -3.850396   -1.293801   -1.397112
     22          1           0       -5.829451   -0.668754    0.000070
     23          1           0       -5.309848    1.039621    0.000107
     24          1           0       -3.861484    0.410382    1.956966
     25          1           0       -3.850298   -1.293890    1.397073
 ---------------------------------------------------------------------
 Rotational constants (GHZ):           1.6743255           0.2216183           0.2021025
 Standard basis: def2SVP (5D, 7F)
 There are   285 symmetry adapted cartesian basis functions of A   symmetry.
 There are   269 symmetry adapted basis functions of A   symmetry.
   269 basis functions,   482 primitive gaussians,   285 cartesian basis functions
    63 alpha electrons       62 beta electrons
       nuclear repulsion energy      1112.1622812857 Hartrees.
 NAtoms=   25 NActive=   25 NUniq=   25 SFac= 1.00D+00 NAtFMM=   60 NAOKFM=F Big=F
 Integral buffers will be    131072 words long.
 Raffenetti 2 integral format.
 Two-electron integral symmetry is turned on.
 Nuclear repulsion after empirical dispersion term =     1112.1442303618 Hartrees.
 One-electron integrals computed using PRISM.
   1 Symmetry operations used in ECPInt.
 ECPInt:  NShTT=    7626 NPrTT=   29403 LenC2=    7141 LenP2D=   20128.
 LDataN:  DoStor=T MaxTD1= 4 Len=   56
 NBasis=   269 RedAO= T EigKep=  2.58D-04  NBF=   269
 NBsUse=   269 1.00D-06 EigRej= -1.00D+00 NBFU=   269
 ExpMin= 1.22D-01 ExpMax= 1.13D+05 ExpMxC= 1.70D+04 IAcc=3 IRadAn=         5 AccDes= 0.00D+00
 Harris functional with IExCor= 4639 and IRadAn=       5 diagonalized for initial guess.
 HarFok:  IExCor= 4639 AccDes= 0.00D+00 IRadAn=         5 IDoV= 1 UseB2=F ITyADJ=14
 ICtDFT=  3500011 ScaDFX=  1.000000  1.000000  1.000000  1.000000
 FoFCou: FMM=F IPFlag=           0 FMFlag=      100000 FMFlg1=           0
         NFxFlg=           0 DoJE=T BraDBF=F KetDBF=T FulRan=T
         wScrn=  0.000000 ICntrl=       500 IOpCl=  0 I1Cent=   200000004 NGrid=           0
         NMat0=    1 NMatS0=      1 NMatT0=    0 NMatD0=    1 NMtDS0=    0 NMtDT0=    0
 Petite list used in FoFCou.
 Initial guess <Sx>= 0.0000 <Sy>= 0.0000 <Sz>= 0.5000 <S**2>= 0.7500 S= 0.5000
 Requested convergence on RMS density matrix=1.00D-08 within 128 cycles.
 Requested convergence on MAX density matrix=1.00D-06.
 Requested convergence on             energy=1.00D-06.
 No special actions if energy rises.
 Integral accuracy reduced to 1.0D-05 until final iterations.
 Initial convergence to 1.0D-05 achieved.  Increase integral accuracy.
 SCF Done:  E(UwB97XD) =  -3112.12840794     A.U. after   25 cycles
            NFock= 25  Conv=0.47D-08     -V/T= 2.0027
 <Sx>= 0.0000 <Sy>= 0.0000 <Sz>= 0.5000 <S**2>= 0.7581 S= 0.5040
 <L.S>= 0.000000000000E+00
 Annihilation of the first spin contaminant:
 S**2 before annihilation     0.7581,   after     0.7500

 **********************************************************************

            Population analysis using the SCF Density.

 **********************************************************************

 Orbital symmetries:
 Alpha Orbitals:
       Occupied  (A) (A) (A) (A) (A) (A) (A) (A) (A) (A) (A) (A)
                 (A) (A) (A) (A) (A) (A) (A) (A) (A) (A) (A) (A)
                 (A) (A) (A) (A) (A) (A) (A) (A) (A) (A) (A) (A)
                 (A) (A) (A) (A) (A) (A) (A) (A) (A) (A) (A) (A)
                 (A) (A) (A) (A) (A) (A) (A) (A) (A) (A) (A) (A)
                 (A) (A) (A)
       Virtual   (A) (A) (A) (A) (A) (A) (A) (A) (A) (A) (A) (A)
                 (A) (A) (A) (A) (A) (A) (A) (A) (A) (A) (A) (A)
                 (A) (A) (A) (A) (A) (A) (A) (A) (A) (A) (A) (A)
                 (A) (A) (A) (A) (A) (A) (A) (A) (A) (A) (A) (A)
                 (A) (A) (A) (A) (A) (A) (A) (A) (A) (A) (A) (A)
                 (A) (A) (A) (A) (A) (A) (A) (A) (A) (A) (A) (A)
                 (A) (A) (A) (A) (A) (A) (A) (A) (A) (A) (A) (A)
                 (A) (A) (A) (A) (A) (A) (A) (A) (A) (A) (A) (A)
                 (A) (A) (A) (A) (A) (A) (A) (A) (A) (A) (A) (A)
                 (A) (A) (A) (A) (A) (A) (A) (A) (A) (A) (A) (A)
                 (A) (A) (A) (A) (A) (A) (A) (A) (A) (A) (A) (A)
                 (A) (A) (A) (A) (A) (A) (A) (A) (A) (A) (A) (A)
                 (A) (A) (A) (A) (A) (A) (A) (A) (A) (A) (A) (A)
                 (A) (A) (A) (A) (A) (A) (A) (A) (A) (A) (A) (A)
                 (A) (A) (A) (A) (A) (A) (A) (A) (A) (A) (A) (A)
                 (A) (A) (A) (A) (A) (A) (A) (A) (A) (A) (A) (A)
                 (A) (A) (A) (A) (A) (A) (A) (A) (A) (A) (A) (A)
                 (A) (A)
 Beta  Orbitals:
       Occupied  (A) (A) (A) (A) (A) (A) (A) (A) (A) (A) (A) (A)
                 (A) (A) (A) (A) (A) (A) (A) (A) (A) (A) (A) (A)
                 (A) (A) (A) (A) (A) (A) (A) (A) (A) (A) (A) (A)
                 (A) (A) (A) (A) (A) (A) (A) (A) (A) (A) (A) (A)
                 (A) (A) (A) (A) (A) (A) (A) (A) (A) (A) (A) (A)
                 (A) (A)
       Virtual   (A) (A) (A) (A) (A) (A) (A) (A) (A) (A) (A) (A)
                 (A) (A) (A) (A) (A) (A) (A) (A) (A) (A) (A) (A)
                 (A) (A) (A) (A) (A) (A) (A) (A) (A) (A) (A) (A)
                 (A) (A) (A) (A) (A) (A) (A) (A) (A) (A) (A) (A)
                 (A) (A) (A) (A) (A) (A) (A) (A) (A) (A) (A) (A)
                 (A) (A) (A) (A) (A) (A) (A) (A) (A) (A) (A) (A)
                 (A) (A) (A) (A) (A) (A) (A) (A) (A) (A) (A) (A)
                 (A) (A) (A) (A) (A) (A) (A) (A) (A) (A) (A) (A)
                 (A) (A) (A) (A) (A) (A) (A) (A) (A) (A) (A) (A)
                 (A) (A) (A) (A) (A) (A) (A) (A) (A) (A) (A) (A)
                 (A) (A) (A) (A) (A) (A) (A) (A) (A) (A) (A) (A)
                 (A) (A) (A) (A) (A) (A) (A) (A) (A) (A) (A) (A)
                 (A) (A) (A) (A) (A) (A) (A) (A) (A) (A) (A) (A)
                 (A) (A) (A) (A) (A) (A) (A) (A) (A) (A) (A) (A)
                 (A) (A) (A) (A) (A) (A) (A) (A) (A) (A) (A) (A)
                 (A) (A) (A) (A) (A) (A) (A) (A) (A) (A) (A) (A)
                 (A) (A) (A) (A) (A) (A) (A) (A) (A) (A) (A) (A)
                 (A) (A) (A)
 The electronic state is 2-A.
 Alpha  occ. eigenvalues -- -483.18892 -62.77091 -56.57893 -56.57490 -56.57476
 Alpha  occ. eigenvalues --  -19.56251 -10.62475 -10.52786 -10.51411 -10.51316
 Alpha  occ. eigenvalues --  -10.50130 -10.49073 -10.48423 -10.48340 -10.47559
 Alpha  occ. eigenvalues --  -10.47086 -10.47083 -10.45103  -8.94043  -6.76691
 Alpha  occ. eigenvalues --   -6.75229  -6.75189  -2.87045  -2.86629  -2.86599
 Alpha  occ. eigenvalues --   -2.85433  -2.85433  -1.42847  -1.17594  -1.13566
 Alpha  occ. eigenvalues --   -1.08484  -1.03942  -1.01788  -0.96588  -0.95087
 Alpha  occ. eigenvalues --   -0.92343  -0.89405  -0.86455  -0.83932  -0.80833
 Alpha  occ. eigenvalues --   -0.78707  -0.77556  -0.75875  -0.74162  -0.73030
 Alpha  occ. eigenvalues --   -0.71353  -0.70478  -0.69755  -0.67766  -0.64969
 Alpha  occ. eigenvalues --   -0.64269  -0.64069  -0.63197  -0.60478  -0.60355
 Alpha  occ. eigenvalues --   -0.59312  -0.56632  -0.56194  -0.56124  -0.54679
 Alpha  occ. eigenvalues --   -0.51540  -0.49639  -0.46402
 Alpha virt. eigenvalues --   -0.20136  -0.11368  -0.07755  -0.05163  -0.00996
 Alpha virt. eigenvalues --    0.00182   0.02244   0.02344   0.03983   0.04484
 Alpha virt. eigenvalues --    0.05135   0.06482   0.08281   0.08772   0.09381
 Alpha virt. eigenvalues --    0.09736   0.09996   0.11316   0.13160   0.13776
 Alpha virt. eigenvalues --    0.15154   0.16124   0.16595   0.16850   0.20162
 Alpha virt. eigenvalues --    0.21897   0.22235   0.25840   0.26455   0.27719
 Alpha virt. eigenvalues --    0.28275   0.30490   0.32231   0.33937   0.34399
 Alpha virt. eigenvalues --    0.35527   0.36562   0.37275   0.37652   0.39492
 Alpha virt. eigenvalues --    0.41817   0.42653   0.42794   0.43425   0.43912
 Alpha virt. eigenvalues --    0.46074   0.46660   0.47537   0.47606   0.48342
 Alpha virt. eigenvalues --    0.50086   0.50783   0.52077   0.52522   0.54506
 Alpha virt. eigenvalues --    0.55354   0.55658   0.55999   0.56304   0.57688
 Alpha virt. eigenvalues --    0.57988   0.58886   0.58917   0.59486   0.60155
 Alpha virt. eigenvalues --    0.60499   0.61246   0.63017   0.63217   0.63251
 Alpha virt. eigenvalues --    0.64414   0.64701   0.65695   0.65824   0.66715
 Alpha virt. eigenvalues --    0.66963   0.68218   0.69884   0.69935   0.73105
 Alpha virt. eigenvalues --    0.73475   0.74660   0.78387   0.80804   0.81141
 Alpha virt. eigenvalues --    0.86103   0.87358   0.88751   0.92393   0.94441
 Alpha virt. eigenvalues --    0.96033   0.96975   1.00086   1.02609   1.07669
 Alpha virt. eigenvalues --    1.10168   1.10789   1.14724   1.15738   1.16400
 Alpha virt. eigenvalues --    1.17783   1.19120   1.19649   1.20292   1.22039
 Alpha virt. eigenvalues --    1.27361   1.27538   1.31583   1.35625   1.36907
 Alpha virt. eigenvalues --    1.39911   1.40172   1.44188   1.45363   1.52557
 Alpha virt. eigenvalues --    1.52728   1.56799   1.57650   1.60125   1.60690
 Alpha virt. eigenvalues --    1.64391   1.64981   1.65219   1.66088   1.66126
 Alpha virt. eigenvalues --    1.66516   1.68430   1.70809   1.71717   1.72010
 Alpha virt. eigenvalues --    1.73217   1.74013   1.74545   1.75791   1.77871
 Alpha virt. eigenvalues --    1.78520   1.80554   1.80577   1.81470   1.83025
 Alpha virt. eigenvalues --    1.83505   1.88011   1.88218   1.89955   1.91274
 Alpha virt. eigenvalues --    1.91839   1.93177   1.94487   1.99474   1.99809
 Alpha virt. eigenvalues --    2.01659   2.04872   2.05073   2.05973   2.07386
 Alpha virt. eigenvalues --    2.13191   2.15815   2.17524   2.18796   2.20604
 Alpha virt. eigenvalues --    2.20759   2.24664   2.24738   2.26567   2.27531
 Alpha virt. eigenvalues --    2.30646   2.33594   2.35400   2.37356   2.40168
 Alpha virt. eigenvalues --    2.40450   2.43075   2.44572   2.49111   2.50611
 Alpha virt. eigenvalues --    2.52900   2.54006   2.56874   2.58454   2.60432
 Alpha virt. eigenvalues --    2.63880   2.66149   2.68788   2.71857   2.73214
 Alpha virt. eigenvalues --    2.75218   2.77708   2.78377   2.82361   2.84388
 Alpha virt. eigenvalues --    2.87763   2.88714   2.90385   2.95109   2.97040
 Alpha virt. eigenvalues --    3.01112   3.03140   3.07437   3.27662   3.39941
 Alpha virt. eigenvalues --    3.43279   3.45464   3.47692   3.48601   3.60001
 Alpha virt. eigenvalues --    3.80017
  Beta  occ. eigenvalues -- -483.18891 -62.77090 -56.57891 -56.57489 -56.57474
  Beta  occ. eigenvalues --  -19.54643 -10.62503 -10.52511 -10.51295 -10.51149
  Beta  occ. eigenvalues --  -10.50136 -10.49085 -10.48423 -10.48360 -10.47542
  Beta  occ. eigenvalues --  -10.47076 -10.47073 -10.45064  -8.94041  -6.76687
  Beta  occ. eigenvalues --   -6.75228  -6.75186  -2.87042  -2.86627  -2.86597
  Beta  occ. eigenvalues --   -2.85432  -2.85432  -1.39313  -1.16951  -1.13216
  Beta  occ. eigenvalues --   -1.08209  -1.03561  -1.01554  -0.95660  -0.94683
  Beta  occ. eigenvalues --   -0.92239  -0.88511  -0.85690  -0.82614  -0.79468
  Beta  occ. eigenvalues --   -0.77742  -0.75093  -0.74747  -0.74052  -0.72508
  Beta  occ. eigenvalues --   -0.71085  -0.70075  -0.69086  -0.65690  -0.64683
  Beta  occ. eigenvalues --   -0.64147  -0.63002  -0.61788  -0.60146  -0.59220
  Beta  occ. eigenvalues --   -0.57649  -0.56023  -0.55938  -0.54453  -0.51438
  Beta  occ. eigenvalues --   -0.49619  -0.46398
  Beta virt. eigenvalues --   -0.32567  -0.19705  -0.11405  -0.07537  -0.05062
  Beta virt. eigenvalues --   -0.00910   0.00583   0.02414   0.02425   0.04092
  Beta virt. eigenvalues --    0.04612   0.05160   0.06704   0.08330   0.08853
  Beta virt. eigenvalues --    0.09606   0.09852   0.10188   0.11635   0.13205
  Beta virt. eigenvalues --    0.14035   0.15671   0.16528   0.16784   0.17045
  Beta virt. eigenvalues --    0.20519   0.22070   0.22459   0.26473   0.26697
  Beta virt. eigenvalues --    0.27887   0.28421   0.30934   0.32553   0.33962
  Beta virt. eigenvalues --    0.34505   0.35626   0.36665   0.37311   0.37845
  Beta virt. eigenvalues --    0.39518   0.42166   0.42664   0.42940   0.43892
  Beta virt. eigenvalues --    0.43975   0.46298   0.46688   0.47684   0.47760
  Beta virt. eigenvalues --    0.48374   0.50323   0.50857   0.52484   0.52557
  Beta virt. eigenvalues --    0.54788   0.55684   0.55755   0.56165   0.56352
  Beta virt. eigenvalues --    0.57801   0.58107   0.58942   0.58976   0.59681
  Beta virt. eigenvalues --    0.60204   0.60595   0.61286   0.63099   0.63248
  Beta virt. eigenvalues --    0.63512   0.64541   0.64773   0.65856   0.66048
  Beta virt. eigenvalues --    0.67039   0.67056   0.68350   0.69968   0.70122
  Beta virt. eigenvalues --    0.73399   0.74047   0.74732   0.78532   0.80946
  Beta virt. eigenvalues --    0.81332   0.86237   0.87755   0.88979   0.92875
  Beta virt. eigenvalues --    0.94859   0.96824   0.97173   1.00989   1.03537
  Beta virt. eigenvalues --    1.08645   1.10429   1.11038   1.14968   1.15756
  Beta virt. eigenvalues --    1.16439   1.18270   1.19313   1.19707   1.20344
  Beta virt. eigenvalues --    1.22247   1.27543   1.27784   1.32084   1.36158
  Beta virt. eigenvalues --    1.37151   1.40053   1.40228   1.44485   1.45428
  Beta virt. eigenvalues --    1.52966   1.53062   1.56916   1.58275   1.60431
  Beta virt. eigenvalues --    1.60933   1.64453   1.65173   1.65257   1.66205
  Beta virt. eigenvalues --    1.66440   1.66607   1.68565   1.70882   1.71859
  Beta virt. eigenvalues --    1.72150   1.73422   1.74171   1.74597   1.76020
  Beta virt. eigenvalues --    1.77928   1.78603   1.80748   1.80863   1.81611
  Beta virt. eigenvalues --    1.83170   1.83757   1.88152   1.88551   1.90112
  Beta virt. eigenvalues --    1.91513   1.91880   1.93309   1.94781   1.99653
  Beta virt. eigenvalues --    1.99894   2.01789   2.05034   2.05277   2.06107
  Beta virt. eigenvalues --    2.07532   2.13436   2.16024   2.17688   2.18896
  Beta virt. eigenvalues --    2.20761   2.20864   2.24928   2.24964   2.26699
  Beta virt. eigenvalues --    2.27910   2.30790   2.33792   2.35498   2.37970
  Beta virt. eigenvalues --    2.40834   2.41304   2.44383   2.45610   2.51306
  Beta virt. eigenvalues --    2.52773   2.53923   2.54096   2.57367   2.60068
  Beta virt. eigenvalues --    2.61124   2.64497   2.66890   2.68894   2.72049
  Beta virt. eigenvalues --    2.73437   2.75288   2.77988   2.78501   2.82461
  Beta virt. eigenvalues --    2.84547   2.87790   2.89094   2.90492   2.95319
  Beta virt. eigenvalues --    2.97514   3.02065   3.03670   3.07660   3.29833
  Beta virt. eigenvalues --    3.39944   3.43375   3.46094   3.47696   3.50326
  Beta virt. eigenvalues --    3.60013   3.80026
          Condensed to atoms (all electrons):
               1          2          3          4          5          6
     1  O    7.423714   0.629964  -0.059182   0.001819   0.000411  -0.000001
     2  C    0.629964   4.924516   0.254528  -0.083863   0.015097  -0.000126
     3  C   -0.059182   0.254528   5.385485   0.318726   0.083399   0.004342
     4  C    0.001819  -0.083863   0.318726   5.006654   0.341554  -0.063559
     5  C    0.000411   0.015097   0.083399   0.341554   5.250822   0.252157
     6  Br  -0.000001  -0.000126   0.004342  -0.063559   0.252157  34.789361
     7  C   -0.000003  -0.000609  -0.110795   0.027436   0.295292  -0.060209
     8  C   -0.000017   0.014403   0.012690  -0.075094   0.071628   0.003120
     9  C    0.001297  -0.037641   0.320881   0.006350  -0.148017   0.000756
    10  C    0.003133  -0.047343  -0.093285   0.009810   0.001214   0.000013
    11  C   -0.075953   0.118777  -0.039235   0.012745  -0.000970  -0.000002
    12  C    0.002523  -0.031851   0.003747  -0.000250   0.000004  -0.000000
    13  C   -0.000252   0.014794  -0.001601   0.000037  -0.000000   0.000000
    14  C    0.002527  -0.031854   0.003743  -0.000250   0.000004  -0.000000
    15  H    0.001293  -0.014578  -0.045641   0.435561  -0.041800   0.000621
    16  H   -0.000000   0.000004  -0.001309   0.011234  -0.053026   0.000496
    17  H    0.000000  -0.000594   0.013678  -0.001596   0.012021  -0.000102
    18  H   -0.000023   0.000683   0.003869  -0.000384   0.000071  -0.000000
    19  H   -0.000023   0.000687   0.003866  -0.000384   0.000071  -0.000000
    20  H    0.000132   0.000052   0.000675  -0.000005  -0.000001   0.000000
    21  H    0.001524  -0.011273   0.000934   0.000024  -0.000000  -0.000000
    22  H   -0.000031  -0.000616   0.000023  -0.000001   0.000000  -0.000000
    23  H   -0.000028  -0.000199  -0.000003  -0.000001   0.000000   0.000000
    24  H    0.000132   0.000053   0.000675  -0.000005  -0.000001   0.000000
    25  H    0.001526  -0.011277   0.000933   0.000024  -0.000000  -0.000000
               7          8          9         10         11         12
     1  O   -0.000003  -0.000017   0.001297   0.003133  -0.075953   0.002523
     2  C   -0.000609   0.014403  -0.037641  -0.047343   0.118777  -0.031851
     3  C   -0.110795   0.012690   0.320881  -0.093285  -0.039235   0.003747
     4  C    0.027436  -0.075094   0.006350   0.009810   0.012745  -0.000250
     5  C    0.295292   0.071628  -0.148017   0.001214  -0.000970   0.000004
     6  Br  -0.060209   0.003120   0.000756   0.000013  -0.000002  -0.000000
     7  C    4.930467   0.367742   0.087423   0.008583  -0.000709   0.000010
     8  C    0.367742   4.951781   0.322290  -0.055752   0.007479  -0.000220
     9  C    0.087423   0.322290   5.277723   0.343270  -0.037560   0.001165
    10  C    0.008583  -0.055752   0.343270   4.697219   0.208228  -0.030151
    11  C   -0.000709   0.007479  -0.037560   0.208228   6.096013   0.268223
    12  C    0.000010  -0.000220   0.001165  -0.030151   0.268223   4.714366
    13  C   -0.000000   0.000045   0.000154  -0.000835  -0.133561   0.408319
    14  C    0.000010  -0.000220   0.001164  -0.030144   0.268230  -0.168654
    15  H    0.010136  -0.001301   0.011688  -0.000451   0.000495   0.000001
    16  H    0.434606  -0.042586   0.011564  -0.000216   0.000015  -0.000000
    17  H   -0.054340   0.456755  -0.061835  -0.013469   0.000621  -0.000003
    18  H   -0.000195  -0.004825   0.001043   0.362110  -0.006432  -0.001652
    19  H   -0.000195  -0.004826   0.001042   0.362119  -0.006440   0.001480
    20  H   -0.000001  -0.000083   0.000201  -0.010289  -0.011522   0.387431
    21  H   -0.000000   0.000021  -0.000313   0.006381  -0.016192   0.381036
    22  H    0.000000  -0.000001   0.000005  -0.000850   0.003393  -0.002851
    23  H   -0.000000   0.000007   0.000128   0.004680  -0.001939  -0.020759
    24  H   -0.000001  -0.000083   0.000201  -0.010289  -0.011526   0.008285
    25  H   -0.000000   0.000021  -0.000313   0.006381  -0.016184   0.000088
              13         14         15         16         17         18
     1  O   -0.000252   0.002527   0.001293  -0.000000   0.000000  -0.000023
     2  C    0.014794  -0.031854  -0.014578   0.000004  -0.000594   0.000683
     3  C   -0.001601   0.003743  -0.045641  -0.001309   0.013678   0.003869
     4  C    0.000037  -0.000250   0.435561   0.011234  -0.001596  -0.000384
     5  C   -0.000000   0.000004  -0.041800  -0.053026   0.012021   0.000071
     6  Br   0.000000  -0.000000   0.000621   0.000496  -0.000102  -0.000000
     7  C   -0.000000   0.000010   0.010136   0.434606  -0.054340  -0.000195
     8  C    0.000045  -0.000220  -0.001301  -0.042586   0.456755  -0.004825
     9  C    0.000154   0.001164   0.011688   0.011564  -0.061835   0.001043
    10  C   -0.000835  -0.030144  -0.000451  -0.000216  -0.013469   0.362110
    11  C   -0.133561   0.268230   0.000495   0.000015   0.000621  -0.006432
    12  C    0.408319  -0.168654   0.000001  -0.000000  -0.000003  -0.001652
    13  C    4.621621   0.408315  -0.000000   0.000000  -0.000002  -0.001304
    14  C    0.408315   4.714344   0.000001  -0.000000  -0.000003   0.001479
    15  H   -0.000000   0.000001   0.572960  -0.000123   0.000009   0.000005
    16  H    0.000000  -0.000000  -0.000123   0.565550  -0.009007   0.000004
    17  H   -0.000002  -0.000003   0.000009  -0.009007   0.589535   0.001537
    18  H   -0.001304   0.001479   0.000005   0.000004   0.001537   0.554175
    19  H   -0.001305  -0.001650   0.000005   0.000004   0.001537  -0.010654
    20  H   -0.010613   0.008284   0.000000  -0.000000   0.000000   0.003744
    21  H   -0.012557   0.000091  -0.000002   0.000000   0.000000   0.000245
    22  H    0.382184  -0.002851   0.000000  -0.000000   0.000000   0.000036
    23  H    0.392090  -0.020759   0.000000  -0.000000   0.000000  -0.000202
    24  H   -0.010614   0.387434   0.000000  -0.000000   0.000000   0.000278
    25  H   -0.012556   0.381034  -0.000002   0.000000   0.000000  -0.000278
              19         20         21         22         23         24
     1  O   -0.000023   0.000132   0.001524  -0.000031  -0.000028   0.000132
     2  C    0.000687   0.000052  -0.011273  -0.000616  -0.000199   0.000053
     3  C    0.003866   0.000675   0.000934   0.000023  -0.000003   0.000675
     4  C   -0.000384  -0.000005   0.000024  -0.000001  -0.000001  -0.000005
     5  C    0.000071  -0.000001  -0.000000   0.000000   0.000000  -0.000001
     6  Br  -0.000000   0.000000  -0.000000  -0.000000   0.000000   0.000000
     7  C   -0.000195  -0.000001  -0.000000   0.000000  -0.000000  -0.000001
     8  C   -0.004826  -0.000083   0.000021  -0.000001   0.000007  -0.000083
     9  C    0.001042   0.000201  -0.000313   0.000005   0.000128   0.000201
    10  C    0.362119  -0.010289   0.006381  -0.000850   0.004680  -0.010289
    11  C   -0.006440  -0.011522  -0.016192   0.003393  -0.001939  -0.011526
    12  C    0.001480   0.387431   0.381036  -0.002851  -0.020759   0.008285
    13  C   -0.001305  -0.010613  -0.012557   0.382184   0.392090  -0.010614
    14  C   -0.001650   0.008284   0.000091  -0.002851  -0.020759   0.387434
    15  H    0.000005   0.000000  -0.000002   0.000000   0.000000   0.000000
    16  H    0.000004  -0.000000   0.000000  -0.000000  -0.000000  -0.000000
    17  H    0.001537   0.000000   0.000000   0.000000   0.000000   0.000000
    18  H   -0.010654   0.003744   0.000245   0.000036  -0.000202   0.000278
    19  H    0.554168   0.000278  -0.000278   0.000036  -0.000202   0.003743
    20  H    0.000278   0.566163  -0.017406   0.001789  -0.009632  -0.000387
    21  H   -0.000278  -0.017406   0.588112  -0.010791   0.005056  -0.000665
    22  H    0.000036   0.001789  -0.010791   0.565764  -0.021120   0.001789
    23  H   -0.000202  -0.009632   0.005056  -0.021120   0.594426  -0.009632
    24  H    0.003743  -0.000387  -0.000665   0.001789  -0.009632   0.566163
    25  H    0.000245  -0.000665   0.003122  -0.010791   0.005056  -0.017407
              25
     1  O    0.001526
     2  C   -0.011277
     3  C    0.000933
     4  C    0.000024
     5  C   -0.000000
     6  Br  -0.000000
     7  C   -0.000000
     8  C    0.000021
     9  C   -0.000313
    10  C    0.006381
    11  C   -0.016184
    12  C    0.000088
    13  C   -0.012556
    14  C    0.381034
    15  H   -0.000002
    16  H    0.000000
    17  H    0.000000
    18  H   -0.000278
    19  H    0.000245
    20  H   -0.000665
    21  H    0.003122
    22  H   -0.010791
    23  H    0.005056
    24  H   -0.017407
    25  H    0.588114
          Atomic-Atomic Spin Densities.
               1          2          3          4          5          6
     1  O    0.752760  -0.059920  -0.024244   0.006016   0.000078   0.000001
     2  C   -0.059920  -0.122487   0.028299   0.002609  -0.000976   0.000030
     3  C   -0.024244   0.028299   0.226088  -0.029033   0.000546  -0.000020
     4  C    0.006016   0.002609  -0.029033   0.003953   0.002364  -0.002209
     5  C    0.000078  -0.000976   0.000546   0.002364   0.008573   0.000523
     6  Br   0.000001   0.000030  -0.000020  -0.002209   0.000523   0.006313
     7  C   -0.000004  -0.000129  -0.000950   0.000833  -0.000242   0.000292
     8  C    0.000003  -0.000475  -0.000041  -0.000921  -0.000043  -0.000002
     9  C   -0.000250   0.005219  -0.006718   0.002086   0.000552  -0.000019
    10  C    0.000262  -0.005076   0.009552  -0.000738   0.000031  -0.000001
    11  C   -0.019383   0.106181  -0.049617   0.003201  -0.000005   0.000001
    12  C    0.004994  -0.001616   0.004220  -0.000115  -0.000001  -0.000000
    13  C   -0.001726  -0.000679  -0.001078   0.000014   0.000000   0.000000
    14  C    0.004993  -0.001616   0.004218  -0.000115  -0.000001  -0.000000
    15  H    0.001691   0.000340  -0.003638   0.000245   0.000465   0.000589
    16  H   -0.000000  -0.000005  -0.000076   0.000113   0.000039  -0.000041
    17  H    0.000000   0.000048   0.000323  -0.000025  -0.000036  -0.000000
    18  H   -0.000016   0.000088  -0.000638   0.000030  -0.000001   0.000000
    19  H   -0.000016   0.000089  -0.000639   0.000030  -0.000001   0.000000
    20  H   -0.000059  -0.000334  -0.000135   0.000002   0.000000   0.000000
    21  H    0.001945  -0.000458   0.000642  -0.000023  -0.000000  -0.000000
    22  H    0.000066   0.000126   0.000016  -0.000000  -0.000000  -0.000000
    23  H    0.000011   0.000108   0.000023  -0.000000  -0.000000  -0.000000
    24  H   -0.000059  -0.000334  -0.000135   0.000002   0.000000   0.000000
    25  H    0.001945  -0.000458   0.000642  -0.000023  -0.000000  -0.000000
               7          8          9         10         11         12
     1  O   -0.000004   0.000003  -0.000250   0.000262  -0.019383   0.004994
     2  C   -0.000129  -0.000475   0.005219  -0.005076   0.106181  -0.001616
     3  C   -0.000950  -0.000041  -0.006718   0.009552  -0.049617   0.004220
     4  C    0.000833  -0.000921   0.002086  -0.000738   0.003201  -0.000115
     5  C   -0.000242  -0.000043   0.000552   0.000031  -0.000005  -0.000001
     6  Br   0.000292  -0.000002  -0.000019  -0.000001   0.000001  -0.000000
     7  C   -0.017766  -0.001045   0.001755   0.000123  -0.000064   0.000002
     8  C   -0.001045   0.011366   0.003934   0.000444  -0.000397   0.000017
     9  C    0.001755   0.003934  -0.019643   0.001765   0.000330  -0.000466
    10  C    0.000123   0.000444   0.001765   0.002437  -0.010287   0.003809
    11  C   -0.000064  -0.000397   0.000330  -0.010287   0.168618  -0.015803
    12  C    0.000002   0.000017  -0.000466   0.003809  -0.015803   0.014673
    13  C   -0.000000  -0.000004   0.000217  -0.002416  -0.002534  -0.007275
    14  C    0.000002   0.000017  -0.000465   0.003807  -0.015795   0.005928
    15  H    0.000011   0.000016  -0.000055  -0.000051   0.000281  -0.000011
    16  H    0.000210  -0.000339   0.000061   0.000003  -0.000002   0.000000
    17  H   -0.000828   0.000835  -0.000915  -0.000030   0.000074  -0.000005
    18  H   -0.000031  -0.000092   0.000294  -0.000971   0.000700  -0.000793
    19  H   -0.000031  -0.000092   0.000293  -0.000971   0.000701  -0.000424
    20  H   -0.000000  -0.000002   0.000042  -0.000273   0.001105  -0.000327
    21  H    0.000000  -0.000000  -0.000035   0.000327  -0.003011   0.002848
    22  H    0.000000   0.000000  -0.000003   0.000044  -0.000277   0.000626
    23  H    0.000000   0.000000  -0.000014   0.000134   0.000276   0.000810
    24  H   -0.000000  -0.000002   0.000042  -0.000273   0.001104  -0.000364
    25  H    0.000000  -0.000000  -0.000035   0.000327  -0.003010   0.001042
              13         14         15         16         17         18
     1  O   -0.001726   0.004993   0.001691  -0.000000   0.000000  -0.000016
     2  C   -0.000679  -0.001616   0.000340  -0.000005   0.000048   0.000088
     3  C   -0.001078   0.004218  -0.003638  -0.000076   0.000323  -0.000638
     4  C    0.000014  -0.000115   0.000245   0.000113  -0.000025   0.000030
     5  C    0.000000  -0.000001   0.000465   0.000039  -0.000036  -0.000001
     6  Br   0.000000  -0.000000   0.000589  -0.000041  -0.000000   0.000000
     7  C   -0.000000   0.000002   0.000011   0.000210  -0.000828  -0.000031
     8  C   -0.000004   0.000017   0.000016  -0.000339   0.000835  -0.000092
     9  C    0.000217  -0.000465  -0.000055   0.000061  -0.000915   0.000294
    10  C   -0.002416   0.003807  -0.000051   0.000003  -0.000030  -0.000971
    11  C   -0.002534  -0.015795   0.000281  -0.000002   0.000074   0.000700
    12  C   -0.007275   0.005928  -0.000011   0.000000  -0.000005  -0.000793
    13  C    0.051175  -0.007267   0.000001  -0.000000   0.000002   0.000637
    14  C   -0.007267   0.014657  -0.000011   0.000000  -0.000005  -0.000423
    15  H    0.000001  -0.000011   0.003510  -0.000008   0.000004   0.000002
    16  H   -0.000000   0.000000  -0.000008   0.000759  -0.000092  -0.000001
    17  H    0.000002  -0.000005   0.000004  -0.000092   0.002901   0.000122
    18  H    0.000637  -0.000423   0.000002  -0.000001   0.000122   0.003052
    19  H    0.000637  -0.000793   0.000002  -0.000001   0.000122   0.000932
    20  H    0.001076  -0.000364   0.000000  -0.000000   0.000001   0.000132
    21  H   -0.003879   0.001041  -0.000003   0.000000  -0.000000  -0.000074
    22  H   -0.002599   0.000626  -0.000000   0.000000  -0.000000  -0.000011
    23  H   -0.002791   0.000810  -0.000000   0.000000  -0.000000  -0.000084
    24  H    0.001075  -0.000326   0.000000  -0.000000   0.000001   0.000027
    25  H   -0.003879   0.002846  -0.000003   0.000000  -0.000000  -0.000018
              19         20         21         22         23         24
     1  O   -0.000016  -0.000059   0.001945   0.000066   0.000011  -0.000059
     2  C    0.000089  -0.000334  -0.000458   0.000126   0.000108  -0.000334
     3  C   -0.000639  -0.000135   0.000642   0.000016   0.000023  -0.000135
     4  C    0.000030   0.000002  -0.000023  -0.000000  -0.000000   0.000002
     5  C   -0.000001   0.000000  -0.000000  -0.000000  -0.000000   0.000000
     6  Br   0.000000   0.000000  -0.000000  -0.000000  -0.000000   0.000000
     7  C   -0.000031  -0.000000   0.000000   0.000000   0.000000  -0.000000
     8  C   -0.000092  -0.000002  -0.000000   0.000000   0.000000  -0.000002
     9  C    0.000293   0.000042  -0.000035  -0.000003  -0.000014   0.000042
    10  C   -0.000971  -0.000273   0.000327   0.000044   0.000134  -0.000273
    11  C    0.000701   0.001105  -0.003011  -0.000277   0.000276   0.001104
    12  C   -0.000424  -0.000327   0.002848   0.000626   0.000810  -0.000364
    13  C    0.000637   0.001076  -0.003879  -0.002599  -0.002791   0.001075
    14  C   -0.000793  -0.000364   0.001041   0.000626   0.000810  -0.000326
    15  H    0.000002   0.000000  -0.000003  -0.000000  -0.000000   0.000000
    16  H   -0.000001  -0.000000   0.000000   0.000000   0.000000  -0.000000
    17  H    0.000122   0.000001  -0.000000  -0.000000  -0.000000   0.000001
    18  H    0.000932   0.000132  -0.000074  -0.000011  -0.000084   0.000027
    19  H    0.003060   0.000027  -0.000018  -0.000011  -0.000084   0.000132
    20  H    0.000027   0.000070  -0.000630  -0.000050  -0.000046   0.000005
    21  H   -0.000018  -0.000630   0.004070   0.000597   0.000158  -0.000023
    22  H   -0.000011  -0.000050   0.000597   0.008270   0.000579  -0.000050
    23  H   -0.000084  -0.000046   0.000158   0.000579   0.000358  -0.000046
    24  H    0.000132   0.000005  -0.000023  -0.000050  -0.000046   0.000069
    25  H   -0.000074  -0.000023   0.000357   0.000597   0.000158  -0.000630
              25
     1  O    0.001945
     2  C   -0.000458
     3  C    0.000642
     4  C   -0.000023
     5  C   -0.000000
     6  Br  -0.000000
     7  C    0.000000
     8  C   -0.000000
     9  C   -0.000035
    10  C    0.000327
    11  C   -0.003010
    12  C    0.001042
    13  C   -0.003879
    14  C    0.002846
    15  H   -0.000003
    16  H    0.000000
    17  H   -0.000000
    18  H   -0.000018
    19  H   -0.000074
    20  H   -0.000023
    21  H    0.000357
    22  H    0.000597
    23  H    0.000158
    24  H   -0.000630
    25  H    0.004069
 Mulliken charges and spin densities:
               1          2
     1  O    0.065515   0.669089
     2  C    0.298265  -0.051426
     3  C   -0.061143   0.157605
     4  C    0.053418  -0.011705
     5  C   -0.079929   0.011865
     6  Br   0.073133   0.005458
     7  C    0.065352  -0.017863
     8  C   -0.022976   0.013177
     9  C   -0.102664  -0.012027
    10  C    0.279934   0.001980
    11  C   -0.625993   0.162387
    12  C    0.079716   0.011769
    13  C   -0.042359   0.018708
    14  C    0.079724   0.011762
    15  H    0.071123   0.003377
    16  H    0.082791   0.000621
    17  H    0.065257   0.002494
    18  H    0.096672   0.002865
    19  H    0.096677   0.002871
    20  H    0.091855   0.000215
    21  H    0.082931   0.003829
    22  H    0.094882   0.008546
    23  H    0.083034   0.000360
    24  H    0.091855   0.000214
    25  H    0.082929   0.003829
 Sum of Mulliken charges =   1.00000   1.00000
 Mulliken charges and spin densities with hydrogens summed into heavy atoms:
               1          2
     1  O    0.065515   0.669089
     2  C    0.298265  -0.051426
     3  C   -0.061143   0.157605
     4  C    0.124541  -0.008328
     5  C   -0.079929   0.011865
     6  Br   0.073133   0.005458
     7  C    0.148143  -0.017242
     8  C    0.042281   0.015671
     9  C   -0.102664  -0.012027
    10  C    0.473283   0.007715
    11  C   -0.625993   0.162387
    12  C    0.254502   0.015813
    13  C    0.135558   0.027615
    14  C    0.254508   0.015804
 Electronic spatial extent (au):  <R**2>=           4822.9182
 Charge=              1.0000 electrons
 Dipole moment (field-independent basis, Debye):
    X=             -7.5565    Y=              1.8034    Z=             -0.0001  Tot=              7.7688
 Quadrupole moment (field-independent basis, Debye-Ang):
   XX=            -46.2278   YY=            -76.6559   ZZ=            -90.1162
   XY=              1.4514   XZ=              0.0002   YZ=              0.0005
 Traceless Quadrupole moment (field-independent basis, Debye-Ang):
   XX=             24.7722   YY=             -5.6559   ZZ=            -19.1162
   XY=              1.4514   XZ=              0.0002   YZ=              0.0005
 Octapole moment (field-independent basis, Debye-Ang**2):
  XXX=            -12.3650  YYY=              4.6053  ZZZ=              0.0009  XYY=             33.1733
  XXY=             -7.1089  XXZ=              0.0007  XZZ=             19.8477  YZZ=             -7.4251
  YYZ=              0.0003  XYZ=             -0.0002
 Hexadecapole moment (field-independent basis, Debye-Ang**3):
 XXXX=          -3721.7287 YYYY=           -643.2166 ZZZZ=           -209.1502 XXXY=            -18.9472
 XXXZ=              0.0007 YYYX=            -23.6691 YYYZ=              0.0011 ZZZX=              0.0009
 ZZZY=              0.0002 XXYY=           -815.3339 XXZZ=           -774.3127 YYZZ=           -155.7607
 XXYZ=              0.0008 YYXZ=              0.0011 ZZXY=            -14.7218
 N-N= 1.112144230362D+03 E-N=-9.604739537384D+03  KE= 3.103665819357D+03
 There are a total of      573256 grid points.
 ElSum from          density=      125.0000124187
 ElSum from atomic densities=      126.0000548761
 Hirshfeld populations at iteration   1 (CA, CB, DipXYZ):
               1          2          3          4          5
     1  O    4.285138   3.690048   0.003570   0.032565   0.000002
     2  C    2.921555   2.847038  -0.022291  -0.050067  -0.000054
     3  C    3.051965   2.947739  -0.031157  -0.061984   0.000006
     4  C    3.004429   3.002159  -0.008101  -0.063064   0.000001
     5  C    2.989129   2.982006   0.058475  -0.006921   0.000000
     6  Br  17.480477  17.474684   0.077903  -0.016311   0.000001
     7  C    2.985438   2.995592   0.040191   0.059065   0.000000
     8  C    3.008001   3.000168  -0.013209   0.074995   0.000001
     9  C    2.982937   2.979715  -0.047521   0.053560   0.000001
    10  C    3.019377   3.009741  -0.013334   0.022767   0.000001
    11  C    3.038736   2.911940   0.035581   0.002044  -0.000001
    12  C    3.019037   3.004711  -0.031499   0.011237  -0.033202
    13  C    3.022140   3.002916  -0.042481  -0.010510   0.000002
    14  C    3.019034   3.004714  -0.031498   0.011236   0.033205
    15  H    0.464578   0.462458   0.022453  -0.173672  -0.000003
    16  H    0.461706   0.462328   0.118528   0.130252   0.000004
    17  H    0.464392   0.462172  -0.024914   0.174488   0.000004
    18  H    0.468647   0.466102  -0.043622   0.102866  -0.124326
    19  H    0.468647   0.466098  -0.043618   0.102861   0.124333
    20  H    0.472622   0.471696  -0.012009   0.089553  -0.136209
    21  H    0.475927   0.472278  -0.015875  -0.146856  -0.060423
    22  H    0.472879   0.466084  -0.135100  -0.096145   0.000002
    23  H    0.474666   0.473645  -0.062872   0.147367   0.000007
    24  H    0.472621   0.471696  -0.011999   0.089544   0.136216
    25  H    0.475927   0.472278  -0.015874  -0.146857   0.060415
       Tot  63.000006  62.000006  -0.250273   0.332011  -0.000019

 Dip from Atomic Chgs             -2.722635   0.377490  -0.000020
         Total Dipole             -2.972908   0.709500  -0.000039

 Hirshfeld charges, spin densities, dipoles, and CM5 charges using IRadAn=      5:
              Q-H        S-H        Dx         Dy         Dz        Q-CM5   
     1  O    0.024814   0.595089   0.003570   0.032565   0.000002  -0.023437
     2  C    0.231407   0.074518  -0.022291  -0.050067  -0.000054   0.264676
     3  C    0.000295   0.104226  -0.031157  -0.061984   0.000006  -0.002195
     4  C   -0.006589   0.002270  -0.008101  -0.063064   0.000001  -0.055390
     5  C    0.028865   0.007123   0.058475  -0.006921   0.000000   0.007831
     6  Br   0.044839   0.005792   0.077903  -0.016311   0.000001   0.059965
     7  C    0.018970  -0.010153   0.040191   0.059065   0.000000  -0.033574
     8  C   -0.008169   0.007833  -0.013209   0.074995   0.000001  -0.060094
     9  C    0.037349   0.003222  -0.047521   0.053560   0.000001   0.026934
    10  C   -0.029118   0.009636  -0.013334   0.022767   0.000001  -0.124263
    11  C    0.049324   0.126796   0.035581   0.002044  -0.000001   0.032491
    12  C   -0.023748   0.014325  -0.031499   0.011237  -0.033202  -0.124628
    13  C   -0.025056   0.019225  -0.042481  -0.010510   0.000002  -0.129815
    14  C   -0.023748   0.014320  -0.031498   0.011236   0.033205  -0.124627
    15  H    0.072964   0.002120   0.022453  -0.173672  -0.000003   0.130418
    16  H    0.075966  -0.000621   0.118528   0.130252   0.000004   0.131758
    17  H    0.073436   0.002219  -0.024914   0.174488   0.000004   0.128556
    18  H    0.065252   0.002545  -0.043622   0.102866  -0.124326   0.120438
    19  H    0.065255   0.002549  -0.043618   0.102861   0.124333   0.120441
    20  H    0.055683   0.000926  -0.012009   0.089553  -0.136209   0.108798
    21  H    0.051796   0.003649  -0.015875  -0.146856  -0.060423   0.109061
    22  H    0.061037   0.006795  -0.135100  -0.096145   0.000002   0.113318
    23  H    0.051688   0.001021  -0.062872   0.147367   0.000007   0.105466
    24  H    0.055683   0.000925  -0.011999   0.089544   0.136216   0.108798
    25  H    0.051795   0.003649  -0.015874  -0.146857   0.060415   0.109061
       Tot   0.999988   1.000000  -0.250273   0.332011  -0.000019   0.999988
 Hirshfeld charges and spin densities with hydrogens summed into heavy atoms:
              Q-H        S-H       Q-CM5   
     1  O    0.024814   0.595089  -0.023437
     2  C    0.231407   0.074518   0.264676
     3  C    0.000295   0.104226  -0.002195
     4  C    0.066375   0.004390   0.075027
     5  C    0.028865   0.007123   0.007831
     6  Br   0.044839   0.005792   0.059965
     7  C    0.094936  -0.010774   0.098184
     8  C    0.065267   0.010052   0.068462
     9  C    0.037349   0.003222   0.026934
    10  C    0.101389   0.014730   0.116616
    11  C    0.049324   0.126796   0.032491
    12  C    0.083730   0.018900   0.093232
    13  C    0.087669   0.027041   0.088969
    14  C    0.083730   0.018894   0.093232
 
 EQQ= 0.742701769261E-01 EQD=-0.284094429033E-01 EDD= 0.947658341110E-02
 EQQ+QD+DD= 0.553373174338E-01
 
                          Isotropic Fermi Contact Couplings
        Atom                 a.u.       MegaHertz       Gauss      10(-4) cm-1
     1  O(17)              0.22605    -137.02898     -48.89535     -45.70795
     2  C(13)             -0.07487     -84.16586     -30.03247     -28.07471
     3  C(13)              0.08214      92.34085      32.94951      30.80159
     4  C(13)             -0.00596      -6.70018      -2.39079      -2.23494
     5  C(13)              0.00785       8.81964       3.14707       2.94192
     6  Br(79)            -0.00111      -1.24511      -0.44429      -0.41532
     7  C(13)             -0.00317      -3.56863      -1.27338      -1.19037
     8  C(13)              0.00495       5.56659       1.98630       1.85682
     9  C(13)             -0.00704      -7.91974      -2.82596      -2.64174
    10  C(13)             -0.00568      -6.38713      -2.27909      -2.13052
    11  C(13)              0.02796      31.43484      11.21673      10.48553
    12  C(13)             -0.00525      -5.89679      -2.10412      -1.96696
    13  C(13)              0.01555      17.48429       6.23883       5.83213
    14  C(13)             -0.00525      -5.89705      -2.10421      -1.96704
    15  H(1)               0.00065       2.90631       1.03704       0.96944
    16  H(1)               0.00021       0.94689       0.33787       0.31585
    17  H(1)               0.00102       4.55250       1.62445       1.51855
    18  H(1)               0.00123       5.51570       1.96814       1.83984
    19  H(1)               0.00124       5.52918       1.97295       1.84434
    20  H(1)               0.00020       0.90666       0.32352       0.30243
    21  H(1)               0.00086       3.86586       1.37943       1.28951
    22  H(1)               0.00379      16.94779       6.04739       5.65317
    23  H(1)               0.00010       0.45169       0.16117       0.15067
    24  H(1)               0.00020       0.90452       0.32276       0.30172
    25  H(1)               0.00086       3.86440       1.37891       1.28902
 --------------------------------------------------------
       Center         ----  Spin Dipole Couplings  ----
                      3XX-RR        3YY-RR        3ZZ-RR
 --------------------------------------------------------
     1   Atom        2.456132     -1.322206     -1.133926
     2   Atom        0.109833      0.022190     -0.132023
     3   Atom        0.059008      0.036995     -0.096003
     4   Atom        0.028665     -0.002828     -0.025837
     5   Atom        0.002608     -0.002630      0.000022
     6   Atom        0.055043     -0.031233     -0.023811
     7   Atom        0.010414      0.009326     -0.019739
     8   Atom       -0.004458      0.002097      0.002360
     9   Atom        0.001332      0.034338     -0.035670
    10   Atom       -0.009347      0.022827     -0.013480
    11   Atom        0.096315      0.046818     -0.143133
    12   Atom        0.026562     -0.014141     -0.012421
    13   Atom        0.036439     -0.018510     -0.017929
    14   Atom        0.026554     -0.014137     -0.012417
    15   Atom        0.010723     -0.004049     -0.006674
    16   Atom        0.000545      0.000409     -0.000954
    17   Atom       -0.001147      0.002805     -0.001658
    18   Atom       -0.003258      0.004271     -0.001013
    19   Atom       -0.003258      0.004270     -0.001012
    20   Atom       -0.000663     -0.002004      0.002667
    21   Atom        0.003800     -0.003040     -0.000759
    22   Atom        0.003677      0.000474     -0.004150
    23   Atom        0.002126      0.001884     -0.004010
    24   Atom       -0.000663     -0.002004      0.002667
    25   Atom        0.003800     -0.003041     -0.000759
 --------------------------------------------------------
                        XY            XZ            YZ
 --------------------------------------------------------
     1   Atom       -0.427658      0.000228     -0.000006
     2   Atom       -0.036557     -0.000003     -0.000010
     3   Atom        0.162024     -0.000045     -0.000040
     4   Atom        0.000629      0.000002      0.000002
     5   Atom        0.009068      0.000008      0.000007
     6   Atom        0.049496      0.000094      0.000025
     7   Atom        0.002098      0.000002     -0.000001
     8   Atom        0.007488     -0.000000     -0.000001
     9   Atom       -0.009575     -0.000010      0.000021
    10   Atom        0.005045      0.000003      0.000006
    11   Atom       -0.210272     -0.000005      0.000003
    12   Atom       -0.007070      0.007620     -0.001893
    13   Atom       -0.008816     -0.000003      0.000000
    14   Atom       -0.007066     -0.007616      0.001893
    15   Atom       -0.000506     -0.000000     -0.000000
    16   Atom        0.000070      0.000000      0.000000
    17   Atom        0.000838      0.000000      0.000000
    18   Atom       -0.000202      0.000753     -0.002901
    19   Atom       -0.000203     -0.000754      0.002902
    20   Atom       -0.001601      0.002631     -0.003723
    21   Atom       -0.002177      0.008736     -0.000009
    22   Atom        0.001735     -0.000000      0.000000
    23   Atom       -0.003040     -0.000000      0.000000
    24   Atom       -0.001602     -0.002631      0.003723
    25   Atom       -0.002178     -0.008737      0.000010
 --------------------------------------------------------


 ---------------------------------------------------------------------------------
              Anisotropic Spin Dipole Couplings in Principal Axis System
 ---------------------------------------------------------------------------------

       Atom             a.u.   MegaHertz   Gauss  10(-4) cm-1        Axes

              Baa    -1.3700    99.133    35.373    33.067  0.1111  0.9938 -0.0001
     1 O(17)  Bbb    -1.1339    82.050    29.278    27.369 -0.0001  0.0001  1.0000
              Bcc     2.5039  -181.183   -64.651   -60.436  0.9938 -0.1111  0.0001
 
              Baa    -0.1320   -17.716    -6.322    -5.910  0.0000  0.0001  1.0000
     2 C(13)  Bbb     0.0089     1.200     0.428     0.400  0.3407  0.9402 -0.0001
              Bcc     0.1231    16.516     5.893     5.509  0.9402 -0.3407  0.0000
 
              Baa    -0.1144   -15.351    -5.478    -5.120 -0.6827  0.7307 -0.0001
     3 C(13)  Bbb    -0.0960   -12.883    -4.597    -4.297  0.0001  0.0002  1.0000
              Bcc     0.2104    28.233    10.074     9.418  0.7307  0.6827 -0.0002
 
              Baa    -0.0258    -3.467    -1.237    -1.156 -0.0000 -0.0001  1.0000
     4 C(13)  Bbb    -0.0028    -0.381    -0.136    -0.127 -0.0199  0.9998  0.0001
              Bcc     0.0287     3.848     1.373     1.284  0.9998  0.0199  0.0000
 
              Baa    -0.0094    -1.268    -0.452    -0.423 -0.6010  0.7992 -0.0001
     5 C(13)  Bbb     0.0000     0.003     0.001     0.001 -0.0010 -0.0006  1.0000
              Bcc     0.0094     1.265     0.451     0.422  0.7992  0.6010  0.0011
 
              Baa    -0.0538    -7.210    -2.573    -2.405 -0.4141  0.9102  0.0006
     6 Br(79) Bbb    -0.0238    -3.194    -1.140    -1.065 -0.0006 -0.0009  1.0000
              Bcc     0.0776    10.404     3.712     3.470  0.9102  0.4141  0.0009
 
              Baa    -0.0197    -2.649    -0.945    -0.884 -0.0001  0.0000  1.0000
     7 C(13)  Bbb     0.0077     1.034     0.369     0.345 -0.6120  0.7909 -0.0001
              Bcc     0.0120     1.615     0.576     0.539  0.7909  0.6120  0.0000
 
              Baa    -0.0094    -1.255    -0.448    -0.419  0.8370 -0.5473  0.0000
     8 C(13)  Bbb     0.0024     0.317     0.113     0.106  0.0001  0.0001  1.0000
              Bcc     0.0070     0.938     0.335     0.313  0.5473  0.8370 -0.0002
 
              Baa    -0.0357    -4.787    -1.708    -1.597  0.0002 -0.0003  1.0000
     9 C(13)  Bbb    -0.0012    -0.167    -0.060    -0.056  0.9656  0.2599 -0.0001
              Bcc     0.0369     4.954     1.768     1.652 -0.2599  0.9656  0.0003
 
              Baa    -0.0135    -1.809    -0.645    -0.603 -0.0005 -0.0001  1.0000
    10 C(13)  Bbb    -0.0101    -1.358    -0.485    -0.453  0.9885 -0.1514  0.0005
              Bcc     0.0236     3.167     1.130     1.056  0.1514  0.9885  0.0002
 
              Baa    -0.1431   -19.207    -6.854    -6.407  0.0002  0.0002  1.0000
    11 C(13)  Bbb    -0.1402   -18.808    -6.711    -6.274  0.6645  0.7473 -0.0003
              Bcc     0.2833    38.015    13.565    12.680  0.7473 -0.6645 -0.0000
 
              Baa    -0.0155    -2.086    -0.744    -0.696  0.0978  0.9388  0.3303
    12 C(13)  Bbb    -0.0137    -1.836    -0.655    -0.612 -0.2283 -0.3019  0.9256
              Bcc     0.0292     3.922     1.399     1.308  0.9687 -0.1660  0.1848
 
              Baa    -0.0199    -2.669    -0.952    -0.890  0.1546  0.9880  0.0002
    13 C(13)  Bbb    -0.0179    -2.406    -0.858    -0.803  0.0000 -0.0002  1.0000
              Bcc     0.0378     5.075     1.811     1.693  0.9880 -0.1546 -0.0001
 
              Baa    -0.0155    -2.085    -0.744    -0.696  0.0977  0.9387 -0.3306
    14 C(13)  Bbb    -0.0137    -1.835    -0.655    -0.612  0.2283  0.3022  0.9255
              Bcc     0.0292     3.921     1.399     1.308  0.9687 -0.1659 -0.1847
 
              Baa    -0.0067    -3.561    -1.271    -1.188  0.0000  0.0000  1.0000
    15 H(1)   Bbb    -0.0041    -2.170    -0.774    -0.724  0.0342  0.9994 -0.0000
              Bcc     0.0107     5.731     2.045     1.912  0.9994 -0.0342 -0.0000
 
              Baa    -0.0010    -0.509    -0.182    -0.170 -0.0001 -0.0001  1.0000
    16 H(1)   Bbb     0.0004     0.202     0.072     0.068 -0.3916  0.9201  0.0000
              Bcc     0.0006     0.307     0.109     0.102  0.9201  0.3916  0.0002
 
              Baa    -0.0017    -0.884    -0.316    -0.295 -0.0000 -0.0000  1.0000
    17 H(1)   Bbb    -0.0013    -0.703    -0.251    -0.234  0.9799 -0.1993  0.0000
              Bcc     0.0030     1.587     0.566     0.530  0.1993  0.9799  0.0000
 
              Baa    -0.0036    -1.906    -0.680    -0.636  0.9021 -0.1291 -0.4117
    18 H(1)   Bbb    -0.0020    -1.071    -0.382    -0.357  0.4279  0.3905  0.8151
              Bcc     0.0056     2.977     1.062     0.993 -0.0556  0.9115 -0.4075
 
              Baa    -0.0036    -1.906    -0.680    -0.636  0.9021 -0.1290  0.4117
    19 H(1)   Bbb    -0.0020    -1.071    -0.382    -0.357 -0.4278 -0.3906  0.8151
              Bcc     0.0056     2.977     1.062     0.993 -0.0557  0.9115  0.4076
 
              Baa    -0.0041    -2.172    -0.775    -0.725  0.0547  0.8828  0.4665
    20 H(1)   Bbb    -0.0021    -1.095    -0.391    -0.365  0.9090  0.1493 -0.3890
              Bcc     0.0061     3.267     1.166     1.090  0.4131 -0.4454  0.7944
 
              Baa    -0.0079    -4.206    -1.501    -1.403 -0.6083 -0.2721  0.7456
    21 H(1)   Bbb    -0.0029    -1.539    -0.549    -0.513 -0.0698  0.9541  0.2912
              Bcc     0.0108     5.745     2.050     1.916  0.7906 -0.1251  0.5994
 
              Baa    -0.0042    -2.214    -0.790    -0.739  0.0000 -0.0000  1.0000
    22 H(1)   Bbb    -0.0003    -0.153    -0.055    -0.051 -0.4011  0.9160  0.0000
              Bcc     0.0044     2.367     0.845     0.790  0.9160  0.4011 -0.0000
 
              Baa    -0.0040    -2.139    -0.763    -0.714  0.0000 -0.0000  1.0000
    23 H(1)   Bbb    -0.0010    -0.554    -0.198    -0.185  0.6929  0.7210 -0.0000
              Bcc     0.0050     2.693     0.961     0.898  0.7210 -0.6929 -0.0001
 
              Baa    -0.0041    -2.172    -0.775    -0.724  0.0548  0.8829 -0.4664
    24 H(1)   Bbb    -0.0021    -1.095    -0.391    -0.365  0.9090  0.1492  0.3892
              Bcc     0.0061     3.267     1.166     1.090 -0.4132  0.4453  0.7944
 
              Baa    -0.0079    -4.206    -1.501    -1.403  0.6083  0.2721  0.7456
    25 H(1)   Bbb    -0.0029    -1.539    -0.549    -0.513 -0.0698  0.9541 -0.2913
              Bcc     0.0108     5.745     2.050     1.916  0.7906 -0.1251 -0.5994
 

 ---------------------------------------------------------------------------------

 Running external command "gaunbo6 R"
         input file       "/home/rpaton/opt/dzvp/fukui/Gau-1748202.EIn"
         output file      "/home/rpaton/opt/dzvp/fukui/Gau-1748202.EOu"
         message file     "/home/rpaton/opt/dzvp/fukui/Gau-1748202.EMs"
         fchk file        "/home/rpaton/opt/dzvp/fukui/Gau-1748202.EFC"
         mat. el file     "/home/rpaton/opt/dzvp/fukui/Gau-1748202.EUF"

 Writing WrtUnf unformatted file "/home/rpaton/opt/dzvp/fukui/Gau-1748202.EUF"
 Gaussian matrix elements                                         Version   2 NLab=11 Len12L=8 Len4L=8
 Write SHELL TO ATOM MAP                   from file      0 offset           0 length                 123 to matrix element file.
 Write SHELL TYPES                         from file      0 offset           0 length                 123 to matrix element file.
 Write NUMBER OF PRIMITIVES PER SHELL      from file      0 offset           0 length                 123 to matrix element file.
 Write PRIMITIVE EXPONENTS                 from file      0 offset           0 length                 241 to matrix element file.
 Write CONTRACTION COEFFICIENTS            from file      0 offset           0 length                 241 to matrix element file.
 Write P(S=P) CONTRACTION COEFFICIENTS     from file      0 offset           0 length                 241 to matrix element file.
 Write COORDINATES OF EACH SHELL           from file      0 offset           0 length                 369 to matrix element file.
 Write BONDS PER ATOM                      from file      0 offset           0 length                  25 to matrix element file.
 Write BONDED ATOMS                        from file      0 offset           0 length                  54 to matrix element file.
 Write BOND TYPES                          from file      0 offset           0 length                  54 to matrix element file.
 Write ONIOM CHARGE/MULT                   from file      0 offset           0 length                  32 to matrix element file.
 Write ONIOM ATOM LAYERS                   from file      0 offset           0 length                  25 to matrix element file.
 Write ONIOM ATOM MODIFIERS                from file      0 offset           0 length                  25 to matrix element file.
 Write ONIOM ATOM TYPES                    from file      0 offset           0 length                  25 to matrix element file.
 Write ONIOM LINK ATOMS                    from file      0 offset           0 length                  25 to matrix element file.
 Write ONIOM LINK CHARGES                  from file      0 offset           0 length                  25 to matrix element file.
 Write ONIOM LINK DISTANCES                from file      0 offset           0 length                 100 to matrix element file.
 Write SYMINF INTS                         from file      0 offset           0 length                  26 to matrix element file.
 Write ROTTR TO SO                         from file      0 offset           0 length                  12 to matrix element file.
 Write GAUSSIAN SCALARS                    from file    501 offset           0 to matrix element file.
 Write OPTIMIZATION FLAGS                  from file      0 offset           0 length                  25 to matrix element file.
 Write INTEGER ISO                         from file      0 offset           0 length                  25 to matrix element file.
 Write INTEGER SPIN                        from file      0 offset           0 length                  25 to matrix element file.
 Write REAL ZEFFECTIVE                     from file      0 offset           0 length                  25 to matrix element file.
 Write REAL QUADRUPOLEMOMENT               from file      0 offset           0 length                  25 to matrix element file.
 Write REAL GFACTOR                        from file      0 offset           0 length                  25 to matrix element file.
 Write REAL ZNUCLEAR                       from file      0 offset           0 length                  25 to matrix element file.
 Write MULLIKEN CHARGES                    from file      0 offset           0 length                  25 to matrix element file.
 Write TYPE 6 CHARGES                      from file      0 offset           0 length                  25 to matrix element file.
 Write TYPE 7 CHARGES                      from file      0 offset           0 length                  25 to matrix element file.
 Write NUCLEAR GRADIENT                    from file  10584 offset           0 length                  75 to matrix element file.
 Array NUCLEAR FORCE CONSTANTS              on  file  10585 does not exist.
 Write ELECTRIC DIPOLE MOMENT              from file      0 offset           0 length                   3 to matrix element file.
 Write NON-ADIABATIC COUPLING              from file  10810 offset           0 length                  75 to matrix element file.
 Write FINITE EM FIELD                     from file  10521 offset           0 length                  35 to matrix element file.
 Write OVERLAP                             from file  10514 offset           0 length               36315 to matrix element file.
 Write CORE HAMILTONIAN ALPHA              from file  10515 offset           0 length               36315 to matrix element file.
 Write CORE HAMILTONIAN BETA               from file  10515 offset       36315 length               36315 to matrix element file.
 Write KINETIC ENERGY                      from file  10516 offset           0 length               36315 to matrix element file.
 Write ORTHOGONAL BASIS                    from file  10685 offset           0 length               72361 to matrix element file.
 Write DIPOLE INTEGRALS                    from file  10518 offset           0 length              108945 to matrix element file.
 Array DIP VEL INTEGRALS                    on  file  10572 does not exist.
 Array R X DEL INTEGRALS                    on  file  10572 does not exist.
 Write ALPHA ORBITAL ENERGIES              from file      0 offset           0 length                 269 to matrix element file.
 Write BETA ORBITAL ENERGIES               from file      0 offset           0 length                 269 to matrix element file.
 Write ALPHA MO COEFFICIENTS               from file  10524 offset           0 length               72361 to matrix element file.
 Write BETA MO COEFFICIENTS                from file  10526 offset           0 length               72361 to matrix element file.
 Write ALPHA DENSITY MATRIX                from file      0 offset           0 length               36315 to matrix element file.
 Write BETA DENSITY MATRIX                 from file      0 offset           0 length               36315 to matrix element file.
 Write ALPHA FOCK MATRIX                   from file  10536 offset           0 length               36315 to matrix element file.
 Write BETA FOCK MATRIX                    from file  10538 offset           0 length               36315 to matrix element file.
 Write ENERGY-WEIGHTED DENSITY             from file  10571 offset           0 length               36315 to matrix element file.
 Write ALPHA SCF DENSITY MATRIX            from file      0 offset           0 length               36315 to matrix element file.
 Write BETA SCF DENSITY MATRIX             from file      0 offset           0 length               36315 to matrix element file.
 No 2e integrals to process.
 Perform NBO analysis...

 *********************************** NBO 7.0 ***********************************
             N A T U R A L   A T O M I C   O R B I T A L   A N D
          N A T U R A L   B O N D   O R B I T A L   A N A L Y S I S
 **************************** Robert Paton (I101709) ***************************
  (c) Copyright 1996-2019 Board of Regents of the University of Wisconsin System
      on behalf of the Theoretical Chemistry Institute.  All rights reserved.

          Cite this program [NBO 7.0.5 (4-Jun-2019)] as:

          NBO 7.0.  E. D. Glendening, J. K. Badenhoop, A. E. Reed,
          J. E. Carpenter, J. A. Bohmann, C. M. Morales, P. Karafiloglou,
          C. R. Landis, and F. Weinhold, Theoretical Chemistry Institute,
          University of Wisconsin, Madison, WI (2018)

 Filename set to /home/rpaton/opt/dzvp/fukui/Gau-1748202

 Job title:  arbr39_wb97xd_popncreated by GaussianPrep


 NATURAL POPULATIONS:  Natural atomic orbital occupancies

  NAO Atom No lang   Type(AO)    Occupancy     Spin
 -----------------------------------------------------
   1    O  1  s      Cor( 1s)     1.99995     0.00000
   2    O  1  s      Val( 2s)     1.69475     0.01097
   3    O  1  s      Ryd( 3s)     0.00076    -0.00009
   4    O  1  px     Val( 2p)     1.29136     0.62428
   5    O  1  px     Ryd( 3p)     0.00256     0.00153
   6    O  1  py     Val( 2p)     1.62192     0.01198
   7    O  1  py     Ryd( 3p)     0.00032     0.00004
   8    O  1  pz     Val( 2p)     1.55305     0.03860
   9    O  1  pz     Ryd( 3p)     0.00088    -0.00003
  10    O  1  dxy    Ryd( 3d)     0.00198     0.00039
  11    O  1  dxz    Ryd( 3d)     0.00003     0.00000
  12    O  1  dyz    Ryd( 3d)     0.00284    -0.00002
  13    O  1  dx2y2  Ryd( 3d)     0.00267     0.00002
  14    O  1  dz2    Ryd( 3d)     0.00090     0.00003

  15    C  2  s      Cor( 1s)     1.99994     0.00000
  16    C  2  s      Val( 2s)     0.82960    -0.01464
  17    C  2  s      Ryd( 3s)     0.00547    -0.00051
  18    C  2  px     Val( 2p)     1.01351     0.01988
  19    C  2  px     Ryd( 3p)     0.00483    -0.00108
  20    C  2  py     Val( 2p)     0.79857    -0.01203
  21    C  2  py     Ryd( 3p)     0.02017    -0.00067
  22    C  2  pz     Val( 2p)     0.69306    -0.02299
  23    C  2  pz     Ryd( 3p)     0.00239    -0.00008
  24    C  2  dxy    Ryd( 3d)     0.00258     0.00159
  25    C  2  dxz    Ryd( 3d)     0.00082     0.00004
  26    C  2  dyz    Ryd( 3d)     0.00359    -0.00008
  27    C  2  dx2y2  Ryd( 3d)     0.00203     0.00010
  28    C  2  dz2    Ryd( 3d)     0.00078     0.00006

  29    C  3  s      Cor( 1s)     1.99996     0.00000
  30    C  3  s      Val( 2s)     0.86456     0.01426
  31    C  3  s      Ryd( 3s)     0.00213    -0.00003
  32    C  3  px     Val( 2p)     1.05927     0.05767
  33    C  3  px     Ryd( 3p)     0.00361     0.00046
  34    C  3  py     Val( 2p)     1.06837     0.04276
  35    C  3  py     Ryd( 3p)     0.00620     0.00041
  36    C  3  pz     Val( 2p)     1.13046     0.01167
  37    C  3  pz     Ryd( 3p)     0.00122    -0.00004
  38    C  3  dxy    Ryd( 3d)     0.00112     0.00020
  39    C  3  dxz    Ryd( 3d)     0.00069     0.00003
  40    C  3  dyz    Ryd( 3d)     0.00056    -0.00001
  41    C  3  dx2y2  Ryd( 3d)     0.00082    -0.00003
  42    C  3  dz2    Ryd( 3d)     0.00066     0.00006

  43    C  4  s      Cor( 1s)     1.99994     0.00000
  44    C  4  s      Val( 2s)     0.93646    -0.00145
  45    C  4  s      Ryd( 3s)     0.00173     0.00000
  46    C  4  px     Val( 2p)     1.05118     0.00274
  47    C  4  px     Ryd( 3p)     0.00479     0.00028
  48    C  4  py     Val( 2p)     1.22826    -0.00063
  49    C  4  py     Ryd( 3p)     0.00747     0.00085
  50    C  4  pz     Val( 2p)     0.92551    -0.00996
  51    C  4  pz     Ryd( 3p)     0.00151     0.00005
  52    C  4  dxy    Ryd( 3d)     0.00089     0.00004
  53    C  4  dxz    Ryd( 3d)     0.00056     0.00000
  54    C  4  dyz    Ryd( 3d)     0.00057     0.00000
  55    C  4  dx2y2  Ryd( 3d)     0.00078    -0.00001
  56    C  4  dz2    Ryd( 3d)     0.00067     0.00001

  57    C  5  s      Cor( 1s)     1.99996     0.00000
  58    C  5  s      Val( 2s)     0.93517     0.00091
  59    C  5  s      Ryd( 3s)     0.00090     0.00001
  60    C  5  px     Val( 2p)     1.02451     0.00163
  61    C  5  px     Ryd( 3p)     0.00791     0.00007
  62    C  5  py     Val( 2p)     1.08957     0.00178
  63    C  5  py     Ryd( 3p)     0.00810     0.00003
  64    C  5  pz     Val( 2p)     1.04679     0.00512
  65    C  5  pz     Ryd( 3p)     0.00182    -0.00002
  66    C  5  dxy    Ryd( 3d)     0.00151     0.00001
  67    C  5  dxz    Ryd( 3d)     0.00122     0.00000
  68    C  5  dyz    Ryd( 3d)     0.00061    -0.00002
  69    C  5  dx2y2  Ryd( 3d)     0.00162     0.00000
  70    C  5  dz2    Ryd( 3d)     0.00086     0.00000

  71   Br  6  s      Cor( 1s)     2.00000     0.00000
  72   Br  6  s      Cor( 2s)     2.00000     0.00000
  73   Br  6  s      Cor( 3s)     2.00000     0.00000
  74   Br  6  s      Val( 4s)     1.85531    -0.00011
  75   Br  6  s      Ryd( 5s)     0.00306     0.00000
  76   Br  6  px     Cor( 2p)     2.00000     0.00000
  77   Br  6  px     Cor( 3p)     2.00000     0.00000
  78   Br  6  px     Val( 4p)     1.17551     0.00457
  79   Br  6  px     Ryd( 5p)     0.00298     0.00000
  80   Br  6  py     Cor( 2p)     2.00000     0.00000
  81   Br  6  py     Cor( 3p)     2.00000     0.00000
  82   Br  6  py     Val( 4p)     1.88478     0.00049
  83   Br  6  py     Ryd( 5p)     0.00130     0.00000
  84   Br  6  pz     Cor( 2p)     2.00000     0.00000
[...]
                                                     66(g),85(v),86(v),123(v)
                                                     82(v),109(g),173(v),122(v)
   35. BD ( 1) C  2- C 11       0.85420    -0.80714  63(v),68(v),67(g),66(g)
                                                     95(v),114(v),113(v),109(g)
                                                     200(v),218(v),64(g),83(v)
                                                     84(v),97(v)
   36. BD ( 1) C  3- C  4       0.97979    -0.86706  69(g),74(v),66(g),71(g)
                                                     81(v),73(g),132(v),131(v)
                                                     104(v),63(r),67(v),106(v)
                                                     173(v)
   37. BD ( 1) C  3- C  9       0.97590    -0.85972  68(g),64(v),79(g),80(v)
                                                     73(v),63(r),81(g),66(g)
                                                     163(v),123(v),122(v),106(v)
                                                     83(v),84(v),183(v),182(v)
   38. BD ( 2) C  3- C  9       0.81386    -0.48963  65(v),72(v),77(v),124(v)
                                                     83(v),84(v),165(v),105(v)
                                                     181(v)
   39. BD ( 1) C  4- C  5       0.98281    -0.87017  66(v),68(g),75(g),113(v)
                                                     73(g),78(v),154(v)
   40. BD ( 2) C  4- C  5       0.83601    -0.48683  77(v),70(v),156(v),117(v)
                                                     140(v),124(g)
   41. BD ( 1) C  4- H 15       0.98709    -0.73331  69(v),75(v),132(v),71(g)
                                                     74(v),66(v),68(g)
   42. BD ( 1) C  5-Br  6       0.98976    -0.77861  68(v),76(v),122(v),154(v)
                                                     73(v)
   43. BD ( 1) C  5- C  7       0.99001    -0.86680  71(g),73(v),76(g),80(v)
                                                     78(g),164(v),122(v),163(v)
   44. BD ( 1) C  7- C  8       0.98589    -0.84671  81(v),74(v),79(g),75(g)
                                                     172(v),132(v),80(g),78(g)
                                                     131(v)
   45. BD ( 2) C  7- C  8       0.80981    -0.46514  70(v),72(v),133(v),165(g)
                                                     177(v),176(v),135(v),156(g)
   46. BD ( 1) C  7- H 16       0.98852    -0.72138  71(v),79(v),74(v),132(v)
                                                     76(g),80(v),75(g),163(v)
   47. BD ( 1) C  8- C  9       0.98255    -0.85504  69(g),66(v),81(g),76(g)
                                                     78(v),155(v),80(g),154(v)
                                                     114(v),183(v),82(v),113(v)
   48. BD ( 1) C  8- H 17       0.98734    -0.72210  69(v),75(v),79(g),76(g)
                                                     172(v),154(v),78(v)
   49. BD ( 1) C  9- C 10       0.98518    -0.80004  68(v),79(g),76(v),69(g)
                                                     163(v),67(v),191(v),85(v)
                                                     86(v),83(g),84(g),66(v)
                                                     82(g)
   50. BD ( 1) C 10- C 11       0.97735    -0.79219  64(v),79(v),63(r),85(g)
                                                     86(g),199(v),217(v),173(v)
                                                     81(g),89(v),94(v),83(g)
                                                     84(g)
   51. BD ( 1) C 10- H 18       0.97970    -0.71397  70(v),67(v),86(v),69(v)
                                                     174(v),85(v),193(v)
   52. BD ( 1) C 10- H 19       0.97969    -0.71397  70(v),67(v),85(v),69(v)
                                                     174(v),86(v),193(v)
   53. BD ( 1) C 11- C 12       0.95815    -0.75936  65(v),93(v),91(v),63(r)
                                                     86(g),82(g),181(v),217(v)
                                                     104(v),67(g),84(v),182(v)
                                                     66(v),208(v),105(v),83(v)
                                                     106(v)
   54. BD ( 1) C 11- C 14       0.95816    -0.75937  65(v),88(v),91(v),63(r)
                                                     85(g),82(g),181(v),199(v)
                                                     104(v),67(g),83(v),182(v)
                                                     66(v),208(v),105(v),84(v)
                                                     106(v)
   55. BD ( 1) C 12- C 13       0.97619    -0.73848  67(v),93(v),192(v),85(g)
                                                     82(v),88(g),91(g),219(v)
   56. BD ( 1) C 12- H 20       0.99262    -0.71147  209(v),190(v),67(v),92(v)
   57. BD ( 1) C 12- H 21       0.98755    -0.70666  82(v),92(v),67(v),208(v)
                                                     91(v)
   58. BD ( 1) C 13- C 14       0.97619    -0.73848  67(v),88(v),192(v),86(g)
                                                     82(v),93(g),91(g),201(v)
   59. BD ( 1) C 13- H 22       0.98593    -0.69221  89(v),94(v),200(v),218(v)
                                                     85(v),86(v)
   60. BD ( 1) C 13- H 23       0.98979    -0.69014  89(v),94(v),199(v),217(v)
                                                     88(v),93(v)
   61. BD ( 1) C 14- H 24       0.99262    -0.71147  209(v),190(v),67(v),92(v)
   62. BD ( 1) C 14- H 25       0.98755    -0.70665  82(v),92(v),67(v),208(v)
                                                     91(v)
 ------ non-Lewis ----------------------------------
   63. LV ( 1) O  1             0.32820    -0.39068
   64. BD*( 1) O  1- C  2       0.00638     0.45977
   65. BD*( 2) O  1- C  2       0.12196    -0.14629
   66. BD*( 1) C  2- C  3       0.01972     0.32609
   67. BD*( 1) C  2- C 11       0.03221     0.25851
   68. BD*( 1) C  3- C  4       0.01271     0.48409
   69. BD*( 1) C  3- C  9       0.01549     0.47985
   70. BD*( 2) C  3- C  9       0.21483    -0.09613
   71. BD*( 1) C  4- C  5       0.01262     0.49442
   72. BD*( 2) C  4- C  5       0.15279    -0.08253
   73. BD*( 1) C  4- H 15       0.00628     0.40395
   74. BD*( 1) C  5-Br  6       0.01215     0.05644
   75. BD*( 1) C  5- C  7       0.01317     0.47924
   76. BD*( 1) C  7- C  8       0.00775     0.50358
   77. BD*( 2) C  7- C  8       0.12596    -0.06210
   78. BD*( 1) C  7- H 16       0.00627     0.42395
   79. BD*( 1) C  8- C  9       0.01147     0.50010
   80. BD*( 1) C  8- H 17       0.00647     0.41499
   81. BD*( 1) C  9- C 10       0.00915     0.33666
   82. BD*( 1) C 10- C 11       0.01211     0.28667
   83. BD*( 1) C 10- H 18       0.00629     0.38027
   84. BD*( 1) C 10- H 19       0.00629     0.38027
   85. BD*( 1) C 11- C 12       0.00805     0.26239
   86. BD*( 1) C 11- C 14       0.00805     0.26239
   87. BD*( 1) C 12- C 13       0.00157     0.30322
   88. BD*( 1) C 12- H 20       0.00677     0.41182
   89. BD*( 1) C 12- H 21       0.00524     0.39977
   90. BD*( 1) C 13- C 14       0.00157     0.30322
   91. BD*( 1) C 13- H 22       0.00602     0.43502
   92. BD*( 1) C 13- H 23       0.00588     0.41718
   93. BD*( 1) C 14- H 24       0.00677     0.41182
   94. BD*( 1) C 14- H 25       0.00524     0.39977
   95. RY ( 1) O  1             0.00047     1.13274
   96. RY ( 2) O  1             0.00044     0.99241
   97. RY ( 3) O  1             0.00016     1.51647
   98. RY ( 4) O  1             0.00002     0.95333
   99. RY ( 5) O  1             0.00001     2.97941
  100. RY ( 6) O  1             0.00000     2.78387
  101. RY ( 7) O  1             0.00000     2.47987
  102. RY ( 8) O  1             0.00000     2.60778
  103. RY ( 9) O  1             0.00000     2.66131
  104. RY ( 1) C  2             0.00924     0.47919
  105. RY ( 2) C  2             0.00264     1.36904
  106. RY ( 3) C  2             0.00208     0.74987
  107. RY ( 4) C  2             0.00113     0.97158
  108. RY ( 5) C  2             0.00083     1.23307
  109. RY ( 6) C  2             0.00040     2.31711
  110. RY ( 7) C  2             0.00022     2.00853
  111. RY ( 8) C  2             0.00006     1.48018
  112. RY ( 9) C  2             0.00001     2.00018
  113. RY ( 1) C  3             0.00319     1.07809
  114. RY ( 2) C  3             0.00128     1.14153
  115. RY ( 3) C  3             0.00101     0.58915
  116. RY ( 4) C  3             0.00067     1.02154
  117. RY ( 5) C  3             0.00052     1.36645
  118. RY ( 6) C  3             0.00010     2.27002
  119. RY ( 7) C  3             0.00010     1.77586
  120. RY ( 8) C  3             0.00005     2.07092
  121. RY ( 9) C  3             0.00001     2.09794
  122. RY ( 1) C  4             0.00299     1.01571
  123. RY ( 2) C  4             0.00168     0.61354
  124. RY ( 3) C  4             0.00080     0.65221
  125. RY ( 4) C  4             0.00045     0.59066
  126. RY ( 5) C  4             0.00027     1.66431
  127. RY ( 6) C  4             0.00005     2.23281
  128. RY ( 7) C  4             0.00001     1.81192
  129. RY ( 8) C  4             0.00001     2.28145
  130. RY ( 9) C  4             0.00000     2.12153
  131. RY ( 1) C  5             0.00380     0.71589
  132. RY ( 2) C  5             0.00344     1.03422
  133. RY ( 3) C  5             0.00147     0.94414
  134. RY ( 4) C  5             0.00035     0.65483
  135. RY ( 5) C  5             0.00033     1.84337
  136. RY ( 6) C  5             0.00024     2.07896
  137. RY ( 7) C  5             0.00013     2.02766
  138. RY ( 8) C  5             0.00003     1.29747
  139. RY ( 9) C  5             0.00000     2.09846
  140. RY ( 1)Br  6             0.00106     0.56360
  141. RY ( 2)Br  6             0.00055     0.65127
  142. RY ( 3)Br  6             0.00012     0.54904
  143. RY ( 4)Br  6             0.00004     0.85440
  144. RY ( 5)Br  6             0.00001     0.51068
  145. RY ( 6)Br  6             0.00001     0.75200
  146. RY ( 7)Br  6             0.00000     0.88002
  147. RY ( 8)Br  6             0.00000     0.78033
  148. RY ( 9)Br  6             0.00000     1.14359
  149. RY (10)Br  6             0.00000     3.32361
  150. RY (11)Br  6             0.00000     3.34508
  151. RY (12)Br  6             0.00000     3.39506
  152. RY (13)Br  6             0.00000     3.48144
  153. RY (14)Br  6             0.00000     3.12038
  154. RY ( 1) C  7             0.00332     1.06087
  155. RY ( 2) C  7             0.00133     0.65067
  156. RY ( 3) C  7             0.00047     1.25069
  157. RY ( 4) C  7             0.00045     0.57012
  158. RY ( 5) C  7             0.00022     1.08783
  159. RY ( 6) C  7             0.00008     2.27055
  160. RY ( 7) C  7             0.00002     2.22336
  161. RY ( 8) C  7             0.00001     1.79544
  162. RY ( 9) C  7             0.00000     2.12684
  163. RY ( 1) C  8             0.00308     1.07196
  164. RY ( 2) C  8             0.00129     0.68005
  165. RY ( 3) C  8             0.00048     0.86447
  166. RY ( 4) C  8             0.00024     0.63127
  167. RY ( 5) C  8             0.00019     1.52026
  168. RY ( 6) C  8             0.00004     2.18782
  169. RY ( 7) C  8             0.00001     2.26061
  170. RY ( 8) C  8             0.00000     2.17857
  171. RY ( 9) C  8             0.00000     1.80613
  172. RY ( 1) C  9             0.00219     1.07842
  173. RY ( 2) C  9             0.00163     1.11412
  174. RY ( 3) C  9             0.00123     0.75330
  175. RY ( 4) C  9             0.00048     0.63992
  176. RY ( 5) C  9             0.00048     1.79744
  177. RY ( 6) C  9             0.00013     1.69169
  178. RY ( 7) C  9             0.00010     2.23291
  179. RY ( 8) C  9             0.00001     2.06679
  180. RY ( 9) C  9             0.00000     2.12055
  181. RY ( 1) C 10             0.00232     0.83682
  182. RY ( 2) C 10             0.00214     0.58185
  183. RY ( 3) C 10             0.00127     0.63843
  184. RY ( 4) C 10             0.00042     0.88570
  185. RY ( 5) C 10             0.00019     2.00181
  186. RY ( 6) C 10             0.00003     1.98819
  187. RY ( 7) C 10             0.00001     2.20280
  188. RY ( 8) C 10             0.00001     2.11454
  189. RY ( 9) C 10             0.00000     2.22934
  190. RY ( 1) C 11             0.00258     1.09103
  191. RY ( 2) C 11             0.00155     0.88976
  192. RY ( 3) C 11             0.00143     1.29557
  193. RY ( 4) C 11             0.00099     0.94338
  194. RY ( 5) C 11             0.00026     2.06437
  195. RY ( 6) C 11             0.00025     1.78042
  196. RY ( 7) C 11             0.00014     1.92702
  197. RY ( 8) C 11             0.00007     1.97988
  198. RY ( 9) C 11             0.00003     1.82912
  199. RY ( 1) C 12             0.00252     0.94299
  200. RY ( 2) C 12             0.00104     0.82111
  201. RY ( 3) C 12             0.00060     0.80841
  202. RY ( 4) C 12             0.00016     0.82713
  203. RY ( 5) C 12             0.00011     1.86132
  204. RY ( 6) C 12             0.00005     1.59908
  205. RY ( 7) C 12             0.00001     2.16168
  206. RY ( 8) C 12             0.00001     2.20048
  207. RY ( 9) C 12             0.00000     2.15296
  208. RY ( 1) C 13             0.00211     1.02122
  209. RY ( 2) C 13             0.00117     0.77556
  210. RY ( 3) C 13             0.00028     0.62079
  211. RY ( 4) C 13             0.00011     0.87564
  212. RY ( 5) C 13             0.00009     1.85105
  213. RY ( 6) C 13             0.00002     1.82205
  214. RY ( 7) C 13             0.00001     2.19805
  215. RY ( 8) C 13             0.00000     2.17758
  216. RY ( 9) C 13             0.00000     2.16436
  217. RY ( 1) C 14             0.00252     0.94299
  218. RY ( 2) C 14             0.00104     0.82113
  219. RY ( 3) C 14             0.00060     0.80836
  220. RY ( 4) C 14             0.00016     0.82718
  221. RY ( 5) C 14             0.00011     1.86128
  222. RY ( 6) C 14             0.00005     1.59910
  223. RY ( 7) C 14             0.00001     2.16169
  224. RY ( 8) C 14             0.00001     2.20048
  225. RY ( 9) C 14             0.00000     2.15296
  226. RY ( 1) H 15             0.00064     0.29106
  227. RY ( 2) H 15             0.00007     1.60403
  228. RY ( 3) H 15             0.00003     2.12581
  229. RY ( 4) H 15             0.00002     2.10339
  230. RY ( 1) H 16             0.00071     0.29587
  231. RY ( 2) H 16             0.00005     1.60183
  232. RY ( 3) H 16             0.00003     2.16487
  233. RY ( 4) H 16             0.00001     2.06789
  234. RY ( 1) H 17             0.00057     0.29405
  235. RY ( 2) H 17             0.00006     1.60702
  236. RY ( 3) H 17             0.00003     2.28643
  237. RY ( 4) H 17             0.00001     1.94724
  238. RY ( 1) H 18             0.00068     0.32390
  239. RY ( 2) H 18             0.00004     1.83955
  240. RY ( 3) H 18             0.00003     1.75494
  241. RY ( 4) H 18             0.00001     2.19140
  242. RY ( 1) H 19             0.00068     0.32390
  243. RY ( 2) H 19             0.00004     1.83953
  244. RY ( 3) H 19             0.00003     1.75494
  245. RY ( 4) H 19             0.00001     2.19140
  246. RY ( 1) H 20             0.00059     0.31196
  247. RY ( 2) H 20             0.00004     1.90849
  248. RY ( 3) H 20             0.00002     1.70618
  249. RY ( 4) H 20             0.00001     2.17431
  250. RY ( 1) H 21             0.00085     0.31757
  251. RY ( 2) H 21             0.00004     1.85035
  252. RY ( 3) H 21             0.00003     1.71232
  253. RY ( 4) H 21             0.00000     2.19198
  254. RY ( 1) H 22             0.00055     0.31152
  255. RY ( 2) H 22             0.00004     1.95460
  256. RY ( 3) H 22             0.00003     1.68137
  257. RY ( 4) H 22             0.00001     2.20468
  258. RY ( 1) H 23             0.00079     0.33106
  259. RY ( 2) H 23             0.00004     1.66184
  260. RY ( 3) H 23             0.00004     1.91660
  261. RY ( 4) H 23             0.00000     2.21777
  262. RY ( 1) H 24             0.00059     0.31196
  263. RY ( 2) H 24             0.00004     1.90850
  264. RY ( 3) H 24             0.00002     1.70618
  265. RY ( 4) H 24             0.00001     2.17431
  266. RY ( 1) H 25             0.00085     0.31757
  267. RY ( 2) H 25             0.00004     1.85039
  268. RY ( 3) H 25             0.00003     1.71229
  269. RY ( 4) H 25             0.00000     2.19197
          -------------------------------
                 Total Lewis   60.70965  ( 97.9188%)
           Valence non-Lewis    1.19544  (  1.9281%)
           Rydberg non-Lewis    0.09490  (  0.1531%)
          -------------------------------
               Total unit  1   62.00000  (100.0000%)
              Charge unit  1    1.00000

 $CHOOSE
  ALPHA
   LONE 1 2 6 3 END
   BOND D 1 2 S 2 3 S 2 11 S 3 4 D 3 9 D 4 5 S 4 15 S 5 6 S 5 7 D 7 8 S 7 16
        S 8 9 S 8 17 S 9 10 S 10 11 S 10 18 S 10 19 S 11 12 S 11 14 S 12 13
        S 12 20 S 12 21 S 13 14 S 13 22 S 13 23 S 14 24 S 14 25 END
  END
  BETA
   LONE 1 1 6 3 END
   BOND D 1 2 S 2 3 S 2 11 S 3 4 D 3 9 D 4 5 S 4 15 S 5 6 S 5 7 D 7 8 S 7 16
        S 8 9 S 8 17 S 9 10 S 10 11 S 10 18 S 10 19 S 11 12 S 11 14 S 12 13
        S 12 20 S 12 21 S 13 14 S 13 22 S 13 23 S 14 24 S 14 25 END
  END
 $END

 NBO analysis completed in 2.38 CPU seconds (2 wall seconds)
 Maximum scratch memory used by NBO was 1130017 words (8.62 MB)
 Maximum scratch memory used by G16NBO was 154651 words (1.18 MB)

 Opening RunExU unformatted file "/home/rpaton/opt/dzvp/fukui/Gau-1748202.EUF"
 Read unf file /home/rpaton/opt/dzvp/fukui/Gau-1748202.EUF:
 Label Gaussian matrix elements                                         IVers= 2 NLab= 2 Version=ES64L-G16RevC.01
 Title arbr39_wb97xd_popncreated by GaussianPrep                       
 NAtoms=    25 NBasis=   269 NBsUse=   269 ICharg=     1 Multip=     2 NE=   125 Len12L=8 Len4L=8 IOpCl= 1 ICGU=112
 GAUSSIAN SCALARS                    NI= 1 NR= 1 NTot=       1 LenBuf=    2 NRI=1 N=    1000
 NPA CHARGES                         NI= 0 NR= 1 NTot=      25 LenBuf= 2048 NRI=1 N=      25
 Recovered energy= -3112.12840794     dipole=     -2.972969658269      0.709516781156     -0.000038599276
 Unable to Open any file for archive entry.
 1\1\GINC-DYNAMO\SP\UwB97XD\def2SVP\C12H11Br1O1(1+,2)\RPATON\27-Sep-202
 4\0\\# pop=(nbo6,hirshfeld) wb97xd/def2svp\\arbr39_wb97xd_popncreated 
 by GaussianPrep\\1,2\O,0,1.734501,-2.189052,-0.00001\C,0,1.619555,-0.9
 8803,0.000106\C,0,0.354225,-0.212893,0.000047\C,0,-0.949743,-0.706681,
 0.00003\C,0,-1.984577,0.220469,0.000003\Br,0,-3.781015,-0.374294,-0.00
 0011\C,0,-1.721483,1.598374,-0.00001\C,0,-0.410386,2.068554,-0.000001\
 C,0,0.639903,1.150428,0.000023\C,0,2.127929,1.407871,0.000001\C,0,2.77
 8383,0.008775,0.000015\C,0,3.875817,-0.243289,1.07218\C,0,4.95564,-0.0
 02161,-0.000061\C,0,3.875741,-0.243356,-1.07221\H,0,-1.132502,-1.78268
 ,0.000049\H,0,-2.555483,2.302381,-0.000032\H,0,-0.219689,3.144138,-0.0
 00023\H,0,2.419042,1.998245,0.883647\H,0,2.419011,1.9982,-0.883685\H,0
 ,3.86162,0.410506,1.956895\H,0,3.850396,-1.293801,1.397112\H,0,5.82945
 1,-0.668754,-0.00007\H,0,5.309848,1.039621,-0.000107\H,0,3.861484,0.41
 0382,-1.956966\H,0,3.850298,-1.29389,-1.397073\\Version=ES64L-G16RevC.
 01\State=2-A\HF=-3112.1284079\S2=0.75808\S2-1=0.\S2A=0.750049\RMSD=4.6
 80e-09\Dipole=2.9729697,0.7095166,0.0000386\Quadrupole=18.4174978,-4.2
 050496,-14.2124482,-1.0790815,0.0001592,-0.0003368\PG=C01 [X(C12H11Br1
 O1)]\\@
 The archive entry for this job was punched.


 EXPERIENCE IS A WONDERFUL THING.  IT ENABLES
 YOU TO RECOGNIZE A MISTAKE WHEN YOU MAKE IT AGAIN.
           - BACK OF A SUGAR PACKET
 Job cpu time:       0 days  0 hours 24 minutes  6.1 seconds.
 Elapsed time:       0 days  0 hours  1 minutes  0.8 seconds.
 File lengths (MBytes):  RWF=     73 Int=      0 D2E=      0 Chk=      6 Scr=      1
 Normal termination of Gaussian 16 at Fri Sep 27 18:39:28 2024.
