 Entering Gaussian System, Link 0=/usr/local/Gaussian/G16C/g16/g16
 Input=arbr35_wb97xd_oxd.com
 Output=arbr35_wb97xd_oxd.log
 Initial command:
 /usr/local/Gaussian/G16C/g16/l1.exe "/home/rpaton/opt/dzvp/fukui/Gau-1734818.inp" -scrdir="/home/rpaton/opt/dzvp/fukui/"
 Entering Link 1 = /usr/local/Gaussian/G16C/g16/l1.exe PID=   1734819.
  
 Copyright (c) 1988-2019, Gaussian, Inc.  All Rights Reserved.
  
 This is part of the Gaussian(R) 16 program.  It is based on
 the Gaussian(R) 09 system (copyright 2009, Gaussian, Inc.),
 the Gaussian(R) 03 system (copyright 2003, Gaussian, Inc.),
 the Gaussian(R) 98 system (copyright 1998, Gaussian, Inc.),
 the Gaussian(R) 94 system (copyright 1995, Gaussian, Inc.),
 the Gaussian 92(TM) system (copyright 1992, Gaussian, Inc.),
 the Gaussian 90(TM) system (copyright 1990, Gaussian, Inc.),
 the Gaussian 88(TM) system (copyright 1988, Gaussian, Inc.),
 the Gaussian 86(TM) system (copyright 1986, Carnegie Mellon
 University), and the Gaussian 82(TM) system (copyright 1983,
 Carnegie Mellon University). Gaussian is a federally registered
 trademark of Gaussian, Inc.
  
 This software contains proprietary and confidential information,
 including trade secrets, belonging to Gaussian, Inc.
  
 This software is provided under written license and may be
 used, copied, transmitted, or stored only in accord with that
 written license.
  
 The following legend is applicable only to US Government
 contracts under FAR:
  
                    RESTRICTED RIGHTS LEGEND
  
 Use, reproduction and disclosure by the US Government is
 subject to restrictions as set forth in subparagraphs (a)
 and (c) of the Commercial Computer Software - Restricted
 Rights clause in FAR 52.227-19.
  
 Gaussian, Inc.
 340 Quinnipiac St., Bldg. 40, Wallingford CT 06492
  
  
 ---------------------------------------------------------------
 Warning -- This program may not be used in any manner that
 competes with the business of Gaussian, Inc. or will provide
 assistance to any competitor of Gaussian, Inc.  The licensee
 of this program is prohibited from giving any competitor of
 Gaussian, Inc. access to this program.  By using this program,
 the user acknowledges that Gaussian, Inc. is engaged in the
 business of creating and licensing software in the field of
 computational chemistry and represents and warrants to the
 licensee that it is not a competitor of Gaussian, Inc. and that
 it will not use this program in any manner prohibited above.
 ---------------------------------------------------------------
  

 Cite this work as:
 Gaussian 16, Revision C.01,
 M. J. Frisch, G. W. Trucks, H. B. Schlegel, G. E. Scuseria, 
 M. A. Robb, J. R. Cheeseman, G. Scalmani, V. Barone, 
 G. A. Petersson, H. Nakatsuji, X. Li, M. Caricato, A. V. Marenich, 
 J. Bloino, B. G. Janesko, R. Gomperts, B. Mennucci, H. P. Hratchian, 
 J. V. Ortiz, A. F. Izmaylov, J. L. Sonnenberg, D. Williams-Young, 
 F. Ding, F. Lipparini, F. Egidi, J. Goings, B. Peng, A. Petrone, 
 T. Henderson, D. Ranasinghe, V. G. Zakrzewski, J. Gao, N. Rega, 
 G. Zheng, W. Liang, M. Hada, M. Ehara, K. Toyota, R. Fukuda, 
 J. Hasegawa, M. Ishida, T. Nakajima, Y. Honda, O. Kitao, H. Nakai, 
 T. Vreven, K. Throssell, J. A. Montgomery, Jr., J. E. Peralta, 
 F. Ogliaro, M. J. Bearpark, J. J. Heyd, E. N. Brothers, K. N. Kudin, 
 V. N. Staroverov, T. A. Keith, R. Kobayashi, J. Normand, 
 K. Raghavachari, A. P. Rendell, J. C. Burant, S. S. Iyengar, 
 J. Tomasi, M. Cossi, J. M. Millam, M. Klene, C. Adamo, R. Cammi, 
 J. W. Ochterski, R. L. Martin, K. Morokuma, O. Farkas, 
 J. B. Foresman, and D. J. Fox, Gaussian, Inc., Wallingford CT, 2019.
 
 ******************************************
 Gaussian 16:  ES64L-G16RevC.01  3-Jul-2019
                27-Sep-2024 
 ******************************************
 %chk=arbr35_wb97xd_popn.chk
 %mem=48GB
 %nprocshared=24
 Will use up to   24 processors via shared memory.
 -------------------------------------
 # pop=(nbo6,hirshfeld) wb97xd/def2svp
 -------------------------------------
 1/38=1,172=1/1;
 2/12=2,17=6,18=5,40=1/2;
 3/5=43,7=101,11=2,25=1,30=1,74=-58/1,2,3;
 4//1;
 5/5=2,38=5/2;
 6/7=2,8=2,9=2,10=2,28=1,40=1,79=1,113=1,114=1,124=3103,126=1/1,12;
 99/5=1,9=1/99;
 -----------------------------------------
 arbr35_wb97xd_popncreated by GaussianPrep
 -----------------------------------------
 Symbolic Z-matrix:
 Charge =  1 Multiplicity = 2
 Br                    5.90859  -0.31178  0. 
 C                     4.05765   0.08574  0. 
 C                     3.64763   1.42166   0. 
 C                     2.28841   1.72873   0. 
 C                     1.3574    0.69188   0. 
 C                     1.7833   -0.64767   0. 
 C                     3.13611  -0.96321   0. 
 C                     0.5921   -1.57538   0.00001 
 C                    -0.57387  -0.6158    0. 
 C                    -1.93492  -0.89503   0. 
 C                    -2.83167   0.17677   0. 
 I                    -4.90234  -0.21088  0. 
 C                    -2.38231   1.50116   0. 
 C                    -1.01492   1.77237   0. 
 C                    -0.11189   0.71151   0. 
 H                     4.39384   2.21733   0. 
 H                     1.96771   2.77271   0. 
 H                     3.47798  -1.9997   0. 
 H                     0.58347  -2.23157   0.88589 
 H                     0.58347  -2.23158  -0.88587 
 H                    -2.29469  -1.92574   0. 
 H                    -3.09967   2.32327  0. 
 H                    -0.66702   2.80768  0. 
 
                          Input orientation:                          
 ---------------------------------------------------------------------
 Center     Atomic      Atomic             Coordinates (Angstroms)
 Number     Number       Type             X           Y           Z
 ---------------------------------------------------------------------
      1         35           0        5.908593   -0.311782   -0.000002
      2          6           0        4.057653    0.085737   -0.000001
      3          6           0        3.647629    1.421661    0.000001
      4          6           0        2.288411    1.728729    0.000003
      5          6           0        1.357396    0.691882    0.000003
      6          6           0        1.783297   -0.647672    0.000002
      7          6           0        3.136106   -0.963207    0.000000
      8          6           0        0.592098   -1.575381    0.000005
      9          6           0       -0.573873   -0.615802    0.000003
     10          6           0       -1.934921   -0.895026    0.000002
     11          6           0       -2.831669    0.176772    0.000001
     12         53           0       -4.902338   -0.210877   -0.000001
     13          6           0       -2.382312    1.501162    0.000000
     14          6           0       -1.014918    1.772373    0.000000
     15          6           0       -0.111888    0.711509    0.000003
     16          1           0        4.393845    2.217330    0.000000
     17          1           0        1.967709    2.772705    0.000004
     18          1           0        3.477983   -1.999701   -0.000002
     19          1           0        0.583474   -2.231571    0.885890
     20          1           0        0.583472   -2.231579   -0.885874
     21          1           0       -2.294690   -1.925742    0.000001
     22          1           0       -3.099666    2.323267   -0.000001
     23          1           0       -0.667015    2.807678   -0.000002
 ---------------------------------------------------------------------
                    Distance matrix (angstroms):
                    1          2          3          4          5
     1  Br   0.000000
     2  C    1.893146   0.000000
     3  C    2.848997   1.397431   0.000000
     4  C    4.155647   2.414465   1.393472   0.000000
     5  C    4.660551   2.767454   2.403694   1.393499   0.000000
     6  C    4.138948   2.389683   2.785296   2.429490   1.405630
     7  C    2.847989   1.396257   2.439109   2.822252   2.429636
     8  C    5.464595   3.843096   4.280015   3.714111   2.392940
     9  C    6.489591   4.684356   4.687466   3.699932   2.332346
    10  C    7.865169   6.072301   6.044163   4.971984   3.654809
    11  C    8.753906   6.889923   6.597807   5.350121   4.220617
    12  I   10.811402   8.964899   8.704431   7.447747   6.324496
    13  C    8.486806   6.593677   6.030465   4.676263   3.826271
    14  C    7.230402   5.345626   4.675718   3.303617   2.606786
    15  C    6.106825   4.216238   3.826001   2.606947   1.469415
    16  H    2.948028   2.157942   1.090838   2.161385   3.398090
    17  H    5.004461   3.404066   2.155795   1.092124   2.168480
    18  H    2.959212   2.164502   3.425565   3.913601   3.426588
    19  H    5.729510   4.269033   4.849737   4.401770   3.151242
    20  H    5.729512   4.269035   4.849742   4.401776   3.151247
    21  H    8.360545   6.663206   6.820283   5.861738   4.493294
    22  H    9.385745   7.498917   6.807267   5.420779   4.746243
    23  H    7.278025   5.452655   4.531798   3.146216   2.928282
                    6          7          8          9         10
     6  C    0.000000
     7  C    1.389120   0.000000
     8  C    1.509834   2.616626   0.000000
     9  C    2.357385   3.726209   1.510060   0.000000
    10  C    3.726437   5.071485   2.617004   1.389395   0.000000
    11  C    4.688029   6.075680   3.846066   2.392868   1.397465
    12  I    6.699888   8.073573   5.661334   4.347364   3.045262
    13  C    4.687194   6.043679   4.279279   2.784239   2.437596
    14  C    3.699544   4.971358   3.713483   2.428559   2.821599
    15  C    2.332188   3.654331   2.392794   1.405413   2.429898
    16  H    3.875977   3.420193   5.370097   5.718816   7.052662
    17  H    3.425345   3.914357   4.560500   4.235755   5.355630
    18  H    2.167935   1.091421   2.916913   4.281672   5.524476
    19  H    2.175571   2.984875   1.102475   2.175996   2.985542
    20  H    2.175573   2.984875   1.102475   2.175997   2.985541
    21  H    4.273575   5.515435   2.907971   2.162673   1.091700
    22  H    5.715751   7.048813   5.369225   3.875275   3.422578
    23  H    4.235974   5.355680   4.560326   3.424747   3.913771
                   11         12         13         14         15
    11  C    0.000000
    12  I    2.106642   0.000000
    13  C    1.398546   3.046573   0.000000
    14  C    2.417959   4.364094   1.394031   0.000000
    15  C    2.771850   4.878443   2.403825   1.393160   0.000000
    16  H    7.508124   9.608080   6.813898   5.427035   4.750698
    17  H    5.456455   7.489947   4.532053   3.145907   2.928012
    18  H    6.674484   8.569111   6.826353   5.866404   4.498648
    19  H    4.271781   5.912879   4.849122   4.401275   3.151197
    20  H    4.271781   5.912877   4.849124   4.401279   3.151201
    21  H    2.170003   3.120992   3.428024   3.913294   3.423407
    22  H    2.163160   3.109905   1.091079   2.156307   3.394787
    23  H    3.406962   5.200926   2.156207   1.092196   2.168430
                   16         17         18         19         20
    16  H    0.000000
    17  H    2.488891   0.000000
    18  H    4.315339   5.005675   0.000000
    19  H    5.924226   5.267227   3.035910   0.000000
    20  H    5.924230   5.267234   3.035907   1.771764   0.000000
    21  H    7.867754   6.343772   5.773147   3.026906   3.026901
    22  H    7.494260   5.087267   7.871056   5.924261   5.924264
    23  H    5.095176   2.634956   6.347590   5.267120   5.267124
                   21         22         23
    21  H    0.000000
    22  H    4.324588   0.000000
    23  H    5.005456   2.480412   0.000000
 Stoichiometry    C13H8BrI(1+,2)
 Framework group  C1[X(C13H8BrI)]
 Deg. of freedom    63
 Full point group                 C1      NOp   1
 Largest Abelian subgroup         C1      NOp   1
 Largest concise Abelian subgroup C1      NOp   1
                         Standard orientation:                         
 ---------------------------------------------------------------------
 Center     Atomic      Atomic             Coordinates (Angstroms)
 Number     Number       Type             X           Y           Z
 ---------------------------------------------------------------------
      1         35           0        5.908593   -0.311782   -0.000002
      2          6           0        4.057653    0.085737   -0.000001
      3          6           0        3.647629    1.421661    0.000001
      4          6           0        2.288411    1.728729    0.000003
      5          6           0        1.357396    0.691882    0.000003
      6          6           0        1.783297   -0.647672    0.000002
      7          6           0        3.136106   -0.963207   -0.000000
      8          6           0        0.592098   -1.575381    0.000005
      9          6           0       -0.573873   -0.615802    0.000003
     10          6           0       -1.934921   -0.895026    0.000002
     11          6           0       -2.831669    0.176772    0.000001
     12         53           0       -4.902338   -0.210877   -0.000001
     13          6           0       -2.382312    1.501162   -0.000000
     14          6           0       -1.014918    1.772373   -0.000000
     15          6           0       -0.111888    0.711509    0.000003
     16          1           0        4.393845    2.217330   -0.000000
     17          1           0        1.967709    2.772705    0.000004
     18          1           0        3.477983   -1.999701   -0.000002
     19          1           0        0.583474   -2.231571    0.885890
     20          1           0        0.583472   -2.231579   -0.885874
     21          1           0       -2.294690   -1.925742    0.000001
     22          1           0       -3.099666    2.323267   -0.000001
     23          1           0       -0.667015    2.807678   -0.000002
 ---------------------------------------------------------------------
 Rotational constants (GHZ):           1.9755139           0.0756735           0.0729150
 Standard basis: def2SVP (5D, 7F)
 There are   298 symmetry adapted cartesian basis functions of A   symmetry.
 There are   280 symmetry adapted basis functions of A   symmetry.
   280 basis functions,   528 primitive gaussians,   298 cartesian basis functions
    73 alpha electrons       72 beta electrons
       nuclear repulsion energy      1306.3981882178 Hartrees.
 NAtoms=   23 NActive=   23 NUniq=   23 SFac= 1.00D+00 NAtFMM=   60 NAOKFM=F Big=F
 Integral buffers will be    131072 words long.
 Raffenetti 2 integral format.
 Two-electron integral symmetry is turned on.
 Nuclear repulsion after empirical dispersion term =     1306.3823307879 Hartrees.
 One-electron integrals computed using PRISM.
   1 Symmetry operations used in ECPInt.
 ECPInt:  NShTT=    7750 NPrTT=   31390 LenC2=    7109 LenP2D=   20416.
 LDataN:  DoStor=T MaxTD1= 6 Len=  172
 NBasis=   280 RedAO= T EigKep=  2.42D-04  NBF=   280
 NBsUse=   280 1.00D-06 EigRej= -1.00D+00 NBFU=   280
 Defaulting to unpruned grid for atomic number  53.
 ExpMin= 1.11D-01 ExpMax= 1.13D+05 ExpMxC= 1.70D+04 IAcc=3 IRadAn=         5 AccDes= 0.00D+00
 Harris functional with IExCor= 4639 and IRadAn=       5 diagonalized for initial guess.
 HarFok:  IExCor= 4639 AccDes= 0.00D+00 IRadAn=         5 IDoV= 1 UseB2=F ITyADJ=14
 ICtDFT=  3500011 ScaDFX=  1.000000  1.000000  1.000000  1.000000
 Defaulting to unpruned grid for atomic number  53.
 FoFCou: FMM=F IPFlag=           0 FMFlag=      100000 FMFlg1=           0
         NFxFlg=           0 DoJE=T BraDBF=F KetDBF=T FulRan=T
         wScrn=  0.000000 ICntrl=       500 IOpCl=  0 I1Cent=   200000004 NGrid=           0
         NMat0=    1 NMatS0=      1 NMatT0=    0 NMatD0=    1 NMtDS0=    0 NMtDT0=    0
 Petite list used in FoFCou.
 Initial guess <Sx>= 0.0000 <Sy>= 0.0000 <Sz>= 0.5000 <S**2>= 0.7500 S= 0.5000
 Requested convergence on RMS density matrix=1.00D-08 within 128 cycles.
 Requested convergence on MAX density matrix=1.00D-06.
 Requested convergence on             energy=1.00D-06.
 No special actions if energy rises.
 Integral accuracy reduced to 1.0D-05 until final iterations.
 Defaulting to unpruned grid for atomic number  53.
 Defaulting to unpruned grid for atomic number  53.
 Defaulting to unpruned grid for atomic number  53.
 Defaulting to unpruned grid for atomic number  53.
 Defaulting to unpruned grid for atomic number  53.
 Defaulting to unpruned grid for atomic number  53.
 Defaulting to unpruned grid for atomic number  53.
 Defaulting to unpruned grid for atomic number  53.
 Defaulting to unpruned grid for atomic number  53.
 Defaulting to unpruned grid for atomic number  53.
 Defaulting to unpruned grid for atomic number  53.
 Defaulting to unpruned grid for atomic number  53.
 Defaulting to unpruned grid for atomic number  53.
 Defaulting to unpruned grid for atomic number  53.
 Defaulting to unpruned grid for atomic number  53.
 Defaulting to unpruned grid for atomic number  53.
 Defaulting to unpruned grid for atomic number  53.
 Defaulting to unpruned grid for atomic number  53.
 Defaulting to unpruned grid for atomic number  53.
 Defaulting to unpruned grid for atomic number  53.
 Defaulting to unpruned grid for atomic number  53.
 Defaulting to unpruned grid for atomic number  53.
 Defaulting to unpruned grid for atomic number  53.
 Defaulting to unpruned grid for atomic number  53.
 Initial convergence to 1.0D-05 achieved.  Increase integral accuracy.
 SCF Done:  E(UwB97XD) =  -3371.08044465     A.U. after   26 cycles
            NFock= 26  Conv=0.49D-08     -V/T= 2.0605
 <Sx>= 0.0000 <Sy>= 0.0000 <Sz>= 0.5000 <S**2>= 0.7789 S= 0.5144
 <L.S>= 0.000000000000E+00
 Annihilation of the first spin contaminant:
 S**2 before annihilation     0.7789,   after     0.7505

 **********************************************************************

            Population analysis using the SCF Density.

 **********************************************************************

 Orbital symmetries:
 Alpha Orbitals:
       Occupied  (A) (A) (A) (A) (A) (A) (A) (A) (A) (A) (A) (A)
                 (A) (A) (A) (A) (A) (A) (A) (A) (A) (A) (A) (A)
                 (A) (A) (A) (A) (A) (A) (A) (A) (A) (A) (A) (A)
                 (A) (A) (A) (A) (A) (A) (A) (A) (A) (A) (A) (A)
                 (A) (A) (A) (A) (A) (A) (A) (A) (A) (A) (A) (A)
                 (A) (A) (A) (A) (A) (A) (A) (A) (A) (A) (A) (A)
                 (A)
       Virtual   (A) (A) (A) (A) (A) (A) (A) (A) (A) (A) (A) (A)
                 (A) (A) (A) (A) (A) (A) (A) (A) (A) (A) (A) (A)
                 (A) (A) (A) (A) (A) (A) (A) (A) (A) (A) (A) (A)
                 (A) (A) (A) (A) (A) (A) (A) (A) (A) (A) (A) (A)
                 (A) (A) (A) (A) (A) (A) (A) (A) (A) (A) (A) (A)
                 (A) (A) (A) (A) (A) (A) (A) (A) (A) (A) (A) (A)
                 (A) (A) (A) (A) (A) (A) (A) (A) (A) (A) (A) (A)
                 (A) (A) (A) (A) (A) (A) (A) (A) (A) (A) (A) (A)
                 (A) (A) (A) (A) (A) (A) (A) (A) (A) (A) (A) (A)
                 (A) (A) (A) (A) (A) (A) (A) (A) (A) (A) (A) (A)
                 (A) (A) (A) (A) (A) (A) (A) (A) (A) (A) (A) (A)
                 (A) (A) (A) (A) (A) (A) (A) (A) (A) (A) (A) (A)
                 (A) (A) (A) (A) (A) (A) (A) (A) (A) (A) (A) (A)
                 (A) (A) (A) (A) (A) (A) (A) (A) (A) (A) (A) (A)
                 (A) (A) (A) (A) (A) (A) (A) (A) (A) (A) (A) (A)
                 (A) (A) (A) (A) (A) (A) (A) (A) (A) (A) (A) (A)
                 (A) (A) (A) (A) (A) (A) (A) (A) (A) (A) (A) (A)
                 (A) (A) (A)
 Beta  Orbitals:
       Occupied  (A) (A) (A) (A) (A) (A) (A) (A) (A) (A) (A) (A)
                 (A) (A) (A) (A) (A) (A) (A) (A) (A) (A) (A) (A)
                 (A) (A) (A) (A) (A) (A) (A) (A) (A) (A) (A) (A)
                 (A) (A) (A) (A) (A) (A) (A) (A) (A) (A) (A) (A)
                 (A) (A) (A) (A) (A) (A) (A) (A) (A) (A) (A) (A)
                 (A) (A) (A) (A) (A) (A) (A) (A) (A) (A) (A) (A)
       Virtual   (A) (A) (A) (A) (A) (A) (A) (A) (A) (A) (A) (A)
                 (A) (A) (A) (A) (A) (A) (A) (A) (A) (A) (A) (A)
                 (A) (A) (A) (A) (A) (A) (A) (A) (A) (A) (A) (A)
                 (A) (A) (A) (A) (A) (A) (A) (A) (A) (A) (A) (A)
                 (A) (A) (A) (A) (A) (A) (A) (A) (A) (A) (A) (A)
                 (A) (A) (A) (A) (A) (A) (A) (A) (A) (A) (A) (A)
                 (A) (A) (A) (A) (A) (A) (A) (A) (A) (A) (A) (A)
                 (A) (A) (A) (A) (A) (A) (A) (A) (A) (A) (A) (A)
                 (A) (A) (A) (A) (A) (A) (A) (A) (A) (A) (A) (A)
                 (A) (A) (A) (A) (A) (A) (A) (A) (A) (A) (A) (A)
                 (A) (A) (A) (A) (A) (A) (A) (A) (A) (A) (A) (A)
                 (A) (A) (A) (A) (A) (A) (A) (A) (A) (A) (A) (A)
                 (A) (A) (A) (A) (A) (A) (A) (A) (A) (A) (A) (A)
                 (A) (A) (A) (A) (A) (A) (A) (A) (A) (A) (A) (A)
                 (A) (A) (A) (A) (A) (A) (A) (A) (A) (A) (A) (A)
                 (A) (A) (A) (A) (A) (A) (A) (A) (A) (A) (A) (A)
                 (A) (A) (A) (A) (A) (A) (A) (A) (A) (A) (A) (A)
                 (A) (A) (A) (A)
 The electronic state is 2-A.
 Alpha  occ. eigenvalues -- -483.20280 -62.78463 -56.59243 -56.58918 -56.58832
 Alpha  occ. eigenvalues --  -10.52557 -10.52261 -10.49453 -10.49045 -10.48778
 Alpha  occ. eigenvalues --  -10.48633 -10.47942 -10.47789 -10.47581 -10.47359
 Alpha  occ. eigenvalues --  -10.47095 -10.46942 -10.46772  -8.95409  -7.10823
 Alpha  occ. eigenvalues --   -6.77980  -6.76739  -6.76498  -5.13117  -5.11692
 Alpha  occ. eigenvalues --   -5.11339  -2.88360  -2.88039  -2.87863  -2.86857
 Alpha  occ. eigenvalues --   -2.86850  -2.16523  -2.16133  -2.15862  -2.14633
 Alpha  occ. eigenvalues --   -2.14619  -1.16883  -1.12934  -1.08745  -1.04497
 Alpha  occ. eigenvalues --   -1.02905  -1.00841  -0.97620  -0.95004  -0.92871
 Alpha  occ. eigenvalues --   -0.88639  -0.85055  -0.83008  -0.82838  -0.77424
 Alpha  occ. eigenvalues --   -0.74653  -0.71999  -0.70530  -0.69747  -0.69575
 Alpha  occ. eigenvalues --   -0.68752  -0.66364  -0.66001  -0.64608  -0.63626
 Alpha  occ. eigenvalues --   -0.63210  -0.60228  -0.58997  -0.58785  -0.57418
 Alpha  occ. eigenvalues --   -0.57278  -0.52806  -0.50573  -0.50292  -0.48959
 Alpha  occ. eigenvalues --   -0.48023  -0.47886  -0.45044
 Alpha virt. eigenvalues --   -0.15067  -0.11771  -0.10172  -0.09934  -0.07380
 Alpha virt. eigenvalues --   -0.05862   0.02234   0.02750   0.03136   0.03915
 Alpha virt. eigenvalues --    0.06520   0.07556   0.07904   0.09581   0.10899
 Alpha virt. eigenvalues --    0.11183   0.12644   0.14363   0.15073   0.15978
 Alpha virt. eigenvalues --    0.17172   0.17744   0.19654   0.21562   0.22862
 Alpha virt. eigenvalues --    0.23941   0.25301   0.25954   0.27120   0.27207
 Alpha virt. eigenvalues --    0.29637   0.30028   0.30702   0.31969   0.32547
 Alpha virt. eigenvalues --    0.34044   0.34479   0.34576   0.35524   0.36305
 Alpha virt. eigenvalues --    0.37454   0.37863   0.37983   0.38731   0.39636
 Alpha virt. eigenvalues --    0.40012   0.40266   0.41543   0.42090   0.43087
 Alpha virt. eigenvalues --    0.43999   0.44354   0.45182   0.46244   0.47944
 Alpha virt. eigenvalues --    0.48580   0.49037   0.50009   0.52554   0.53262
 Alpha virt. eigenvalues --    0.54380   0.55835   0.56060   0.57183   0.57473
 Alpha virt. eigenvalues --    0.59204   0.59290   0.59635   0.59818   0.60103
 Alpha virt. eigenvalues --    0.61712   0.62097   0.62265   0.62829   0.63285
 Alpha virt. eigenvalues --    0.64151   0.64500   0.65275   0.66551   0.66588
 Alpha virt. eigenvalues --    0.67201   0.68809   0.69620   0.71063   0.71832
 Alpha virt. eigenvalues --    0.72380   0.74856   0.75535   0.78059   0.82514
 Alpha virt. eigenvalues --    0.84016   0.85111   0.89319   0.93106   0.93241
 Alpha virt. eigenvalues --    0.95534   0.99239   1.03017   1.05469   1.09515
 Alpha virt. eigenvalues --    1.11598   1.11766   1.12491   1.13210   1.14362
 Alpha virt. eigenvalues --    1.15588   1.16735   1.16990   1.19543   1.20350
 Alpha virt. eigenvalues --    1.21696   1.22021   1.22620   1.30988   1.32215
 Alpha virt. eigenvalues --    1.36699   1.40079   1.41131   1.41694   1.46706
 Alpha virt. eigenvalues --    1.47411   1.54817   1.59982   1.61532   1.61879
 Alpha virt. eigenvalues --    1.62597   1.64561   1.65002   1.65373   1.66602
 Alpha virt. eigenvalues --    1.67710   1.68451   1.70354   1.71740   1.73590
 Alpha virt. eigenvalues --    1.74324   1.76121   1.76707   1.78425   1.78435
 Alpha virt. eigenvalues --    1.79459   1.80109   1.83774   1.86791   1.87726
 Alpha virt. eigenvalues --    1.87757   1.91216   1.92335   1.94131   1.96896
 Alpha virt. eigenvalues --    2.00573   2.01593   2.05040   2.06024   2.06221
 Alpha virt. eigenvalues --    2.06646   2.07652   2.10678   2.11579   2.13798
 Alpha virt. eigenvalues --    2.18911   2.19877   2.19970   2.21618   2.22754
 Alpha virt. eigenvalues --    2.25353   2.26979   2.28346   2.29338   2.31939
 Alpha virt. eigenvalues --    2.37034   2.37826   2.37842   2.50205   2.50748
 Alpha virt. eigenvalues --    2.51395   2.51727   2.55137   2.56037   2.58204
 Alpha virt. eigenvalues --    2.60826   2.62254   2.62516   2.70344   2.77260
 Alpha virt. eigenvalues --    2.78059   2.79466   2.81911   2.82872   2.87940
 Alpha virt. eigenvalues --    2.88942   2.90266   2.94795   3.05566   3.07787
 Alpha virt. eigenvalues --    3.22917   3.36559   3.38556   3.42404   3.46293
 Alpha virt. eigenvalues --    3.52583   3.59140   3.78786  18.63075  18.83441
 Alpha virt. eigenvalues --   19.22588  56.39977
  Beta  occ. eigenvalues -- -483.20256 -62.78446 -56.59236 -56.58859 -56.58820
  Beta  occ. eigenvalues --  -10.52284 -10.51975 -10.49309 -10.48932 -10.48641
  Beta  occ. eigenvalues --  -10.48487 -10.47865 -10.47697 -10.47598 -10.47440
  Beta  occ. eigenvalues --  -10.47127 -10.47030 -10.46791  -8.95380  -7.10769
  Beta  occ. eigenvalues --   -6.77976  -6.76647  -6.76485  -5.13100  -5.11580
  Beta  occ. eigenvalues --   -5.11315  -2.88344  -2.87997  -2.87859  -2.86813
  Beta  occ. eigenvalues --   -2.86808  -2.16490  -2.16065  -2.15850  -2.14564
  Beta  occ. eigenvalues --   -2.14554  -1.16374  -1.12437  -1.08230  -1.04176
  Beta  occ. eigenvalues --   -1.02369  -1.00709  -0.97105  -0.94941  -0.92261
  Beta  occ. eigenvalues --   -0.88260  -0.84689  -0.82728  -0.82423  -0.77335
  Beta  occ. eigenvalues --   -0.74489  -0.71726  -0.69781  -0.69516  -0.69405
  Beta  occ. eigenvalues --   -0.68605  -0.66238  -0.65910  -0.64349  -0.62355
  Beta  occ. eigenvalues --   -0.61997  -0.60066  -0.58799  -0.58600  -0.57047
  Beta  occ. eigenvalues --   -0.55205  -0.50441  -0.50217  -0.49783  -0.48835
  Beta  occ. eigenvalues --   -0.47700  -0.44782
  Beta virt. eigenvalues --   -0.28883  -0.13111  -0.10967  -0.09729  -0.08632
  Beta virt. eigenvalues --   -0.05666  -0.05442   0.02297   0.03169   0.03404
  Beta virt. eigenvalues --    0.04040   0.06516   0.07609   0.07915   0.10725
  Beta virt. eigenvalues --    0.11104   0.11322   0.12787   0.14659   0.15236
  Beta virt. eigenvalues --    0.16160   0.17366   0.17943   0.19749   0.21717
  Beta virt. eigenvalues --    0.23017   0.24048   0.25568   0.26147   0.27240
  Beta virt. eigenvalues --    0.27366   0.29814   0.30072   0.30780   0.32098
  Beta virt. eigenvalues --    0.32731   0.34468   0.34570   0.35444   0.35606
  Beta virt. eigenvalues --    0.36874   0.37778   0.38102   0.38494   0.38923
  Beta virt. eigenvalues --    0.39859   0.40321   0.40874   0.41835   0.42261
  Beta virt. eigenvalues --    0.43353   0.44431   0.44554   0.45434   0.46450
  Beta virt. eigenvalues --    0.48302   0.48756   0.49174   0.50163   0.52835
  Beta virt. eigenvalues --    0.53424   0.54639   0.55972   0.56398   0.57300
  Beta virt. eigenvalues --    0.57661   0.59346   0.59515   0.59779   0.60182
  Beta virt. eigenvalues --    0.60311   0.61846   0.62161   0.62545   0.62931
  Beta virt. eigenvalues --    0.63519   0.64278   0.64693   0.65395   0.66715
  Beta virt. eigenvalues --    0.66963   0.67461   0.69004   0.70149   0.71234
  Beta virt. eigenvalues --    0.72307   0.72482   0.74994   0.75740   0.78226
  Beta virt. eigenvalues --    0.82622   0.84195   0.85272   0.89406   0.93257
  Beta virt. eigenvalues --    0.93442   0.95683   0.99412   1.03207   1.05560
  Beta virt. eigenvalues --    1.09660   1.11763   1.12301   1.12649   1.13398
  Beta virt. eigenvalues --    1.14703   1.15932   1.17128   1.17134   1.19850
  Beta virt. eigenvalues --    1.20430   1.22093   1.22219   1.22986   1.31153
  Beta virt. eigenvalues --    1.32366   1.37241   1.40546   1.41209   1.41787
  Beta virt. eigenvalues --    1.47041   1.47840   1.55043   1.60347   1.61679
  Beta virt. eigenvalues --    1.62036   1.63030   1.64922   1.65124   1.65477
  Beta virt. eigenvalues --    1.66709   1.68071   1.68675   1.70794   1.72196
  Beta virt. eigenvalues --    1.73751   1.74904   1.76348   1.77047   1.78642
  Beta virt. eigenvalues --    1.78724   1.79677   1.80414   1.83756   1.86969
  Beta virt. eigenvalues --    1.87948   1.88022   1.91341   1.92412   1.94650
  Beta virt. eigenvalues --    1.97115   2.01016   2.01949   2.05415   2.06342
  Beta virt. eigenvalues --    2.06724   2.07163   2.07862   2.10820   2.11830
  Beta virt. eigenvalues --    2.14490   2.19228   2.20068   2.20301   2.21735
  Beta virt. eigenvalues --    2.23288   2.25863   2.27253   2.28539   2.29489
  Beta virt. eigenvalues --    2.32071   2.37331   2.38089   2.38212   2.50511
  Beta virt. eigenvalues --    2.51020   2.51883   2.52190   2.55614   2.56110
  Beta virt. eigenvalues --    2.58410   2.61407   2.62451   2.62676   2.70430
  Beta virt. eigenvalues --    2.77430   2.78238   2.79710   2.81999   2.83087
  Beta virt. eigenvalues --    2.88050   2.89064   2.90306   2.94848   3.05637
  Beta virt. eigenvalues --    3.07905   3.23142   3.36671   3.38644   3.42489
  Beta virt. eigenvalues --    3.46374   3.52723   3.59152   3.78821  18.63321
  Beta virt. eigenvalues --   18.83476  19.22611  56.39996
          Condensed to atoms (all electrons):
               1          2          3          4          5          6
     1  Br  34.728174   0.275273  -0.062112   0.002750   0.000630   0.003091
     2  C    0.275273   5.286340   0.269801   0.067852  -0.145752   0.091159
     3  C   -0.062112   0.269801   4.951591   0.401519   0.078157  -0.110785
     4  C    0.002750   0.067852   0.401519   4.987330   0.302479  -0.021139
     5  C    0.000630  -0.145752   0.078157   0.302479   5.340811   0.292281
     6  C    0.003091   0.091159  -0.110785  -0.021139   0.292281   5.252393
     7  C   -0.064592   0.290587   0.033908  -0.077743   0.025932   0.397174
     8  C   -0.000080   0.012270  -0.001578   0.017312  -0.099796   0.327054
     9  C   -0.000000  -0.001785   0.000398   0.010623  -0.029081  -0.075563
    10  C   -0.000000   0.000005   0.000004  -0.000359   0.013022   0.012705
    11  C    0.000000  -0.000000   0.000001   0.000053   0.002242  -0.001820
    12  I   -0.000000   0.000000  -0.000000  -0.000000   0.000036   0.000001
    13  C   -0.000000   0.000001  -0.000009  -0.000081   0.010941   0.000307
    14  C   -0.000000   0.000060  -0.000121  -0.005323  -0.079548   0.010762
    15  C    0.000021   0.002527   0.010421  -0.079051   0.258141  -0.025924
    16  H   -0.000409  -0.055714   0.436889  -0.039731   0.011568  -0.001151
    17  H   -0.000109   0.012294  -0.053482   0.447814  -0.051564   0.013392
    18  H    0.000004  -0.054664   0.010573  -0.001460   0.013001  -0.039902
    19  H   -0.000000  -0.000170   0.000062  -0.000354   0.001991   0.000980
    20  H   -0.000000  -0.000170   0.000062  -0.000354   0.001991   0.000980
    21  H    0.000000   0.000000  -0.000000   0.000001  -0.000678   0.000826
    22  H    0.000000   0.000000  -0.000000   0.000003  -0.000289   0.000008
    23  H   -0.000000  -0.000009   0.000154   0.003408  -0.019807  -0.000259
               7          8          9         10         11         12
     1  Br  -0.064592  -0.000080  -0.000000  -0.000000   0.000000  -0.000000
     2  C    0.290587   0.012270  -0.001785   0.000005  -0.000000   0.000000
     3  C    0.033908  -0.001578   0.000398   0.000004   0.000001  -0.000000
     4  C   -0.077743   0.017312   0.010623  -0.000359   0.000053  -0.000000
     5  C    0.025932  -0.099796  -0.029081   0.013022   0.002242   0.000036
     6  C    0.397174   0.327054  -0.075563   0.012705  -0.001820   0.000001
     7  C    4.984387  -0.077216   0.012915  -0.000268   0.000004  -0.000000
     8  C   -0.077216   4.752578   0.326681  -0.075413   0.012442  -0.000116
     9  C    0.012915   0.326681   5.243774   0.417118   0.072713   0.004527
    10  C   -0.000268  -0.075413   0.417118   4.982049   0.278136  -0.069397
    11  C    0.000004   0.012442   0.072713   0.278136   5.442697   0.308431
    12  I   -0.000000  -0.000116   0.004527  -0.069397   0.308431  24.540750
    13  C    0.000006  -0.001303  -0.099229   0.018894   0.257395  -0.066361
    14  C   -0.000363   0.017086  -0.031796  -0.067500   0.051014   0.003711
    15  C    0.012549  -0.104493   0.296833   0.019520  -0.139660   0.000482
    16  H    0.010338   0.000013   0.000007  -0.000000   0.000000   0.000000
    17  H   -0.001993  -0.000383  -0.000253   0.000021  -0.000010  -0.000000
    18  H    0.438702  -0.013677   0.000799   0.000009  -0.000000  -0.000000
    19  H   -0.003308   0.351230   0.000904  -0.003429  -0.000195  -0.000001
    20  H   -0.003308   0.351231   0.000904  -0.003429  -0.000195  -0.000001
    21  H    0.000009  -0.013795  -0.038155   0.442516  -0.059338  -0.002515
    22  H   -0.000000   0.000007  -0.001095   0.009804  -0.059911  -0.002639
    23  H    0.000020  -0.000375   0.013366  -0.001961   0.012442  -0.000145
              13         14         15         16         17         18
     1  Br  -0.000000  -0.000000   0.000021  -0.000409  -0.000109   0.000004
     2  C    0.000001   0.000060   0.002527  -0.055714   0.012294  -0.054664
     3  C   -0.000009  -0.000121   0.010421   0.436889  -0.053482   0.010573
     4  C   -0.000081  -0.005323  -0.079051  -0.039731   0.447814  -0.001460
     5  C    0.010941  -0.079548   0.258141   0.011568  -0.051564   0.013001
     6  C    0.000307   0.010762  -0.025924  -0.001151   0.013392  -0.039902
     7  C    0.000006  -0.000363   0.012549   0.010338  -0.001993   0.438702
     8  C   -0.001303   0.017086  -0.104493   0.000013  -0.000383  -0.013677
     9  C   -0.099229  -0.031796   0.296833   0.000007  -0.000253   0.000799
    10  C    0.018894  -0.067500   0.019520  -0.000000   0.000021   0.000009
    11  C    0.257395   0.051014  -0.139660   0.000000  -0.000010  -0.000000
    12  I   -0.066361   0.003711   0.000482   0.000000  -0.000000  -0.000000
    13  C    4.951285   0.418947   0.071518  -0.000000   0.000161  -0.000000
    14  C    0.418947   4.978754   0.308017   0.000003   0.003398   0.000001
    15  C    0.071518   0.308017   5.331562  -0.000289  -0.019957  -0.000650
    16  H   -0.000000   0.000003  -0.000289   0.571682  -0.009207  -0.000127
    17  H    0.000161   0.003398  -0.019957  -0.009207   0.599113   0.000012
    18  H   -0.000000   0.000001  -0.000650  -0.000127   0.000012   0.586641
    19  H    0.000062  -0.000353   0.002105  -0.000000   0.000007   0.001376
    20  H    0.000062  -0.000353   0.002105  -0.000000   0.000007   0.001376
    21  H    0.009964  -0.001356   0.013244   0.000000   0.000000  -0.000000
    22  H    0.440750  -0.038744   0.011799  -0.000000   0.000003   0.000000
    23  H   -0.053717   0.447770  -0.051051   0.000002   0.000670   0.000000
              19         20         21         22         23
     1  Br  -0.000000  -0.000000   0.000000   0.000000  -0.000000
     2  C   -0.000170  -0.000170   0.000000   0.000000  -0.000009
     3  C    0.000062   0.000062  -0.000000  -0.000000   0.000154
     4  C   -0.000354  -0.000354   0.000001   0.000003   0.003408
     5  C    0.001991   0.001991  -0.000678  -0.000289  -0.019807
     6  C    0.000980   0.000980   0.000826   0.000008  -0.000259
     7  C   -0.003308  -0.003308   0.000009  -0.000000   0.000020
     8  C    0.351230   0.351231  -0.013795   0.000007  -0.000375
     9  C    0.000904   0.000904  -0.038155  -0.001095   0.013366
    10  C   -0.003429  -0.003429   0.442516   0.009804  -0.001961
    11  C   -0.000195  -0.000195  -0.059338  -0.059911   0.012442
    12  I   -0.000001  -0.000001  -0.002515  -0.002639  -0.000145
    13  C    0.000062   0.000062   0.009964   0.440750  -0.053717
    14  C   -0.000353  -0.000353  -0.001356  -0.038744   0.447770
    15  C    0.002105   0.002105   0.013244   0.011799  -0.051051
    16  H   -0.000000  -0.000000   0.000000  -0.000000   0.000002
    17  H    0.000007   0.000007   0.000000   0.000003   0.000670
    18  H    0.001376   0.001376  -0.000000   0.000000   0.000000
    19  H    0.547177  -0.008046   0.001435  -0.000000   0.000007
    20  H   -0.008046   0.547178   0.001435  -0.000000   0.000007
    21  H    0.001435   0.001435   0.588518  -0.000106   0.000010
    22  H   -0.000000  -0.000000  -0.000106   0.572552  -0.009229
    23  H    0.000007   0.000007   0.000010  -0.009229   0.597458
          Atomic-Atomic Spin Densities.
               1          2          3          4          5          6
     1  Br   0.106362  -0.033653  -0.001497   0.000295   0.000037   0.000341
     2  C   -0.033653   0.236411   0.021052  -0.005920  -0.005932  -0.007882
     3  C   -0.001497   0.021052  -0.031987  -0.021378  -0.001767  -0.002667
     4  C    0.000295  -0.005920  -0.021378   0.078083   0.030552   0.001480
     5  C    0.000037  -0.005932  -0.001767   0.030552   0.110261   0.035126
     6  C    0.000341  -0.007882  -0.002667   0.001480   0.035126   0.130260
     7  C   -0.000078   0.015255   0.000368  -0.001349  -0.001170  -0.012759
     8  C   -0.000000   0.000059  -0.000054  -0.000096  -0.002412  -0.001020
     9  C   -0.000000   0.000023   0.000022  -0.000543  -0.009023  -0.005571
    10  C    0.000000  -0.000000  -0.000000   0.000013   0.000634   0.000154
    11  C    0.000000  -0.000000  -0.000000   0.000003   0.000207   0.000016
    12  I   -0.000000   0.000000   0.000000  -0.000000  -0.000003  -0.000001
    13  C    0.000000  -0.000000  -0.000001   0.000032   0.000631   0.000028
    14  C   -0.000000   0.000002   0.000030  -0.000054  -0.004204  -0.000549
    15  C   -0.000001   0.000205   0.000625  -0.004732  -0.061977  -0.009460
    16  H   -0.000051  -0.000300   0.000492  -0.000048   0.000086  -0.000033
    17  H    0.000001   0.000007   0.000086   0.001227  -0.000321  -0.000018
    18  H   -0.000087  -0.000140   0.000042  -0.000026   0.000103   0.000090
    19  H    0.000000  -0.000003   0.000000   0.000001   0.000157  -0.000716
    20  H    0.000000  -0.000003   0.000000   0.000001   0.000157  -0.000716
    21  H    0.000000   0.000000  -0.000000  -0.000000  -0.000010   0.000012
    22  H   -0.000000  -0.000000   0.000000   0.000000   0.000002  -0.000000
    23  H   -0.000000  -0.000000  -0.000001  -0.000090  -0.000085   0.000006
               7          8          9         10         11         12
     1  Br  -0.000078  -0.000000  -0.000000   0.000000   0.000000  -0.000000
     2  C    0.015255   0.000059   0.000023  -0.000000  -0.000000   0.000000
     3  C    0.000368  -0.000054   0.000022  -0.000000  -0.000000   0.000000
     4  C   -0.001349  -0.000096  -0.000543   0.000013   0.000003  -0.000000
     5  C   -0.001170  -0.002412  -0.009023   0.000634   0.000207  -0.000003
     6  C   -0.012759  -0.001020  -0.005571   0.000154   0.000016  -0.000001
     7  C   -0.086039   0.001746   0.000102   0.000005  -0.000000   0.000000
     8  C    0.001746  -0.020277  -0.000306   0.001809   0.000084  -0.000001
     9  C    0.000102  -0.000306   0.119777  -0.015044  -0.008176   0.000498
    10  C    0.000005   0.001809  -0.015044  -0.079112   0.018865  -0.000096
    11  C   -0.000000   0.000084  -0.008176   0.018865   0.245089  -0.039499
    12  I    0.000000  -0.000001   0.000498  -0.000096  -0.039499   0.165151
    13  C   -0.000000  -0.000063  -0.003025   0.000124   0.024360  -0.001871
    14  C    0.000014  -0.000104   0.001608  -0.001563  -0.006205   0.000431
    15  C    0.000622  -0.002769   0.036957  -0.001906  -0.006161   0.000095
    16  H    0.000015  -0.000001  -0.000000   0.000000   0.000000   0.000000
    17  H   -0.000034   0.000003   0.000006  -0.000000  -0.000000   0.000000
    18  H   -0.000032   0.000032   0.000012   0.000000   0.000000   0.000000
    19  H   -0.000083   0.001451  -0.000643  -0.000088  -0.000004   0.000000
    20  H   -0.000083   0.001450  -0.000643  -0.000088  -0.000004   0.000000
    21  H    0.000000   0.000034   0.000116   0.000085  -0.000249  -0.000114
    22  H    0.000000  -0.000001  -0.000037   0.000011  -0.000396  -0.000073
    23  H   -0.000001   0.000003  -0.000012  -0.000036   0.000014   0.000002
              13         14         15         16         17         18
     1  Br   0.000000  -0.000000  -0.000001  -0.000051   0.000001  -0.000087
     2  C   -0.000000   0.000002   0.000205  -0.000300   0.000007  -0.000140
     3  C   -0.000001   0.000030   0.000625   0.000492   0.000086   0.000042
     4  C    0.000032  -0.000054  -0.004732  -0.000048   0.001227  -0.000026
     5  C    0.000631  -0.004204  -0.061977   0.000086  -0.000321   0.000103
     6  C    0.000028  -0.000549  -0.009460  -0.000033  -0.000018   0.000090
     7  C   -0.000000   0.000014   0.000622   0.000015  -0.000034  -0.000032
     8  C   -0.000063  -0.000104  -0.002769  -0.000001   0.000003   0.000032
     9  C   -0.003025   0.001608   0.036957  -0.000000   0.000006   0.000012
    10  C    0.000124  -0.001563  -0.001906   0.000000  -0.000000   0.000000
    11  C    0.024360  -0.006205  -0.006161   0.000000  -0.000000   0.000000
    12  I   -0.001871   0.000431   0.000095   0.000000   0.000000   0.000000
    13  C   -0.018211  -0.022778  -0.002665   0.000000  -0.000001  -0.000000
    14  C   -0.022778   0.063529   0.031900   0.000000  -0.000092  -0.000000
    15  C   -0.002665   0.031900   0.140974   0.000001  -0.000099  -0.000010
    16  H    0.000000   0.000000   0.000001   0.000453   0.000065   0.000000
    17  H   -0.000001  -0.000092  -0.000099   0.000065  -0.004722  -0.000000
    18  H   -0.000000  -0.000000  -0.000010   0.000000  -0.000000   0.002596
    19  H    0.000000   0.000001   0.000154   0.000000  -0.000000  -0.000005
    20  H    0.000000   0.000001   0.000154   0.000000  -0.000000  -0.000005
    21  H    0.000040  -0.000028   0.000113  -0.000000   0.000000  -0.000000
    22  H    0.000627  -0.000016   0.000085  -0.000000  -0.000000  -0.000000
    23  H    0.000103   0.001155  -0.000342  -0.000000  -0.000009   0.000000
              19         20         21         22         23
     1  Br   0.000000   0.000000   0.000000  -0.000000  -0.000000
     2  C   -0.000003  -0.000003   0.000000  -0.000000  -0.000000
     3  C    0.000000   0.000000  -0.000000   0.000000  -0.000001
     4  C    0.000001   0.000001  -0.000000   0.000000  -0.000090
     5  C    0.000157   0.000157  -0.000010   0.000002  -0.000085
     6  C   -0.000716  -0.000716   0.000012  -0.000000   0.000006
     7  C   -0.000083  -0.000083   0.000000   0.000000  -0.000001
     8  C    0.001451   0.001450   0.000034  -0.000001   0.000003
     9  C   -0.000643  -0.000643   0.000116  -0.000037  -0.000012
    10  C   -0.000088  -0.000088   0.000085   0.000011  -0.000036
    11  C   -0.000004  -0.000004  -0.000249  -0.000396   0.000014
    12  I    0.000000   0.000000  -0.000114  -0.000073   0.000002
    13  C    0.000000   0.000000   0.000040   0.000627   0.000103
    14  C    0.000001   0.000001  -0.000028  -0.000016   0.001155
    15  C    0.000154   0.000154   0.000113   0.000085  -0.000342
    16  H    0.000000   0.000000  -0.000000  -0.000000  -0.000000
    17  H   -0.000000  -0.000000   0.000000  -0.000000  -0.000009
    18  H   -0.000005  -0.000005  -0.000000  -0.000000   0.000000
    19  H    0.001187  -0.000234  -0.000006   0.000000  -0.000000
    20  H   -0.000234   0.001187  -0.000006   0.000000  -0.000000
    21  H   -0.000006  -0.000006   0.002269   0.000000  -0.000000
    22  H    0.000000   0.000000   0.000000  -0.000202   0.000071
    23  H   -0.000000  -0.000000  -0.000000   0.000071  -0.004177
 Mulliken charges and spin densities:
               1          2
     1  Br   0.117360   0.071671
     2  C   -0.049904   0.219180
     3  C    0.034546  -0.036635
     4  C   -0.015548   0.077450
     5  C    0.073293   0.091049
     6  C   -0.126569   0.126121
     7  C    0.022258  -0.083502
     8  C    0.220320  -0.020432
     9  C   -0.124605   0.116095
    10  C    0.027954  -0.076234
    11  C   -0.176443   0.227943
    12  I    0.283238   0.124520
    13  C    0.040408  -0.022670
    14  C   -0.014066   0.063076
    15  C    0.080231   0.121764
    16  H    0.076127   0.000680
    17  H    0.060067  -0.003903
    18  H    0.057987   0.002569
    19  H    0.108520   0.001169
    20  H    0.108520   0.001169
    21  H    0.057984   0.002255
    22  H    0.077087   0.000071
    23  H    0.061236  -0.003401
 Sum of Mulliken charges =   1.00000   1.00000
 Mulliken charges and spin densities with hydrogens summed into heavy atoms:
               1          2
     1  Br   0.117360   0.071671
     2  C   -0.049904   0.219180
     3  C    0.110673  -0.035956
     4  C    0.044518   0.073547
     5  C    0.073293   0.091049
     6  C   -0.126569   0.126121
     7  C    0.080246  -0.080934
     8  C    0.437359  -0.018095
     9  C   -0.124605   0.116095
    10  C    0.085938  -0.073979
    11  C   -0.176443   0.227943
    12  I    0.283238   0.124520
    13  C    0.117495  -0.022600
    14  C    0.047171   0.059675
    15  C    0.080231   0.121764
 Electronic spatial extent (au):  <R**2>=           8900.3428
 Charge=              1.0000 electrons
 Dipole moment (field-independent basis, Debye):
    X=              0.9620    Y=              0.8873    Z=              0.0000  Tot=              1.3088
 Quadrupole moment (field-independent basis, Debye-Ang):
   XX=            -54.0452   YY=            -95.3390   ZZ=           -119.3302
   XY=              1.2183   XZ=              0.0000   YZ=             -0.0000
 Traceless Quadrupole moment (field-independent basis, Debye-Ang):
   XX=             35.5263   YY=             -5.7675   ZZ=            -29.7587
   XY=              1.2183   XZ=              0.0000   YZ=             -0.0000
 Octapole moment (field-independent basis, Debye-Ang**2):
  XXX=            -52.8188  YYY=             -3.6271  ZZZ=             -0.0001  XYY=             -7.9807
  XXY=             -7.4816  XXZ=             -0.0002  XZZ=            -23.5393  YZZ=            -11.9663
  YYZ=             -0.0000  XYZ=              0.0000
 Hexadecapole moment (field-independent basis, Debye-Ang**3):
 XXXX=          -7799.7762 YYYY=           -677.2854 ZZZZ=           -141.4304 XXXY=             35.8274
 XXXZ=              0.0001 YYYX=              1.2068 YYYZ=              0.0000 ZZZX=              0.0001
 ZZZY=             -0.0000 XXYY=          -1664.8963 XXZZ=          -1712.2735 YYZZ=           -162.9086
 XXYZ=              0.0001 YYXZ=              0.0001 ZZXY=             -4.3967
 N-N= 1.306382330788D+03 E-N=-1.053018071098D+04  KE= 3.178694625936D+03
 StAtR1:  DoIntr=F IAtCor=3 NETot=     146 Failed=F Sum=  2.80D+01 SumC=  0.00D+00
 There are a total of      553078 grid points.
 ElSum from          density=      145.0000185644
 ElSum from atomic densities=      174.0001264328

 Hirshfeld populations at iteration   1 (CX, CA, CB, DipXYZ):
               1          2          3          4          5          6
     1  Br   0.000000  17.496208  17.411836   0.092666  -0.016938   0.000000
     2  C    0.000000   3.041103   2.896295   0.054977  -0.006000  -0.000000
     3  C    0.000000   3.007754   3.001027   0.033383   0.047523   0.000000
     4  C    0.000000   3.029040   2.964011  -0.034582   0.061417   0.000000
     5  C    0.000000   3.029596   2.940241  -0.015916   0.033652   0.000000
     6  C    0.000000   3.021760   2.935214  -0.036000  -0.051962   0.000000
     7  C    0.000000   2.999897   3.022000   0.005987  -0.061968   0.000000
     8  C    0.000000   3.017257   3.011160   0.000046  -0.025864  -0.000000
     9  C    0.000000   3.020203   2.936689   0.036821  -0.050363   0.000000
    10  C    0.000000   3.001465   3.019029  -0.006341  -0.061162   0.000000
    11  C    0.000000   3.053331   2.897362  -0.054544  -0.004412   0.000000
    12  I    0.000000  12.486529  12.350543  -0.208260  -0.035428  -0.000000
    13  C    0.000000   3.011050   2.995473  -0.030343   0.048287  -0.000000
    14  C    0.000000   3.026706   2.967042   0.038891   0.059471  -0.000000
    15  C    0.000000   3.033257   2.928978   0.015781   0.033050   0.000000
    16  H    0.000000   0.464379   0.465022   0.103357   0.142851  -0.000000
    17  H    0.000000   0.465985   0.463721  -0.040638   0.166774   0.000000
    18  H    0.000000   0.464798   0.466913   0.035933  -0.169925  -0.000000
    19  H    0.000000   0.466248   0.464911  -0.001117  -0.110289   0.129090
    20  H    0.000000   0.466248   0.464911  -0.001117  -0.110290  -0.129089
    21  H    0.000000   0.465971   0.467972  -0.035343  -0.166932  -0.000000
    22  H    0.000000   0.465611   0.465980  -0.094053   0.145574  -0.000000
    23  H    0.000000   0.465611   0.463679   0.045430   0.165869  -0.000000
       Tot   0.000000  73.000008  72.000010  -0.094981   0.032935   0.000000

 Dip from Atomic Chgs              0.473387   0.316140   0.000002
         Total Dipole              0.378406   0.349075   0.000002

 Hirshfeld charges, spin densities, dipoles, and CM5 charges using IRadAn=      5:
              Q-H        S-H        Dx         Dy         Dz        Q-CM5   
     1  Br   0.091957   0.084372   0.092666  -0.016938   0.000000   0.106987
     2  C    0.062603   0.144808   0.054977  -0.006000  -0.000000   0.041446
     3  C   -0.008781   0.006727   0.033383   0.047523   0.000000  -0.061381
     4  C    0.006948   0.065029  -0.034582   0.061417   0.000000  -0.044371
     5  C    0.030162   0.089355  -0.015916   0.033652   0.000000   0.025421
     6  C    0.043025   0.086546  -0.036000  -0.051962   0.000000   0.032902
     7  C   -0.021897  -0.022103   0.005987  -0.061968   0.000000  -0.071921
     8  C   -0.028417   0.006097   0.000046  -0.025864  -0.000000  -0.122144
     9  C    0.043108   0.083514   0.036821  -0.050363   0.000000   0.032914
    10  C   -0.020494  -0.017563  -0.006341  -0.061162   0.000000  -0.071378
    11  C    0.049307   0.155970  -0.054544  -0.004412   0.000000   0.019666
    12  I    0.162928   0.135985  -0.208260  -0.035428  -0.000000   0.188792
    13  C   -0.006523   0.015577  -0.030343   0.048287  -0.000000  -0.059982
    14  C    0.006252   0.059665   0.038891   0.059471  -0.000000  -0.045134
    15  C    0.037765   0.104279   0.015781   0.033050   0.000000   0.033012
    16  H    0.070599  -0.000644   0.103357   0.142851  -0.000000   0.126418
    17  H    0.070294   0.002264  -0.040638   0.166774   0.000000   0.125752
    18  H    0.068289  -0.002114   0.035933  -0.169925  -0.000000   0.124427
    19  H    0.068841   0.001337  -0.001117  -0.110289   0.129090   0.123212
    20  H    0.068841   0.001337  -0.001117  -0.110290  -0.129089   0.123212
    21  H    0.066056  -0.002001  -0.035343  -0.166932  -0.000000   0.121980
    22  H    0.068408  -0.000369  -0.094053   0.145574  -0.000000   0.124000
    23  H    0.070709   0.001932   0.045430   0.165869  -0.000000   0.126152
       Tot   0.999981   0.999998  -0.094981   0.032935   0.000000   0.999981
 Hirshfeld charges and spin densities with hydrogens summed into heavy atoms:
              Q-H        S-H       Q-CM5   
     1  Br   0.091957   0.084372   0.106987
     2  C    0.062603   0.144808   0.041446
     3  C    0.061818   0.006084   0.065037
     4  C    0.077242   0.067293   0.081381
     5  C    0.030162   0.089355   0.025421
     6  C    0.043025   0.086546   0.032902
     7  C    0.046392  -0.024217   0.052507
     8  C    0.109265   0.008770   0.124279
     9  C    0.043108   0.083514   0.032914
    10  C    0.045563  -0.019565   0.050602
    11  C    0.049307   0.155970   0.019666
    12  I    0.162928   0.135985   0.188792
    13  C    0.061885   0.015208   0.064018
    14  C    0.076962   0.061597   0.081018
    15  C    0.037765   0.104279   0.033012
 
 EQQ= 0.716193845716E-01 EQD=-0.448124414460E-01 EDD= 0.109867187224E-01
 EQQ+QD+DD= 0.377936618479E-01
 
                          Isotropic Fermi Contact Couplings
        Atom                 a.u.       MegaHertz       Gauss      10(-4) cm-1
     1  Br(79)             0.02692      30.24764      10.79311      10.08953
     2  C(13)              0.04148      46.62711      16.63771      15.55313
     3  C(13)             -0.01305     -14.67032      -5.23474      -4.89349
     4  C(13)              0.00887       9.96873       3.55709       3.32521
     5  C(13)              0.00453       5.09116       1.81665       1.69823
     6  C(13)              0.01801      20.25198       7.22641       6.75533
     7  C(13)             -0.02139     -24.04898      -8.58127      -8.02188
     8  C(13)             -0.00863      -9.70212      -3.46196      -3.23628
     9  C(13)              0.01590      17.87289       6.37749       5.96176
    10  C(13)             -0.02053     -23.07995      -8.23550      -7.69864
    11  C(13)              0.04373      49.16072      17.54177      16.39825
    12  I(127)             0.00000       0.00239       0.00085       0.00080
    13  C(13)             -0.01104     -12.41267      -4.42915      -4.14042
    14  C(13)              0.00593       6.66492       2.37821       2.22318
    15  C(13)              0.01002      11.26931       4.02117       3.75904
    16  H(1)               0.00016       0.69321       0.24735       0.23123
    17  H(1)              -0.00135      -6.04374      -2.15656      -2.01597
    18  H(1)               0.00078       3.48525       1.24362       1.16255
    19  H(1)               0.00053       2.38896       0.85244       0.79687
    20  H(1)               0.00053       2.38894       0.85243       0.79686
    21  H(1)               0.00067       3.01550       1.07601       1.00586
    22  H(1)              -0.00004      -0.18238      -0.06508      -0.06084
    23  H(1)              -0.00120      -5.34177      -1.90608      -1.78182
 --------------------------------------------------------
       Center         ----  Spin Dipole Couplings  ----
                      3XX-RR        3YY-RR        3ZZ-RR
 --------------------------------------------------------
     1   Atom       -0.616995     -0.470627      1.087622
     2   Atom       -0.120136     -0.128481      0.248618
     3   Atom        0.006760      0.008787     -0.015547
     4   Atom       -0.047939     -0.043279      0.091218
     5   Atom       -0.061631     -0.062808      0.124438
     6   Atom       -0.071409     -0.067071      0.138480
     7   Atom        0.034586      0.031358     -0.065944
     8   Atom       -0.002676      0.004724     -0.002048
     9   Atom       -0.067689     -0.063130      0.130819
    10   Atom        0.030683      0.028299     -0.058982
    11   Atom       -0.123676     -0.135259      0.258934
    12   Atom       -0.026306     -0.026746      0.053053
    13   Atom       -0.000724      0.002168     -0.001444
    14   Atom       -0.041959     -0.037366      0.079325
    15   Atom       -0.075632     -0.076464      0.152096
    16   Atom       -0.001157      0.004483     -0.003326
    17   Atom       -0.006058      0.009462     -0.003403
    18   Atom        0.002539      0.000839     -0.003378
    19   Atom       -0.000745      0.003751     -0.003007
    20   Atom       -0.000745      0.003751     -0.003007
    21   Atom        0.001954      0.001667     -0.003621
    22   Atom       -0.001655      0.005261     -0.003607
    23   Atom       -0.005607      0.009187     -0.003580
 --------------------------------------------------------
                        XY            XZ            YZ
 --------------------------------------------------------
     1   Atom        0.033973      0.000000     -0.000001
     2   Atom       -0.002539      0.000000     -0.000000
     3   Atom       -0.001664      0.000000     -0.000000
     4   Atom        0.002386      0.000000     -0.000000
     5   Atom        0.001988     -0.000000     -0.000000
     6   Atom        0.000631      0.000001     -0.000000
     7   Atom        0.001707     -0.000000      0.000000
     8   Atom       -0.000120      0.000000     -0.000000
     9   Atom       -0.000542     -0.000000      0.000000
    10   Atom       -0.002262      0.000000      0.000000
    11   Atom        0.003047     -0.000000      0.000000
    12   Atom        0.000231     -0.000000      0.000000
    13   Atom        0.001831      0.000000      0.000000
    14   Atom       -0.002303     -0.000000      0.000000
    15   Atom       -0.001494     -0.000000      0.000000
    16   Atom        0.000871     -0.000000      0.000000
    17   Atom       -0.000488      0.000000      0.000000
    18   Atom        0.002576     -0.000000     -0.000000
    19   Atom        0.000001     -0.000010     -0.001901
    20   Atom        0.000001      0.000010      0.001901
    21   Atom       -0.002695      0.000000     -0.000000
    22   Atom       -0.001459      0.000000     -0.000000
    23   Atom        0.000586     -0.000000     -0.000000
 --------------------------------------------------------


 ---------------------------------------------------------------------------------
              Anisotropic Spin Dipole Couplings in Principal Axis System
 ---------------------------------------------------------------------------------

       Atom             a.u.   MegaHertz   Gauss  10(-4) cm-1        Axes

              Baa    -0.6245   -83.768   -29.891   -27.942  0.9765 -0.2156 -0.0000
     1 Br(79) Bbb    -0.4631   -62.122   -22.167   -20.722  0.2156  0.9765  0.0000
              Bcc     1.0876   145.891    52.057    48.664  0.0000 -0.0000  1.0000
 
              Baa    -0.1292   -17.336    -6.186    -5.783  0.2700  0.9629  0.0000
     2 C(13)  Bbb    -0.1194   -16.026    -5.718    -5.346  0.9629 -0.2700 -0.0000
              Bcc     0.2486    33.362    11.904    11.128  0.0000 -0.0000  1.0000
 
              Baa    -0.0155    -2.086    -0.744    -0.696 -0.0000  0.0000  1.0000
     3 C(13)  Bbb     0.0058     0.782     0.279     0.261  0.8719  0.4897  0.0000
              Bcc     0.0097     1.305     0.466     0.435 -0.4897  0.8719 -0.0000
 
              Baa    -0.0489    -6.568    -2.344    -2.191  0.9216 -0.3882 -0.0000
     4 C(13)  Bbb    -0.0423    -5.673    -2.024    -1.892  0.3882  0.9216 -0.0000
              Bcc     0.0912    12.241     4.368     4.083  0.0000 -0.0000  1.0000
 
              Baa    -0.0643    -8.627    -3.079    -2.878 -0.5984  0.8012 -0.0000
     5 C(13)  Bbb    -0.0601    -8.071    -2.880    -2.692  0.8012  0.5984  0.0000
              Bcc     0.1244    16.698     5.958     5.570 -0.0000 -0.0000  1.0000
 
              Baa    -0.0715    -9.594    -3.424    -3.200  0.9900 -0.1412 -0.0000
     6 C(13)  Bbb    -0.0670    -8.988    -3.207    -2.998  0.1412  0.9900 -0.0000
              Bcc     0.1385    18.583     6.631     6.199  0.0000 -0.0000  1.0000
 
              Baa    -0.0659    -8.849    -3.158    -2.952  0.0000 -0.0000  1.0000
     7 C(13)  Bbb     0.0306     4.109     1.466     1.371 -0.3955  0.9185  0.0000
              Bcc     0.0353     4.740     1.691     1.581  0.9185  0.3955 -0.0000
 
              Baa    -0.0027    -0.359    -0.128    -0.120  0.9999  0.0162 -0.0000
     8 C(13)  Bbb    -0.0020    -0.275    -0.098    -0.092  0.0000  0.0000  1.0000
              Bcc     0.0047     0.634     0.226     0.212 -0.0162  0.9999 -0.0000
 
              Baa    -0.0678    -9.092    -3.244    -3.033  0.9932  0.1165  0.0000
     9 C(13)  Bbb    -0.0631    -8.463    -3.020    -2.823 -0.1165  0.9932 -0.0000
              Bcc     0.1308    17.555     6.264     5.856 -0.0000  0.0000  1.0000
 
              Baa    -0.0590    -7.915    -2.824    -2.640 -0.0000 -0.0000  1.0000
    10 C(13)  Bbb     0.0269     3.614     1.290     1.206  0.5166  0.8562  0.0000
              Bcc     0.0320     4.300     1.535     1.434  0.8562 -0.5166  0.0000
 
              Baa    -0.1360   -18.251    -6.513    -6.088 -0.2398  0.9708 -0.0000
    11 C(13)  Bbb    -0.1229   -16.495    -5.886    -5.502  0.9708  0.2398  0.0000
              Bcc     0.2589    34.747    12.398    11.590 -0.0000  0.0000  1.0000
 
              Baa    -0.0268    -2.886    -1.030    -0.963 -0.3942  0.9190 -0.0000
    12 I(127) Bbb    -0.0262    -2.817    -1.005    -0.940  0.9190  0.3942  0.0000
              Bcc     0.0531     5.703     2.035     1.902 -0.0000  0.0000  1.0000
 
              Baa    -0.0016    -0.216    -0.077    -0.072  0.9000 -0.4360  0.0000
    13 C(13)  Bbb    -0.0014    -0.194    -0.069    -0.065 -0.0000 -0.0000  1.0000
              Bcc     0.0031     0.410     0.146     0.137  0.4360  0.9000  0.0000
 
              Baa    -0.0429    -5.759    -2.055    -1.921  0.9236  0.3833 -0.0000
    14 C(13)  Bbb    -0.0364    -4.886    -1.743    -1.630 -0.3833  0.9236 -0.0000
              Bcc     0.0793    10.645     3.798     3.551 -0.0000  0.0000  1.0000
 
              Baa    -0.0776   -10.413    -3.716    -3.473  0.6050  0.7963  0.0000
    15 C(13)  Bbb    -0.0745    -9.997    -3.567    -3.335  0.7963 -0.6050  0.0000
              Bcc     0.1521    20.410     7.283     6.808 -0.0000  0.0000  1.0000
 
              Baa    -0.0033    -1.775    -0.633    -0.592  0.0000 -0.0000  1.0000
    16 H(1)   Bbb    -0.0013    -0.687    -0.245    -0.229  0.9888 -0.1493 -0.0000
              Bcc     0.0046     2.462     0.879     0.821  0.1493  0.9888  0.0000
 
              Baa    -0.0061    -3.241    -1.156    -1.081  0.9995  0.0314 -0.0000
    17 H(1)   Bbb    -0.0034    -1.816    -0.648    -0.606  0.0000 -0.0000  1.0000
              Bcc     0.0095     5.056     1.804     1.687 -0.0314  0.9995  0.0000
 
              Baa    -0.0034    -1.802    -0.643    -0.601  0.0000  0.0000  1.0000
    18 H(1)   Bbb    -0.0010    -0.546    -0.195    -0.182 -0.5860  0.8103 -0.0000
              Bcc     0.0044     2.349     0.838     0.783  0.8103  0.5860 -0.0000
 
              Baa    -0.0035    -1.870    -0.667    -0.624  0.0033  0.2534  0.9674
    19 H(1)   Bbb    -0.0007    -0.397    -0.142    -0.133  1.0000 -0.0014 -0.0030
              Bcc     0.0042     2.267     0.809     0.756  0.0006  0.9674 -0.2534
 
              Baa    -0.0035    -1.870    -0.667    -0.624 -0.0033 -0.2534  0.9674
    20 H(1)   Bbb    -0.0007    -0.397    -0.142    -0.133  1.0000 -0.0014  0.0030
              Bcc     0.0042     2.267     0.809     0.756  0.0006  0.9674  0.2534
 
              Baa    -0.0036    -1.932    -0.689    -0.644  0.0000  0.0000  1.0000
    21 H(1)   Bbb    -0.0009    -0.474    -0.169    -0.158  0.6881  0.7257 -0.0000
              Bcc     0.0045     2.406     0.859     0.803  0.7257 -0.6881  0.0000
 
              Baa    -0.0036    -1.924    -0.687    -0.642 -0.0000  0.0000  1.0000
    22 H(1)   Bbb    -0.0020    -1.040    -0.371    -0.347  0.9801  0.1983  0.0000
              Bcc     0.0056     2.965     1.058     0.989 -0.1983  0.9801 -0.0000
 
              Baa    -0.0056    -3.004    -1.072    -1.002  0.9992 -0.0395  0.0000
    23 H(1)   Bbb    -0.0036    -1.910    -0.682    -0.637 -0.0000  0.0000  1.0000
              Bcc     0.0092     4.914     1.754     1.639  0.0395  0.9992 -0.0000
 

 ---------------------------------------------------------------------------------

 Running external command "gaunbo6 R"
         input file       "/home/rpaton/opt/dzvp/fukui/Gau-1734819.EIn"
         output file      "/home/rpaton/opt/dzvp/fukui/Gau-1734819.EOu"
         message file     "/home/rpaton/opt/dzvp/fukui/Gau-1734819.EMs"
         fchk file        "/home/rpaton/opt/dzvp/fukui/Gau-1734819.EFC"
         mat. el file     "/home/rpaton/opt/dzvp/fukui/Gau-1734819.EUF"

 Writing WrtUnf unformatted file "/home/rpaton/opt/dzvp/fukui/Gau-1734819.EUF"
 Gaussian matrix elements                                         Version   2 NLab=11 Len12L=8 Len4L=8
 Write SHELL TO ATOM MAP                   from file      0 offset           0 length                 124 to matrix element file.
 Write SHELL TYPES                         from file      0 offset           0 length                 124 to matrix element file.
 Write NUMBER OF PRIMITIVES PER SHELL      from file      0 offset           0 length                 124 to matrix element file.
 Write PRIMITIVE EXPONENTS                 from file      0 offset           0 length                 249 to matrix element file.
 Write CONTRACTION COEFFICIENTS            from file      0 offset           0 length                 249 to matrix element file.
 Write P(S=P) CONTRACTION COEFFICIENTS     from file      0 offset           0 length                 249 to matrix element file.
 Write COORDINATES OF EACH SHELL           from file      0 offset           0 length                 372 to matrix element file.
 Write BONDS PER ATOM                      from file      0 offset           0 length                  23 to matrix element file.
 Write BONDED ATOMS                        from file      0 offset           0 length                  50 to matrix element file.
 Write BOND TYPES                          from file      0 offset           0 length                  50 to matrix element file.
 Write ONIOM CHARGE/MULT                   from file      0 offset           0 length                  32 to matrix element file.
 Write ONIOM ATOM LAYERS                   from file      0 offset           0 length                  23 to matrix element file.
 Write ONIOM ATOM MODIFIERS                from file      0 offset           0 length                  23 to matrix element file.
 Write ONIOM ATOM TYPES                    from file      0 offset           0 length                  23 to matrix element file.
 Write ONIOM LINK ATOMS                    from file      0 offset           0 length                  23 to matrix element file.
 Write ONIOM LINK CHARGES                  from file      0 offset           0 length                  23 to matrix element file.
 Write ONIOM LINK DISTANCES                from file      0 offset           0 length                  92 to matrix element file.
 Write SYMINF INTS                         from file      0 offset           0 length                  26 to matrix element file.
 Write ROTTR TO SO                         from file      0 offset           0 length                  12 to matrix element file.
 Write GAUSSIAN SCALARS                    from file    501 offset           0 to matrix element file.
 Write OPTIMIZATION FLAGS                  from file      0 offset           0 length                  23 to matrix element file.
 Write INTEGER ISO                         from file      0 offset           0 length                  23 to matrix element file.
 Write INTEGER SPIN                        from file      0 offset           0 length                  23 to matrix element file.
 Write REAL ZEFFECTIVE                     from file      0 offset           0 length                  23 to matrix element file.
 Write REAL QUADRUPOLEMOMENT               from file      0 offset           0 length                  23 to matrix element file.
 Write REAL GFACTOR                        from file      0 offset           0 length                  23 to matrix element file.
 Write REAL ZNUCLEAR                       from file      0 offset           0 length                  23 to matrix element file.
 Write MULLIKEN CHARGES                    from file      0 offset           0 length                  23 to matrix element file.
 Write TYPE 6 CHARGES                      from file      0 offset           0 length                  23 to matrix element file.
 Write TYPE 7 CHARGES                      from file      0 offset           0 length                  23 to matrix element file.
 Write NUCLEAR GRADIENT                    from file  10584 offset           0 length                  69 to matrix element file.
 Array NUCLEAR FORCE CONSTANTS              on  file  10585 does not exist.
 Write ELECTRIC DIPOLE MOMENT              from file      0 offset           0 length                   3 to matrix element file.
 Write NON-ADIABATIC COUPLING              from file  10810 offset           0 length                  69 to matrix element file.
 Write FINITE EM FIELD                     from file  10521 offset           0 length                  35 to matrix element file.
 Write OVERLAP                             from file  10514 offset           0 length               39340 to matrix element file.
 Write CORE HAMILTONIAN ALPHA              from file  10515 offset           0 length               39340 to matrix element file.
 Write CORE HAMILTONIAN BETA               from file  10515 offset       39340 length               39340 to matrix element file.
 Write KINETIC ENERGY                      from file  10516 offset           0 length               39340 to matrix element file.
 Write ORTHOGONAL BASIS                    from file  10685 offset           0 length               78400 to matrix element file.
 Write DIPOLE INTEGRALS                    from file  10518 offset           0 length              118020 to matrix element file.
 Array DIP VEL INTEGRALS                    on  file  10572 does not exist.
 Array R X DEL INTEGRALS                    on  file  10572 does not exist.
 Write ALPHA ORBITAL ENERGIES              from file      0 offset           0 length                 280 to matrix element file.
 Write BETA ORBITAL ENERGIES               from file      0 offset           0 length                 280 to matrix element file.
 Write ALPHA MO COEFFICIENTS               from file  10524 offset           0 length               78400 to matrix element file.
 Write BETA MO COEFFICIENTS                from file  10526 offset           0 length               78400 to matrix element file.
 Write ALPHA DENSITY MATRIX                from file      0 offset           0 length               39340 to matrix element file.
 Write BETA DENSITY MATRIX                 from file      0 offset           0 length               39340 to matrix element file.
 Write ALPHA FOCK MATRIX                   from file  10536 offset           0 length               39340 to matrix element file.
 Write BETA FOCK MATRIX                    from file  10538 offset           0 length               39340 to matrix element file.
 Write ENERGY-WEIGHTED DENSITY             from file  10571 offset           0 length               39340 to matrix element file.
 Write ALPHA SCF DENSITY MATRIX            from file      0 offset           0 length               39340 to matrix element file.
 Write BETA SCF DENSITY MATRIX             from file      0 offset           0 length               39340 to matrix element file.
 No 2e integrals to process.
 Perform NBO analysis...

 *********************************** NBO 7.0 ***********************************
             N A T U R A L   A T O M I C   O R B I T A L   A N D
          N A T U R A L   B O N D   O R B I T A L   A N A L Y S I S
 **************************** Robert Paton (I101709) ***************************
  (c) Copyright 1996-2019 Board of Regents of the University of Wisconsin System
      on behalf of the Theoretical Chemistry Institute.  All rights reserved.

          Cite this program [NBO 7.0.5 (4-Jun-2019)] as:

          NBO 7.0.  E. D. Glendening, J. K. Badenhoop, A. E. Reed,
          J. E. Carpenter, J. A. Bohmann, C. M. Morales, P. Karafiloglou,
          C. R. Landis, and F. Weinhold, Theoretical Chemistry Institute,
          University of Wisconsin, Madison, WI (2018)

 Filename set to /home/rpaton/opt/dzvp/fukui/Gau-1734819

 Job title:  arbr35_wb97xd_popncreated by GaussianPrep


 NATURAL POPULATIONS:  Natural atomic orbital occupancies

  NAO Atom No lang   Type(AO)    Occupancy     Spin
 -----------------------------------------------------
   1   Br  1  s      Cor( 1s)     2.00000     0.00000
   2   Br  1  s      Cor( 2s)     2.00000     0.00000
   3   Br  1  s      Cor( 3s)     2.00000     0.00000
   4   Br  1  s      Val( 4s)     1.85583     0.00093
   5   Br  1  s      Ryd( 5s)     0.00292     0.00007
   6   Br  1  px     Cor( 2p)     2.00000     0.00000
   7   Br  1  px     Cor( 3p)     2.00000     0.00000
   8   Br  1  px     Val( 4p)     1.14667    -0.00797
   9   Br  1  px     Ryd( 5p)     0.00287     0.00005
  10   Br  1  py     Cor( 2p)     2.00000     0.00000
  11   Br  1  py     Cor( 3p)     2.00000     0.00000
  12   Br  1  py     Val( 4p)     1.93526    -0.00013
  13   Br  1  py     Ryd( 5p)     0.00127     0.00000
  14   Br  1  pz     Cor( 2p)     2.00000     0.00000
  15   Br  1  pz     Cor( 3p)     2.00000     0.00000
  16   Br  1  pz     Val( 4p)     1.84782     0.08662
  17   Br  1  pz     Ryd( 5p)     0.00102     0.00024
  18   Br  1  dxy    Cor( 3d)     2.00000     0.00000
  19   Br  1  dxy    Ryd( 4d)     0.00196    -0.00004
  20   Br  1  dxy    Ryd( 5d)     0.00001     0.00000
  21   Br  1  dxz    Cor( 3d)     2.00000     0.00000
  22   Br  1  dxz    Ryd( 4d)     0.00269    -0.00027
  23   Br  1  dxz    Ryd( 5d)     0.00002     0.00000
  24   Br  1  dyz    Cor( 3d)     2.00000     0.00000
  25   Br  1  dyz    Ryd( 4d)     0.00016    -0.00001
  26   Br  1  dyz    Ryd( 5d)     0.00000     0.00000
  27   Br  1  dx2y2  Cor( 3d)     1.99999     0.00000
  28   Br  1  dx2y2  Ryd( 4d)     0.00526    -0.00006
  29   Br  1  dx2y2  Ryd( 5d)     0.00001     0.00000
  30   Br  1  dz2    Cor( 3d)     2.00000     0.00000
  31   Br  1  dz2    Ryd( 4d)     0.00201     0.00005
  32   Br  1  dz2    Ryd( 5d)     0.00000     0.00000

  33    C  2  s      Cor( 1s)     1.99996     0.00000
  34    C  2  s      Val( 2s)     0.94544     0.00877
  35    C  2  s      Ryd( 3s)     0.00098    -0.00001
  36    C  2  px     Val( 2p)     1.01287     0.00583
  37    C  2  px     Ryd( 3p)     0.00777    -0.00003
  38    C  2  py     Val( 2p)     1.09807     0.00418
  39    C  2  py     Ryd( 3p)     0.00800    -0.00006
  40    C  2  pz     Val( 2p)     0.95745     0.17095
  41    C  2  pz     Ryd( 3p)     0.00187    -0.00033
  42    C  2  dxy    Ryd( 3d)     0.00142     0.00001
  43    C  2  dxz    Ryd( 3d)     0.00117    -0.00001
  44    C  2  dyz    Ryd( 3d)     0.00085     0.00001
  45    C  2  dx2y2  Ryd( 3d)     0.00186     0.00000
  46    C  2  dz2    Ryd( 3d)     0.00088    -0.00015

  47    C  3  s      Cor( 1s)     1.99995     0.00000
  48    C  3  s      Val( 2s)     0.95320    -0.00216
  49    C  3  s      Ryd( 3s)     0.00139     0.00002
  50    C  3  px     Val( 2p)     1.13606    -0.00176
  51    C  3  px     Ryd( 3p)     0.00673     0.00006
  52    C  3  py     Val( 2p)     1.14452    -0.00405
  53    C  3  py     Ryd( 3p)     0.00552     0.00004
  54    C  3  pz     Val( 2p)     0.95900    -0.01431
  55    C  3  pz     Ryd( 3p)     0.00100     0.00000
  56    C  3  dxy    Ryd( 3d)     0.00079     0.00000
  57    C  3  dxz    Ryd( 3d)     0.00060     0.00000
  58    C  3  dyz    Ryd( 3d)     0.00048     0.00016
  59    C  3  dx2y2  Ryd( 3d)     0.00102    -0.00001
  60    C  3  dz2    Ryd( 3d)     0.00065    -0.00001

  61    C  4  s      Cor( 1s)     1.99994     0.00000
  62    C  4  s      Val( 2s)     0.94126     0.00255
  63    C  4  s      Ryd( 3s)     0.00096     0.00001
  64    C  4  px     Val( 2p)     1.07175     0.00095
  65    C  4  px     Ryd( 3p)     0.00388     0.00002
  66    C  4  py     Val( 2p)     1.19128     0.00069
  67    C  4  py     Ryd( 3p)     0.00634     0.00002
  68    C  4  pz     Val( 2p)     0.93186     0.07107
  69    C  4  pz     Ryd( 3p)     0.00099     0.00001
  70    C  4  dxy    Ryd( 3d)     0.00100     0.00000
  71    C  4  dxz    Ryd( 3d)     0.00062    -0.00001
  72    C  4  dyz    Ryd( 3d)     0.00046     0.00009
  73    C  4  dx2y2  Ryd( 3d)     0.00076    -0.00001
  74    C  4  dz2    Ryd( 3d)     0.00059    -0.00006

  75    C  5  s      Cor( 1s)     1.99996     0.00000
  76    C  5  s      Val( 2s)     0.85498     0.00169
  77    C  5  s      Ryd( 3s)     0.00213     0.00002
  78    C  5  px     Val( 2p)     1.08099    -0.00057
  79    C  5  px     Ryd( 3p)     0.00416     0.00001
  80    C  5  py     Val( 2p)     1.10580    -0.00147
  81    C  5  py     Ryd( 3p)     0.00555     0.00008
  82    C  5  pz     Val( 2p)     0.95207     0.08971
  83    C  5  pz     Ryd( 3p)     0.00130     0.00033
  84    C  5  dxy    Ryd( 3d)     0.00092     0.00001
  85    C  5  dxz    Ryd( 3d)     0.00065     0.00013
  86    C  5  dyz    Ryd( 3d)     0.00074     0.00010
  87    C  5  dx2y2  Ryd( 3d)     0.00101    -0.00001
  88    C  5  dz2    Ryd( 3d)     0.00059    -0.00007

  89    C  6  s      Cor( 1s)     1.99996     0.00000
  90    C  6  s      Val( 2s)     0.86077     0.00434
  91    C  6  s      Ryd( 3s)     0.00194     0.00004
  92    C  6  px     Val( 2p)     1.09019     0.00322
  93    C  6  px     Ryd( 3p)     0.00528     0.00006
  94    C  6  py     Val( 2p)     1.05852     0.00084
  95    C  6  py     Ryd( 3p)     0.00463     0.00002
  96    C  6  pz     Val( 2p)     0.91737     0.10364
  97    C  6  pz     Ryd( 3p)     0.00188     0.00009
  98    C  6  dxy    Ryd( 3d)     0.00089     0.00000
  99    C  6  dxz    Ryd( 3d)     0.00079    -0.00009
 100    C  6  dyz    Ryd( 3d)     0.00066     0.00011
 101    C  6  dx2y2  Ryd( 3d)     0.00109     0.00000
 102    C  6  dz2    Ryd( 3d)     0.00058    -0.00008

 103    C  7  s      Cor( 1s)     1.99995     0.00000
 104    C  7  s      Val( 2s)     0.93709    -0.00393
 105    C  7  s      Ryd( 3s)     0.00157     0.00001
 106    C  7  px     Val( 2p)     1.07913    -0.00473
 107    C  7  px     Ryd( 3p)     0.00499     0.00006
 108    C  7  py     Val( 2p)     1.21160    -0.00342
 109    C  7  py     Ryd( 3p)     0.00765     0.00005
 110    C  7  pz     Val( 2p)     0.97875    -0.05151
 111    C  7  pz     Ryd( 3p)     0.00098     0.00001
 112    C  7  dxy    Ryd( 3d)     0.00098    -0.00001
 113    C  7  dxz    Ryd( 3d)     0.00045     0.00011
 114    C  7  dyz    Ryd( 3d)     0.00058     0.00005
 115    C  7  dx2y2  Ryd( 3d)     0.00078    -0.00001
 116    C  7  dz2    Ryd( 3d)     0.00066     0.00002

 117    C  8  s      Cor( 1s)     1.99993     0.00000
 118    C  8  s      Val( 2s)     1.01405    -0.00134
 119    C  8  s      Ryd( 3s)     0.00096    -0.00001
 120    C  8  px     Val( 2p)     1.01601    -0.00451
 121    C  8  px     Ryd( 3p)     0.00378     0.00001
 122    C  8  py     Val( 2p)     1.16327    -0.00211
 123    C  8  py     Ryd( 3p)     0.00318     0.00001
 124    C  8  pz     Val( 2p)     1.26297    -0.00170
 125    C  8  pz     Ryd( 3p)     0.00227     0.00015
 126    C  8  dxy    Ryd( 3d)     0.00097    -0.00001
 127    C  8  dxz    Ryd( 3d)     0.00037     0.00008
 128    C  8  dyz    Ryd( 3d)     0.00080     0.00001
 129    C  8  dx2y2  Ryd( 3d)     0.00036     0.00000
 130    C  8  dz2    Ryd( 3d)     0.00076    -0.00001

 131    C  9  s      Cor( 1s)     1.99996     0.00000
 132    C  9  s      Val( 2s)     0.86164     0.00394
 133    C  9  s      Ryd( 3s)     0.00199     0.00004
 134    C  9  px     Val( 2p)     1.09109     0.00298
 135    C  9  px     Ryd( 3p)     0.00538     0.00007
 136    C  9  py     Val( 2p)     1.05844     0.00032
 137    C  9  py     Ryd( 3p)     0.00477     0.00003
 138    C  9  pz     Val( 2p)     0.91774     0.09792
 139    C  9  pz     Ryd( 3p)     0.00187     0.00008
 140    C  9  dxy    Ryd( 3d)     0.00090     0.00000
 141    C  9  dxz    Ryd( 3d)     0.00078    -0.00009
[...]
                                                     165(v)
   46. BD ( 1) C  2- C  7       0.98888    -0.86355  88(v),86(g),77(g),155(v)
                                                     81(v),89(g),128(v)
   47. BD ( 1) C  3- C  4       0.98557    -0.83970  85(v),76(v),82(g),77(g)
                                                     146(v),120(v),83(g),81(g)
   48. BD ( 2) C  3- C  4       0.85280    -0.46813  73(v),149(v),121(v),122(v)
                                                     75(r),130(g),150(v)
   49. BD ( 1) C  3- H 16       0.98857    -0.71487  78(v),82(v),76(v),120(v)
                                                     79(g),77(g),83(v),137(v)
   50. BD ( 1) C  4- C  5       0.98702    -0.85047  84(g),85(g),79(g),81(v)
                                                     88(v),129(v),83(g),128(v)
                                                     240(v),95(v),155(v)
   51. BD ( 1) C  4- H 17       0.98943    -0.72181  84(v),77(v),79(g),82(g)
                                                     128(v),81(v)
   52. BD ( 1) C  5- C  6       0.98179    -0.83067  82(g),103(v),86(g),89(v)
                                                     83(v),85(g),88(g),240(v)
                                                     137(v),164(v),165(v),91(v)
                                                     92(v),241(v),174(v),173(v)
                                                     90(v)
   53. BD ( 1) C  5- C 15       0.98332    -0.81198  82(g),103(g),93(v),86(v)
                                                     95(g),84(g),100(v),79(v)
                                                     137(v),231(v),182(v),155(v)
                                                     156(v),183(v)
   54. BD ( 1) C  6- C  7       0.98432    -0.84724  76(v),84(g),78(g),88(g)
                                                     85(v),89(g),119(v),120(v)
                                                     147(v),173(v),90(v)
   55. BD ( 2) C  6- C  7       0.83476    -0.46695  73(v),91(v),92(v),121(v)
                                                     149(v),166(g),175(v),122(v)
                                                     87(g)
   56. BD ( 1) C  6- C  8       0.98596    -0.78271  93(v),82(v),86(g),78(v)
                                                     84(g),183(v),164(v),90(g)
                                                     147(v),91(g),92(g),165(v)
                                                     85(v)
   57. BD ( 1) C  7- H 18       0.98853    -0.71709  84(v),77(v),120(v),86(g)
                                                     76(v),78(g),155(v)
   58. BD ( 1) C  8- C  9       0.98595    -0.78345  86(v),103(v),93(g),96(v)
                                                     95(g),156(v),191(v),88(g)
                                                     241(v),91(g),92(g),192(v)
                                                     85(v)
   59. BD ( 1) C  8- H 19       0.97823    -0.69896  87(v),94(v),95(v),84(v)
                                                     184(v),157(v)
   60. BD ( 1) C  8- H 20       0.97823    -0.69896  87(v),94(v),95(v),84(v)
                                                     184(v),157(v)
   61. BD ( 1) C  9- C 10       0.98423    -0.84954  98(v),95(g),96(g),90(g)
                                                     85(v),97(g),201(v),200(v)
                                                     241(v),173(v),88(v)
   62. BD ( 2) C  9- C 10       0.83935    -0.47081  74(v),75(v),202(v),91(v)
                                                     92(v),244(v),175(v),193(g)
                                                     203(v)
   63. BD ( 1) C  9- C 15       0.98189    -0.83303  103(g),82(v),93(g),104(v)
                                                     97(v),85(g),90(g),146(v)
                                                     231(v),191(v),192(v),91(v)
                                                     92(v),147(v),173(v),174(v)
                                                     88(v)
   64. BD ( 1) C 10- C 11       0.98904    -0.86512  90(v),93(g),99(g),182(v)
                                                     102(v),97(g),222(v)
   65. BD ( 1) C 10- H 21       0.98901    -0.72054  95(v),99(v),201(v),93(g)
                                                     96(g),182(v),98(v)
   66. BD ( 1) C 11- I 12       0.98848    -0.70989  100(v),93(v),222(v),191(v)
                                                     97(v),102(v),182(r)
   67. BD ( 1) C 11- C 13       0.99019    -0.86810  96(g),100(g),97(v),104(v)
                                                     102(g),232(v),191(v),231(v)
                                                     192(v)
   68. BD ( 1) C 13- C 14       0.98547    -0.84225  85(v),98(v),99(g),240(v)
                                                     103(g),104(g),201(v),102(g)
                                                     200(v)
   69. BD ( 2) C 13- C 14       0.85548    -0.47170  74(v),75(v),243(v),202(v)
                                                     203(v),224(g)
   70. BD ( 1) C 13- H 22       0.98907    -0.71884  96(v),103(v),201(v),99(g)
                                                     100(g),104(v),231(v),98(v)
   71. BD ( 1) C 14- C 15       0.98711    -0.85306  95(g),85(g),100(g),90(v)
                                                     102(v),223(v),104(g),222(v)
                                                     146(v),84(v),182(v)
   72. BD ( 1) C 14- H 23       0.98938    -0.72352  95(v),99(v),100(g),103(g)
                                                     222(v),102(v)
 ------ non-Lewis ----------------------------------
   73. LV ( 1) C  2             0.39326    -0.26235
   74. LV ( 1) C 11             0.38773    -0.26294
   75. LV ( 1) C 15             0.40965    -0.24538
   76. BD*( 1)Br  1- C  2       0.01337     0.05003
   77. BD*( 1) C  2- C  3       0.01302     0.49043
   78. BD*( 1) C  2- C  7       0.01259     0.49164
   79. BD*( 1) C  3- C  4       0.00781     0.50836
   80. BD*( 2) C  3- C  4       0.06483    -0.04272
   81. BD*( 1) C  3- H 16       0.00652     0.42882
   82. BD*( 1) C  4- C  5       0.01230     0.50547
   83. BD*( 1) C  4- H 17       0.00665     0.41558
   84. BD*( 1) C  5- C  6       0.01488     0.48207
   85. BD*( 1) C  5- C 15       0.01674     0.40665
   86. BD*( 1) C  6- C  7       0.01237     0.51930
   87. BD*( 2) C  6- C  7       0.08770    -0.04323
   88. BD*( 1) C  6- C  8       0.00944     0.35302
   89. BD*( 1) C  7- H 18       0.00719     0.41689
   90. BD*( 1) C  8- C  9       0.00946     0.35180
   91. BD*( 1) C  8- H 19       0.00626     0.39555
   92. BD*( 1) C  8- H 20       0.00626     0.39555
   93. BD*( 1) C  9- C 10       0.01297     0.51659
   94. BD*( 2) C  9- C 10       0.08061    -0.04431
   95. BD*( 1) C  9- C 15       0.01485     0.48018
   96. BD*( 1) C 10- C 11       0.01143     0.48990
   97. BD*( 1) C 10- H 21       0.00755     0.41336
   98. BD*( 1) C 11- I 12       0.01279     0.01341
   99. BD*( 1) C 11- C 13       0.01186     0.48877
  100. BD*( 1) C 13- C 14       0.00845     0.50483
  101. BD*( 2) C 13- C 14       0.05930    -0.04465
  102. BD*( 1) C 13- H 22       0.00686     0.42499
  103. BD*( 1) C 14- C 15       0.01227     0.50368
  104. BD*( 1) C 14- H 23       0.00667     0.41376
  105. RY ( 1)Br  1             0.00067     0.55135
  106. RY ( 2)Br  1             0.00060     0.64490
  107. RY ( 3)Br  1             0.00014     0.52302
  108. RY ( 4)Br  1             0.00004     0.87549
  109. RY ( 5)Br  1             0.00002     0.48985
  110. RY ( 6)Br  1             0.00001     0.75281
  111. RY ( 7)Br  1             0.00000     0.90159
  112. RY ( 8)Br  1             0.00000     0.77857
  113. RY ( 9)Br  1             0.00000     3.45347
  114. RY (10)Br  1             0.00000     1.00047
  115. RY (11)Br  1             0.00000     3.31557
  116. RY (12)Br  1             0.00000     3.38436
  117. RY (13)Br  1             0.00000     3.49032
  118. RY (14)Br  1             0.00000     3.06249
  119. RY ( 1) C  2             0.00377     0.72383
  120. RY ( 2) C  2             0.00347     1.02227
  121. RY ( 3) C  2             0.00167     0.91396
  122. RY ( 4) C  2             0.00042     1.84588
  123. RY ( 5) C  2             0.00040     0.51815
  124. RY ( 6) C  2             0.00026     2.21870
  125. RY ( 7) C  2             0.00015     2.01242
  126. RY ( 8) C  2             0.00001     1.32886
  127. RY ( 9) C  2             0.00000     2.10860
  128. RY ( 1) C  3             0.00332     1.05929
  129. RY ( 2) C  3             0.00139     0.65582
  130. RY ( 3) C  3             0.00051     0.66550
  131. RY ( 4) C  3             0.00044     0.55071
  132. RY ( 5) C  3             0.00010     1.69325
  133. RY ( 6) C  3             0.00007     2.27790
  134. RY ( 7) C  3             0.00002     2.25265
  135. RY ( 8) C  3             0.00001     1.79712
  136. RY ( 9) C  3             0.00000     2.13348
  137. RY ( 1) C  4             0.00289     1.09327
  138. RY ( 2) C  4             0.00130     0.68484
  139. RY ( 3) C  4             0.00065     0.86464
  140. RY ( 4) C  4             0.00023     0.64649
  141. RY ( 5) C  4             0.00010     1.53888
  142. RY ( 6) C  4             0.00004     2.19662
  143. RY ( 7) C  4             0.00001     2.28971
  144. RY ( 8) C  4             0.00000     2.15810
  145. RY ( 9) C  4             0.00000     1.79453
  146. RY ( 1) C  5             0.00284     1.06387
  147. RY ( 2) C  5             0.00171     1.26371
  148. RY ( 3) C  5             0.00090     0.59252
  149. RY ( 4) C  5             0.00045     0.76968
  150. RY ( 5) C  5             0.00037     1.78593
  151. RY ( 6) C  5             0.00014     1.67072
  152. RY ( 7) C  5             0.00007     2.32768
  153. RY ( 8) C  5             0.00003     2.07539
  154. RY ( 9) C  5             0.00001     2.13643
  155. RY ( 1) C  6             0.00256     1.15613
  156. RY ( 2) C  6             0.00189     1.01712
  157. RY ( 3) C  6             0.00105     0.89846
  158. RY ( 4) C  6             0.00040     0.67080
  159. RY ( 5) C  6             0.00032     1.77872
  160. RY ( 6) C  6             0.00011     2.24911
  161. RY ( 7) C  6             0.00009     1.59837
  162. RY ( 8) C  6             0.00003     2.14797
  163. RY ( 9) C  6             0.00000     2.13191
  164. RY ( 1) C  7             0.00349     1.06739
  165. RY ( 2) C  7             0.00176     0.63467
  166. RY ( 3) C  7             0.00049     0.54044
  167. RY ( 4) C  7             0.00041     0.59020
  168. RY ( 5) C  7             0.00011     1.80668
  169. RY ( 6) C  7             0.00004     2.23804
  170. RY ( 7) C  7             0.00002     1.82174
  171. RY ( 8) C  7             0.00001     2.26314
  172. RY ( 9) C  7             0.00000     2.13763
  173. RY ( 1) C  8             0.00173     0.55283
  174. RY ( 2) C  8             0.00144     0.63140
  175. RY ( 3) C  8             0.00099     0.98752
  176. RY ( 4) C  8             0.00045     0.95444
  177. RY ( 5) C  8             0.00014     1.92291
  178. RY ( 6) C  8             0.00003     2.09038
  179. RY ( 7) C  8             0.00001     2.21891
  180. RY ( 8) C  8             0.00001     2.06512
  181. RY ( 9) C  8             0.00000     2.11938
  182. RY ( 1) C  9             0.00270     1.14906
  183. RY ( 2) C  9             0.00188     1.00721
  184. RY ( 3) C  9             0.00104     0.88053
  185. RY ( 4) C  9             0.00041     0.67557
  186. RY ( 5) C  9             0.00030     1.79535
  187. RY ( 6) C  9             0.00011     2.24856
  188. RY ( 7) C  9             0.00009     1.59393
  189. RY ( 8) C  9             0.00004     2.15183
  190. RY ( 9) C  9             0.00000     2.12965
  191. RY ( 1) C 10             0.00383     1.08058
  192. RY ( 2) C 10             0.00167     0.64622
  193. RY ( 3) C 10             0.00054     0.56639
  194. RY ( 4) C 10             0.00043     0.59769
  195. RY ( 5) C 10             0.00010     1.76949
  196. RY ( 6) C 10             0.00003     2.21064
  197. RY ( 7) C 10             0.00002     1.81372
  198. RY ( 8) C 10             0.00001     2.26149
  199. RY ( 9) C 10             0.00000     2.12668
  200. RY ( 1) C 11             0.00392     0.64399
  201. RY ( 2) C 11             0.00322     1.15520
  202. RY ( 3) C 11             0.00176     0.77292
  203. RY ( 4) C 11             0.00041     1.85165
  204. RY ( 5) C 11             0.00031     0.64668
  205. RY ( 6) C 11             0.00019     2.24385
  206. RY ( 7) C 11             0.00004     1.92586
  207. RY ( 8) C 11             0.00000     1.44512
  208. RY ( 9) C 11             0.00000     2.07768
  209. RY ( 1) I 12             0.00051     0.39896
  210. RY ( 2) I 12             0.00036     0.47893
  211. RY ( 3) I 12             0.00014     0.97565
  212. RY ( 4) I 12             0.00004     2.12087
  213. RY ( 5) I 12             0.00002     0.38427
  214. RY ( 6) I 12             0.00001     1.34650
  215. RY ( 7) I 12             0.00000     0.46351
  216. RY ( 8) I 12             0.00000     0.63983
  217. RY ( 9) I 12             0.00000     0.46433
  218. RY (10) I 12             0.00000    18.86265
  219. RY (11) I 12             0.00000    18.63278
  220. RY (12) I 12             0.00000    19.82129
  221. RY (13) I 12             0.00000    52.44579
  222. RY ( 1) C 13             0.00369     1.07743
  223. RY ( 2) C 13             0.00132     0.65195
  224. RY ( 3) C 13             0.00057     0.67420
  225. RY ( 4) C 13             0.00047     0.55111
  226. RY ( 5) C 13             0.00008     1.67395
  227. RY ( 6) C 13             0.00008     2.27270
  228. RY ( 7) C 13             0.00002     1.78716
  229. RY ( 8) C 13             0.00002     2.23756
  230. RY ( 9) C 13             0.00000     2.12561
  231. RY ( 1) C 14             0.00296     1.09097
  232. RY ( 2) C 14             0.00130     0.67975
  233. RY ( 3) C 14             0.00063     0.81053
  234. RY ( 4) C 14             0.00024     0.62826
  235. RY ( 5) C 14             0.00009     1.58465
  236. RY ( 6) C 14             0.00004     2.20622
  237. RY ( 7) C 14             0.00001     2.30471
  238. RY ( 8) C 14             0.00000     1.79607
  239. RY ( 9) C 14             0.00000     2.14848
  240. RY ( 1) C 15             0.00286     1.06109
  241. RY ( 2) C 15             0.00174     1.25614
  242. RY ( 3) C 15             0.00091     0.59755
  243. RY ( 4) C 15             0.00043     1.22481
  244. RY ( 5) C 15             0.00037     1.44676
  245. RY ( 6) C 15             0.00014     1.54806
  246. RY ( 7) C 15             0.00007     2.32549
  247. RY ( 8) C 15             0.00003     2.07047
  248. RY ( 9) C 15             0.00001     2.13516
  249. RY ( 1) H 16             0.00069     0.30262
  250. RY ( 2) H 16             0.00006     1.61063
  251. RY ( 3) H 16             0.00003     2.17232
  252. RY ( 4) H 16             0.00001     2.07947
  253. RY ( 1) H 17             0.00063     0.31450
  254. RY ( 2) H 17             0.00006     1.60388
  255. RY ( 3) H 17             0.00003     2.30329
  256. RY ( 4) H 17             0.00001     1.95066
  257. RY ( 1) H 18             0.00069     0.30875
  258. RY ( 2) H 18             0.00007     1.62050
  259. RY ( 3) H 18             0.00003     2.19422
  260. RY ( 4) H 18             0.00002     2.07209
  261. RY ( 1) H 19             0.00064     0.31137
  262. RY ( 2) H 19             0.00004     1.87242
  263. RY ( 3) H 19             0.00004     1.71773
  264. RY ( 4) H 19             0.00001     2.21050
  265. RY ( 1) H 20             0.00064     0.31137
  266. RY ( 2) H 20             0.00004     1.87242
  267. RY ( 3) H 20             0.00004     1.71773
  268. RY ( 4) H 20             0.00001     2.21050
  269. RY ( 1) H 21             0.00064     0.30446
  270. RY ( 2) H 21             0.00007     1.61518
  271. RY ( 3) H 21             0.00003     2.24918
  272. RY ( 4) H 21             0.00002     2.01287
  273. RY ( 1) H 22             0.00065     0.29810
  274. RY ( 2) H 22             0.00006     1.60499
  275. RY ( 3) H 22             0.00003     2.21226
  276. RY ( 4) H 22             0.00001     2.03422
  277. RY ( 1) H 23             0.00062     0.31337
  278. RY ( 2) H 23             0.00006     1.60226
  279. RY ( 3) H 23             0.00003     2.30152
  280. RY ( 4) H 23             0.00001     1.95045
          -------------------------------
                 Total Lewis   84.16136  ( 97.8620%)
           Valence non-Lewis    1.74362  (  2.0275%)
           Rydberg non-Lewis    0.09503  (  0.1105%)
          -------------------------------
               Total unit  1   86.00000  (100.0000%)
              Charge unit  1    1.00000

 $CHOOSE
  ALPHA
   LONE 1 3 12 3 END
   BOND S 1 2 S 2 3 D 2 7 D 3 4 S 3 16 S 4 5 S 4 17 D 5 6 S 5 15 S 6 7 S 6 8
        S 7 18 S 8 9 S 8 19 S 8 20 S 9 10 D 9 15 D 10 11 S 10 21 S 11 12
        S 11 13 D 13 14 S 13 22 S 14 15 S 14 23 END
  END
  BETA
   LONE 1 3 5 1 12 3 END
   BOND S 1 2 S 2 3 S 2 7 D 3 4 S 3 16 S 4 5 S 4 17 S 5 6 S 5 15 D 6 7 S 6 8
        S 7 18 S 8 9 S 8 19 S 8 20 D 9 10 S 9 15 S 10 11 S 10 21 S 11 12
        S 11 13 D 13 14 S 13 22 S 14 15 S 14 23 END
  END
 $END

 NBO analysis completed in 3.95 CPU seconds (4 wall seconds)
 Maximum scratch memory used by NBO was 1181730 words (9.02 MB)
 Maximum scratch memory used by G16NBO was 166781 words (1.27 MB)

 Opening RunExU unformatted file "/home/rpaton/opt/dzvp/fukui/Gau-1734819.EUF"
 Read unf file /home/rpaton/opt/dzvp/fukui/Gau-1734819.EUF:
 Label Gaussian matrix elements                                         IVers= 2 NLab= 2 Version=ES64L-G16RevC.01
 Title arbr35_wb97xd_popncreated by GaussianPrep                       
 NAtoms=    23 NBasis=   280 NBsUse=   280 ICharg=     1 Multip=     2 NE=   145 Len12L=8 Len4L=8 IOpCl= 1 ICGU=112
 GAUSSIAN SCALARS                    NI= 1 NR= 1 NTot=       1 LenBuf=    2 NRI=1 N=    1000
 NPA CHARGES                         NI= 0 NR= 1 NTot=      23 LenBuf= 2048 NRI=1 N=      23
 Recovered energy= -3371.08044465     dipole=      0.378498316007      0.349106429713      0.000001994957
 Unable to Open any file for archive entry.
 1\1\GINC-DYNAMO\SP\UwB97XD\def2SVP\C13H8Br1I1(1+,2)\RPATON\27-Sep-2024
 \0\\# pop=(nbo6,hirshfeld) wb97xd/def2svp\\arbr35_wb97xd_popncreated b
 y GaussianPrep\\1,2\Br,0,5.908593,-0.311782,-0.000002\C,0,4.057653,0.0
 85737,-0.000001\C,0,3.647629,1.421661,0.000001\C,0,2.288411,1.728729,0
 .000003\C,0,1.357396,0.691882,0.000003\C,0,1.783297,-0.647672,0.000002
 \C,0,3.136106,-0.963207,0.\C,0,0.592098,-1.575381,0.000005\C,0,-0.5738
 73,-0.615802,0.000003\C,0,-1.934921,-0.895026,0.000002\C,0,-2.831669,0
 .176772,0.000001\I,0,-4.902338,-0.210877,-0.000001\C,0,-2.382312,1.501
 162,0.\C,0,-1.014918,1.772373,0.\C,0,-0.111888,0.711509,0.000003\H,0,4
 .393845,2.21733,0.\H,0,1.967709,2.772705,0.000004\H,0,3.477983,-1.9997
 01,-0.000002\H,0,0.583474,-2.231571,0.88589\H,0,0.583472,-2.231579,-0.
 885874\H,0,-2.29469,-1.925742,0.000001\H,0,-3.099666,2.323267,-0.00000
 1\H,0,-0.667015,2.807678,-0.000002\\Version=ES64L-G16RevC.01\State=2-A
 \HF=-3371.0804447\S2=0.778949\S2-1=0.\S2A=0.750503\RMSD=4.891e-09\Dipo
 le=0.3784983,0.3491064,0.000002\Quadrupole=26.4129026,-4.2880316,-22.1
 24871,0.9057495,0.0000068,-0.0000064\PG=C01 [X(C13H8Br1I1)]\\@
 The archive entry for this job was punched.


 THE MOST BEAUTIFUL EXPERIENCE WE CAN HAVE IS THE MYSTERIOUS.
 IT IS THE FUNDAMENTAL EMOTION WHICH STANDS AT AT THE CRADLE 
 OF TRUE ART AND TRUE SCIENCE.

                                    -- ALBERT EINSTEIN
 Job cpu time:       0 days  0 hours 24 minutes 16.9 seconds.
 Elapsed time:       0 days  0 hours  1 minutes  1.3 seconds.
 File lengths (MBytes):  RWF=     79 Int=      0 D2E=      0 Chk=      7 Scr=      1
 Normal termination of Gaussian 16 at Fri Sep 27 18:27:55 2024.
