 Entering Gaussian System, Link 0=/usr/local/Gaussian/G16C/g16/g16
 Input=arbr48_wb97xd_red.com
 Output=arbr48_wb97xd_red.log
 Initial command:
 /usr/local/Gaussian/G16C/g16/l1.exe "/home/rpaton/arbr500/dzvp/fukui/Gau-1929364.inp" -scrdir="/home/rpaton/arbr500/dzvp/fukui/"
 Entering Link 1 = /usr/local/Gaussian/G16C/g16/l1.exe PID=   1929365.
  
 Copyright (c) 1988-2019, Gaussian, Inc.  All Rights Reserved.
  
 This is part of the Gaussian(R) 16 program.  It is based on
 the Gaussian(R) 09 system (copyright 2009, Gaussian, Inc.),
 the Gaussian(R) 03 system (copyright 2003, Gaussian, Inc.),
 the Gaussian(R) 98 system (copyright 1998, Gaussian, Inc.),
 the Gaussian(R) 94 system (copyright 1995, Gaussian, Inc.),
 the Gaussian 92(TM) system (copyright 1992, Gaussian, Inc.),
 the Gaussian 90(TM) system (copyright 1990, Gaussian, Inc.),
 the Gaussian 88(TM) system (copyright 1988, Gaussian, Inc.),
 the Gaussian 86(TM) system (copyright 1986, Carnegie Mellon
 University), and the Gaussian 82(TM) system (copyright 1983,
 Carnegie Mellon University). Gaussian is a federally registered
 trademark of Gaussian, Inc.
  
 This software contains proprietary and confidential information,
 including trade secrets, belonging to Gaussian, Inc.
  
 This software is provided under written license and may be
 used, copied, transmitted, or stored only in accord with that
 written license.
  
 The following legend is applicable only to US Government
 contracts under FAR:
  
                    RESTRICTED RIGHTS LEGEND
  
 Use, reproduction and disclosure by the US Government is
 subject to restrictions as set forth in subparagraphs (a)
 and (c) of the Commercial Computer Software - Restricted
 Rights clause in FAR 52.227-19.
  
 Gaussian, Inc.
 340 Quinnipiac St., Bldg. 40, Wallingford CT 06492
  
  
 ---------------------------------------------------------------
 Warning -- This program may not be used in any manner that
 competes with the business of Gaussian, Inc. or will provide
 assistance to any competitor of Gaussian, Inc.  The licensee
 of this program is prohibited from giving any competitor of
 Gaussian, Inc. access to this program.  By using this program,
 the user acknowledges that Gaussian, Inc. is engaged in the
 business of creating and licensing software in the field of
 computational chemistry and represents and warrants to the
 licensee that it is not a competitor of Gaussian, Inc. and that
 it will not use this program in any manner prohibited above.
 ---------------------------------------------------------------
  

 Cite this work as:
 Gaussian 16, Revision C.01,
 M. J. Frisch, G. W. Trucks, H. B. Schlegel, G. E. Scuseria, 
 M. A. Robb, J. R. Cheeseman, G. Scalmani, V. Barone, 
 G. A. Petersson, H. Nakatsuji, X. Li, M. Caricato, A. V. Marenich, 
 J. Bloino, B. G. Janesko, R. Gomperts, B. Mennucci, H. P. Hratchian, 
 J. V. Ortiz, A. F. Izmaylov, J. L. Sonnenberg, D. Williams-Young, 
 F. Ding, F. Lipparini, F. Egidi, J. Goings, B. Peng, A. Petrone, 
 T. Henderson, D. Ranasinghe, V. G. Zakrzewski, J. Gao, N. Rega, 
 G. Zheng, W. Liang, M. Hada, M. Ehara, K. Toyota, R. Fukuda, 
 J. Hasegawa, M. Ishida, T. Nakajima, Y. Honda, O. Kitao, H. Nakai, 
 T. Vreven, K. Throssell, J. A. Montgomery, Jr., J. E. Peralta, 
 F. Ogliaro, M. J. Bearpark, J. J. Heyd, E. N. Brothers, K. N. Kudin, 
 V. N. Staroverov, T. A. Keith, R. Kobayashi, J. Normand, 
 K. Raghavachari, A. P. Rendell, J. C. Burant, S. S. Iyengar, 
 J. Tomasi, M. Cossi, J. M. Millam, M. Klene, C. Adamo, R. Cammi, 
 J. W. Ochterski, R. L. Martin, K. Morokuma, O. Farkas, 
 J. B. Foresman, and D. J. Fox, Gaussian, Inc., Wallingford CT, 2019.
 
 ******************************************
 Gaussian 16:  ES64L-G16RevC.01  3-Jul-2019
                28-Sep-2024 
 ******************************************
 %chk=arbr48_wb97xd_red.chk
 %mem=48GB
 %nprocshared=24
 Will use up to   24 processors via shared memory.
 -------------------------------------
 # pop=(nbo6,hirshfeld) wb97xd/def2svp
 -------------------------------------
 1/38=1,172=1/1;
 2/12=2,17=6,18=5,40=1/2;
 3/5=43,7=101,11=2,25=1,30=1,74=-58/1,2,3;
 4//1;
 5/5=2,38=5/2;
 6/7=2,8=2,9=2,10=2,28=1,40=1,79=1,113=1,114=1,124=3103,126=1/1,12;
 99/5=1,9=1/99;
 ----------------------------------------
 arbr48_wb97xd_redcreated by GaussianPrep
 ----------------------------------------
 Symbolic Z-matrix:
 Charge = -1 Multiplicity = 2
 Br                    3.50483  -0.905     0.01607 
 C                     1.8366   -0.00944  -0.00623 
 C                     0.66234  -0.75997  -0.00386 
 C                    -0.58084  -0.11749  -0.01391 
 I                    -2.36571  -1.21378  -0.00282 
 C                    -0.60777   1.27295  -0.02633 
 C                     0.57581   2.01768  -0.03276 
 C                     1.80972   1.38977  -0.02582 
 C                     0.18805   3.4729   -0.11296 
 C                    -1.32438   3.39465   0.17269 
 O                    -1.71555   2.0329   -0.04073 
 H                     0.71262  -1.84932   0.01116 
 H                     2.73826   1.96257  -0.03663 
 H                     0.71526   4.10482   0.6153 
 H                     0.39757   3.8742   -1.11778 
 H                    -1.93321   4.02877  -0.4841 
 H                    -1.54968   3.65456   1.22014 
 
                          Input orientation:                          
 ---------------------------------------------------------------------
 Center     Atomic      Atomic             Coordinates (Angstroms)
 Number     Number       Type             X           Y           Z
 ---------------------------------------------------------------------
      1         35           0        3.504829   -0.904999    0.016071
      2          6           0        1.836599   -0.009438   -0.006232
      3          6           0        0.662336   -0.759965   -0.003862
      4          6           0       -0.580843   -0.117488   -0.013911
      5         53           0       -2.365710   -1.213777   -0.002823
      6          6           0       -0.607771    1.272953   -0.026330
      7          6           0        0.575812    2.017683   -0.032756
      8          6           0        1.809722    1.389774   -0.025824
      9          6           0        0.188045    3.472896   -0.112959
     10          6           0       -1.324375    3.394647    0.172693
     11          8           0       -1.715548    2.032900   -0.040732
     12          1           0        0.712622   -1.849315    0.011161
     13          1           0        2.738256    1.962565   -0.036630
     14          1           0        0.715264    4.104821    0.615304
     15          1           0        0.397570    3.874198   -1.117780
     16          1           0       -1.933212    4.028771   -0.484097
     17          1           0       -1.549675    3.654561    1.220142
 ---------------------------------------------------------------------
                    Distance matrix (angstroms):
                    1          2          3          4          5
     1  Br   0.000000
     2  C    1.893546   0.000000
     3  C    2.846260   1.393625   0.000000
     4  C    4.160984   2.419868   1.399418   0.000000
     5  I    5.878684   4.371481   3.061864   2.094689   0.000000
     6  C    4.653896   2.760412   2.397172   1.390757   3.045444
     7  C    4.138067   2.387364   2.779145   2.428407   4.369872
     8  C    2.853266   1.399607   2.436874   2.826089   4.920695
     9  C    5.493967   3.854318   4.260747   3.673126   5.338417
    10  C    6.467820   4.648824   4.608578   3.594823   4.727870
    11  O    5.990560   4.097570   3.668213   2.431552   3.311353
    12  H    2.947571   2.156102   1.090613   2.161690   3.143284
    13  H    2.968726   2.168572   3.423841   3.917085   6.011719
    14  H    5.765332   4.309388   4.904316   4.461356   6.177537
    15  H    5.812177   4.288236   4.773508   4.255511   5.896298
    16  H    7.359657   5.544994   5.468042   4.386507   5.282328
    17  H    6.912842   5.137678   5.087162   4.085324   5.085496
                    6          7          8          9         10
     6  C    0.000000
     7  C    1.398404   0.000000
     8  C    2.420314   1.384504   0.000000
     9  C    2.341063   1.508125   2.641368   0.000000
    10  C    2.248270   2.355621   3.725787   1.541147   0.000000
    11  O    1.343464   2.291424   3.583485   2.387985   1.432802
    12  H    3.390192   3.869667   3.420043   5.349441   5.628018
    13  H    3.416368   2.163150   1.091046   2.964878   4.312731
    14  H    3.190861   2.189880   2.996725   1.098934   2.204627
    15  H    2.994737   2.157706   3.059233   1.102093   2.204628
    16  H    3.092067   3.247058   4.602594   2.224066   1.097346
    17  H    2.848321   2.960881   4.238778   2.197688   1.102481
                   11         12         13         14         15
    11  O    0.000000
    12  H    4.579334   0.000000
    13  H    4.454361   4.316933   0.000000
    14  H    3.260688   5.984708   3.017743   0.000000
    15  H    3.002612   5.842291   3.209679   1.776991   0.000000
    16  H    2.056077   6.465107   5.127577   2.868604   2.420329
    17  H    2.060850   6.072254   4.777937   2.387156   3.050555
                   16         17
    16  H    0.000000
    17  H    1.786495   0.000000
 Stoichiometry    C8H6BrIO(1-,2)
 Framework group  C1[X(C8H6BrIO)]
 Deg. of freedom    45
 Full point group                 C1      NOp   1
 Largest Abelian subgroup         C1      NOp   1
 Largest concise Abelian subgroup C1      NOp   1
                         Standard orientation:                         
 ---------------------------------------------------------------------
 Center     Atomic      Atomic             Coordinates (Angstroms)
 Number     Number       Type             X           Y           Z
 ---------------------------------------------------------------------
      1         35           0        3.504829   -0.904999    0.016071
      2          6           0        1.836599   -0.009438   -0.006232
      3          6           0        0.662336   -0.759965   -0.003862
      4          6           0       -0.580843   -0.117488   -0.013911
      5         53           0       -2.365710   -1.213777   -0.002823
      6          6           0       -0.607771    1.272953   -0.026330
      7          6           0        0.575812    2.017683   -0.032756
      8          6           0        1.809722    1.389774   -0.025824
      9          6           0        0.188045    3.472896   -0.112959
     10          6           0       -1.324375    3.394647    0.172693
     11          8           0       -1.715548    2.032900   -0.040732
     12          1           0        0.712622   -1.849315    0.011161
     13          1           0        2.738256    1.962565   -0.036630
     14          1           0        0.715264    4.104821    0.615304
     15          1           0        0.397570    3.874198   -1.117780
     16          1           0       -1.933212    4.028771   -0.484097
     17          1           0       -1.549675    3.654561    1.220142
 ---------------------------------------------------------------------
 Rotational constants (GHZ):           0.6614666           0.2710584           0.1928517
 Standard basis: def2SVP (5D, 7F)
 There are   228 symmetry adapted cartesian basis functions of A   symmetry.
 There are   214 symmetry adapted basis functions of A   symmetry.
   214 basis functions,   414 primitive gaussians,   228 cartesian basis functions
    62 alpha electrons       61 beta electrons
       nuclear repulsion energy       999.2340677284 Hartrees.
 NAtoms=   17 NActive=   17 NUniq=   17 SFac= 1.00D+00 NAtFMM=   60 NAOKFM=F Big=F
 Integral buffers will be    131072 words long.
 Raffenetti 2 integral format.
 Two-electron integral symmetry is turned on.
 Nuclear repulsion after empirical dispersion term =      999.2234077179 Hartrees.
 One-electron integrals computed using PRISM.
   1 Symmetry operations used in ECPInt.
 ECPInt:  NShTT=    4465 NPrTT=   18543 LenC2=    4271 LenP2D=   13044.
 LDataN:  DoStor=T MaxTD1= 6 Len=  172
 NBasis=   214 RedAO= T EigKep=  2.19D-04  NBF=   214
 NBsUse=   214 1.00D-06 EigRej= -1.00D+00 NBFU=   214
 Defaulting to unpruned grid for atomic number  53.
 ExpMin= 1.11D-01 ExpMax= 1.13D+05 ExpMxC= 1.70D+04 IAcc=3 IRadAn=         5 AccDes= 0.00D+00
 Harris functional with IExCor= 4639 and IRadAn=       5 diagonalized for initial guess.
 HarFok:  IExCor= 4639 AccDes= 0.00D+00 IRadAn=         5 IDoV= 1 UseB2=F ITyADJ=14
 ICtDFT=  3500011 ScaDFX=  1.000000  1.000000  1.000000  1.000000
 Defaulting to unpruned grid for atomic number  53.
 FoFCou: FMM=F IPFlag=           0 FMFlag=      100000 FMFlg1=           0
         NFxFlg=           0 DoJE=T BraDBF=F KetDBF=T FulRan=T
         wScrn=  0.000000 ICntrl=       500 IOpCl=  0 I1Cent=   200000004 NGrid=           0
         NMat0=    1 NMatS0=      1 NMatT0=    0 NMatD0=    1 NMtDS0=    0 NMtDT0=    0
 Petite list used in FoFCou.
 Initial guess <Sx>= 0.0000 <Sy>= 0.0000 <Sz>= 0.5000 <S**2>= 0.7500 S= 0.5000
 Requested convergence on RMS density matrix=1.00D-08 within 128 cycles.
 Requested convergence on MAX density matrix=1.00D-06.
 Requested convergence on             energy=1.00D-06.
 No special actions if energy rises.
 Integral accuracy reduced to 1.0D-05 until final iterations.
 Defaulting to unpruned grid for atomic number  53.
 Defaulting to unpruned grid for atomic number  53.
 Defaulting to unpruned grid for atomic number  53.
 Defaulting to unpruned grid for atomic number  53.
 Defaulting to unpruned grid for atomic number  53.
 Defaulting to unpruned grid for atomic number  53.
 Defaulting to unpruned grid for atomic number  53.
 Defaulting to unpruned grid for atomic number  53.
 Defaulting to unpruned grid for atomic number  53.
 Defaulting to unpruned grid for atomic number  53.
 Defaulting to unpruned grid for atomic number  53.
 Defaulting to unpruned grid for atomic number  53.
 Defaulting to unpruned grid for atomic number  53.
 Defaulting to unpruned grid for atomic number  53.
 Defaulting to unpruned grid for atomic number  53.
 Defaulting to unpruned grid for atomic number  53.
 Defaulting to unpruned grid for atomic number  53.
 Defaulting to unpruned grid for atomic number  53.
 Defaulting to unpruned grid for atomic number  53.
 Defaulting to unpruned grid for atomic number  53.
 Defaulting to unpruned grid for atomic number  53.
 Defaulting to unpruned grid for atomic number  53.
 Defaulting to unpruned grid for atomic number  53.
 Defaulting to unpruned grid for atomic number  53.
 Initial convergence to 1.0D-05 achieved.  Increase integral accuracy.
 SCF Done:  E(UwB97XD) =  -3254.92403336     A.U. after   35 cycles
            NFock= 35  Conv=0.24D-08     -V/T= 2.0622
 <Sx>= 0.0000 <Sy>= 0.0000 <Sz>= 0.5000 <S**2>= 0.7653 S= 0.5076
 <L.S>= 0.000000000000E+00
 Annihilation of the first spin contaminant:
 S**2 before annihilation     0.7653,   after     0.7501

 **********************************************************************

            Population analysis using the SCF Density.

 **********************************************************************

 Orbital symmetries:
 Alpha Orbitals:
       Occupied  (A) (A) (A) (A) (A) (A) (A) (A) (A) (A) (A) (A)
                 (A) (A) (A) (A) (A) (A) (A) (A) (A) (A) (A) (A)
                 (A) (A) (A) (A) (A) (A) (A) (A) (A) (A) (A) (A)
                 (A) (A) (A) (A) (A) (A) (A) (A) (A) (A) (A) (A)
                 (A) (A) (A) (A) (A) (A) (A) (A) (A) (A) (A) (A)
                 (A) (A)
       Virtual   (A) (A) (A) (A) (A) (A) (A) (A) (A) (A) (A) (A)
                 (A) (A) (A) (A) (A) (A) (A) (A) (A) (A) (A) (A)
                 (A) (A) (A) (A) (A) (A) (A) (A) (A) (A) (A) (A)
                 (A) (A) (A) (A) (A) (A) (A) (A) (A) (A) (A) (A)
                 (A) (A) (A) (A) (A) (A) (A) (A) (A) (A) (A) (A)
                 (A) (A) (A) (A) (A) (A) (A) (A) (A) (A) (A) (A)
                 (A) (A) (A) (A) (A) (A) (A) (A) (A) (A) (A) (A)
                 (A) (A) (A) (A) (A) (A) (A) (A) (A) (A) (A) (A)
                 (A) (A) (A) (A) (A) (A) (A) (A) (A) (A) (A) (A)
                 (A) (A) (A) (A) (A) (A) (A) (A) (A) (A) (A) (A)
                 (A) (A) (A) (A) (A) (A) (A) (A) (A) (A) (A) (A)
                 (A) (A) (A) (A) (A) (A) (A) (A) (A) (A) (A) (A)
                 (A) (A) (A) (A) (A) (A) (A) (A)
 Beta  Orbitals:
       Occupied  (A) (A) (A) (A) (A) (A) (A) (A) (A) (A) (A) (A)
                 (A) (A) (A) (A) (A) (A) (A) (A) (A) (A) (A) (A)
                 (A) (A) (A) (A) (A) (A) (A) (A) (A) (A) (A) (A)
                 (A) (A) (A) (A) (A) (A) (A) (A) (A) (A) (A) (A)
                 (A) (A) (A) (A) (A) (A) (A) (A) (A) (A) (A) (A)
                 (A)
       Virtual   (A) (A) (A) (A) (A) (A) (A) (A) (A) (A) (A) (A)
                 (A) (A) (A) (A) (A) (A) (A) (A) (A) (A) (A) (A)
                 (A) (A) (A) (A) (A) (A) (A) (A) (A) (A) (A) (A)
                 (A) (A) (A) (A) (A) (A) (A) (A) (A) (A) (A) (A)
                 (A) (A) (A) (A) (A) (A) (A) (A) (A) (A) (A) (A)
                 (A) (A) (A) (A) (A) (A) (A) (A) (A) (A) (A) (A)
                 (A) (A) (A) (A) (A) (A) (A) (A) (A) (A) (A) (A)
                 (A) (A) (A) (A) (A) (A) (A) (A) (A) (A) (A) (A)
                 (A) (A) (A) (A) (A) (A) (A) (A) (A) (A) (A) (A)
                 (A) (A) (A) (A) (A) (A) (A) (A) (A) (A) (A) (A)
                 (A) (A) (A) (A) (A) (A) (A) (A) (A) (A) (A) (A)
                 (A) (A) (A) (A) (A) (A) (A) (A) (A) (A) (A) (A)
                 (A) (A) (A) (A) (A) (A) (A) (A) (A)
 The electronic state is 2-A.
 Alpha  occ. eigenvalues -- -482.91028 -62.49236 -56.29979 -56.29660 -56.29659
 Alpha  occ. eigenvalues --  -19.13941 -10.22701 -10.19297 -10.18006 -10.17106
 Alpha  occ. eigenvalues --  -10.14853 -10.12283 -10.11422 -10.11330  -8.66188
 Alpha  occ. eigenvalues --   -6.80703  -6.48650  -6.47462  -6.47460  -4.82830
 Alpha  occ. eigenvalues --   -4.81495  -4.81470  -2.59044  -2.58689  -2.58686
 Alpha  occ. eigenvalues --   -2.57741  -2.57741  -1.86252  -1.85813  -1.85780
 Alpha  occ. eigenvalues --   -1.84645  -1.84645  -1.02563  -0.79626  -0.74514
 Alpha  occ. eigenvalues --   -0.74032  -0.67835  -0.66007  -0.61966  -0.57088
 Alpha  occ. eigenvalues --   -0.52946  -0.50566  -0.45361  -0.43559  -0.43035
 Alpha  occ. eigenvalues --   -0.38546  -0.34728  -0.34539  -0.33770  -0.32771
 Alpha  occ. eigenvalues --   -0.31893  -0.29922  -0.28359  -0.27981  -0.24851
 Alpha  occ. eigenvalues --   -0.23432  -0.22259  -0.20828  -0.18953  -0.16114
 Alpha  occ. eigenvalues --   -0.13372   0.02620
 Alpha virt. eigenvalues --    0.19742   0.23735   0.25029   0.26158   0.29030
 Alpha virt. eigenvalues --    0.30473   0.33483   0.34301   0.35416   0.36256
 Alpha virt. eigenvalues --    0.39080   0.41417   0.43808   0.47055   0.48250
 Alpha virt. eigenvalues --    0.48697   0.52184   0.53504   0.54473   0.55563
 Alpha virt. eigenvalues --    0.58765   0.59627   0.61441   0.61775   0.62311
 Alpha virt. eigenvalues --    0.64072   0.65304   0.65542   0.65925   0.66347
 Alpha virt. eigenvalues --    0.67272   0.68808   0.71651   0.71982   0.73520
 Alpha virt. eigenvalues --    0.73653   0.74104   0.74557   0.76043   0.77156
 Alpha virt. eigenvalues --    0.79044   0.81293   0.81471   0.83214   0.84146
 Alpha virt. eigenvalues --    0.85385   0.85564   0.86258   0.86938   0.88582
 Alpha virt. eigenvalues --    0.89318   0.89656   0.91100   0.92447   0.93352
 Alpha virt. eigenvalues --    0.94428   0.95601   0.97826   0.98557   0.99554
 Alpha virt. eigenvalues --    1.01469   1.03673   1.04877   1.08089   1.09868
 Alpha virt. eigenvalues --    1.15290   1.16381   1.21280   1.24508   1.26248
 Alpha virt. eigenvalues --    1.27600   1.31443   1.33929   1.38779   1.43969
 Alpha virt. eigenvalues --    1.47336   1.50693   1.51096   1.52836   1.53938
 Alpha virt. eigenvalues --    1.56903   1.64170   1.65432   1.69961   1.75997
 Alpha virt. eigenvalues --    1.77973   1.79351   1.82015   1.87732   1.89943
 Alpha virt. eigenvalues --    1.93514   1.95951   1.97982   1.98548   2.00149
 Alpha virt. eigenvalues --    2.00419   2.02606   2.03224   2.05727   2.07356
 Alpha virt. eigenvalues --    2.08270   2.10234   2.13221   2.15516   2.17790
 Alpha virt. eigenvalues --    2.21850   2.24242   2.26286   2.27989   2.33691
 Alpha virt. eigenvalues --    2.36454   2.37326   2.40072   2.45222   2.49048
 Alpha virt. eigenvalues --    2.52609   2.53221   2.55845   2.56543   2.60945
 Alpha virt. eigenvalues --    2.62464   2.65187   2.71715   2.77607   2.81567
 Alpha virt. eigenvalues --    2.86976   2.88562   2.91528   2.96214   2.96631
 Alpha virt. eigenvalues --    3.04524   3.09045   3.13235   3.14193   3.19246
 Alpha virt. eigenvalues --    3.19902   3.24540   3.26854   3.34057   3.40256
 Alpha virt. eigenvalues --    3.55881   3.66213   3.67384   3.71196   3.75547
 Alpha virt. eigenvalues --    3.87349   3.88300   4.07565  18.93115  19.12798
 Alpha virt. eigenvalues --   19.62822  56.74760
  Beta  occ. eigenvalues -- -482.91029 -62.49236 -56.29978 -56.29662 -56.29660
  Beta  occ. eigenvalues --  -19.13955 -10.22699 -10.19412 -10.18169 -10.17142
  Beta  occ. eigenvalues --  -10.14446 -10.11943 -10.11027 -10.10981  -8.66188
  Beta  occ. eigenvalues --   -6.80703  -6.48648  -6.47465  -6.47463  -4.82838
  Beta  occ. eigenvalues --   -4.81495  -4.81460  -2.59043  -2.58689  -2.58688
  Beta  occ. eigenvalues --   -2.57743  -2.57743  -1.86259  -1.85820  -1.85774
  Beta  occ. eigenvalues --   -1.84641  -1.84641  -1.02576  -0.79153  -0.74239
  Beta  occ. eigenvalues --   -0.73720  -0.67280  -0.65639  -0.61418  -0.56785
  Beta  occ. eigenvalues --   -0.52257  -0.50330  -0.45168  -0.43168  -0.42765
  Beta  occ. eigenvalues --   -0.38302  -0.34468  -0.34270  -0.33280  -0.32009
  Beta  occ. eigenvalues --   -0.31405  -0.29754  -0.28108  -0.27685  -0.24593
  Beta  occ. eigenvalues --   -0.22618  -0.22190  -0.19849  -0.18942  -0.12977
  Beta  occ. eigenvalues --   -0.11986
  Beta virt. eigenvalues --    0.20206   0.23666   0.23902   0.25015   0.26166
  Beta virt. eigenvalues --    0.29776   0.30489   0.33675   0.34501   0.35673
  Beta virt. eigenvalues --    0.36703   0.40789   0.42414   0.43894   0.47217
  Beta virt. eigenvalues --    0.48383   0.48779   0.52689   0.53725   0.54507
  Beta virt. eigenvalues --    0.55709   0.58977   0.59789   0.61517   0.61853
  Beta virt. eigenvalues --    0.62609   0.64338   0.65567   0.65880   0.66553
  Beta virt. eigenvalues --    0.66818   0.67602   0.69031   0.71642   0.72213
  Beta virt. eigenvalues --    0.73666   0.74008   0.74267   0.74908   0.76655
  Beta virt. eigenvalues --    0.77338   0.79246   0.81421   0.81687   0.83984
  Beta virt. eigenvalues --    0.84263   0.85814   0.85966   0.86577   0.87054
  Beta virt. eigenvalues --    0.88684   0.89561   0.89999   0.91301   0.92875
  Beta virt. eigenvalues --    0.93907   0.95123   0.96292   0.98000   0.98899
  Beta virt. eigenvalues --    0.99902   1.01910   1.03971   1.05143   1.08304
  Beta virt. eigenvalues --    1.10209   1.15476   1.16639   1.21494   1.24647
  Beta virt. eigenvalues --    1.26396   1.27753   1.31635   1.33994   1.38915
  Beta virt. eigenvalues --    1.44206   1.48026   1.51295   1.51529   1.53467
  Beta virt. eigenvalues --    1.54365   1.57186   1.64720   1.65786   1.70214
  Beta virt. eigenvalues --    1.76221   1.78690   1.80089   1.82353   1.87867
  Beta virt. eigenvalues --    1.90068   1.93661   1.96141   1.98161   1.98736
  Beta virt. eigenvalues --    2.00373   2.00884   2.02756   2.03413   2.05977
  Beta virt. eigenvalues --    2.07811   2.08827   2.10694   2.13498   2.15680
  Beta virt. eigenvalues --    2.18408   2.22406   2.24891   2.26910   2.28150
  Beta virt. eigenvalues --    2.34163   2.37181   2.37500   2.40629   2.45461
  Beta virt. eigenvalues --    2.49377   2.53320   2.54578   2.56423   2.57364
  Beta virt. eigenvalues --    2.61291   2.63175   2.65484   2.72198   2.78370
  Beta virt. eigenvalues --    2.82020   2.88075   2.89097   2.91930   2.96504
  Beta virt. eigenvalues --    2.96794   3.04706   3.09119   3.13616   3.14675
  Beta virt. eigenvalues --    3.19522   3.20078   3.24640   3.26885   3.34361
  Beta virt. eigenvalues --    3.40311   3.56068   3.66385   3.67379   3.71193
  Beta virt. eigenvalues --    3.75534   3.87411   3.88339   4.07561  18.93143
  Beta virt. eigenvalues --   19.12798  19.62815  56.74768
          Condensed to atoms (all electrons):
               1          2          3          4          5          6
     1  Br  35.111499   0.177841  -0.058473   0.003920  -0.000199   0.001197
     2  C    0.177841   5.202256   0.396960   0.076471   0.004050  -0.144435
     3  C   -0.058473   0.396960   5.132171   0.217280  -0.054564   0.083925
     4  C    0.003920   0.076471   0.217280   5.740999   0.179290   0.307836
     5  I   -0.000199   0.004050  -0.054564   0.179290  25.026163  -0.051994
     6  C    0.001197  -0.144435   0.083925   0.307836  -0.051994   4.838177
     7  C    0.003266   0.098046  -0.094943  -0.031936   0.005063   0.433884
     8  C   -0.056288   0.309768   0.026999  -0.111584   0.000856   0.083066
     9  C   -0.000159   0.016164  -0.001958   0.028165  -0.000535  -0.113886
    10  C    0.000003  -0.000938   0.000413   0.002095   0.000045  -0.075200
    11  O    0.000001   0.000306   0.001832  -0.067567   0.005923   0.378583
    12  H   -0.003209  -0.066806   0.429855  -0.064832  -0.006497   0.015687
    13  H   -0.002600  -0.078896   0.015355  -0.001807   0.000041   0.016791
    14  H    0.000003  -0.000317   0.000051  -0.000427   0.000023   0.007924
    15  H   -0.000003  -0.000392  -0.000126  -0.000025  -0.000027  -0.004159
    16  H   -0.000000  -0.000001   0.000030  -0.000573  -0.000037   0.003353
    17  H   -0.000000   0.000025  -0.000103   0.001392  -0.000001   0.007853
               7          8          9         10         11         12
     1  Br   0.003266  -0.056288  -0.000159   0.000003   0.000001  -0.003209
     2  C    0.098046   0.309768   0.016164  -0.000938   0.000306  -0.066806
     3  C   -0.094943   0.026999  -0.001958   0.000413   0.001832   0.429855
     4  C   -0.031936  -0.111584   0.028165   0.002095  -0.067567  -0.064832
     5  I    0.005063   0.000856  -0.000535   0.000045   0.005923  -0.006497
     6  C    0.433884   0.083066  -0.113886  -0.075200   0.378583   0.015687
     7  C    5.477566   0.177077   0.357407  -0.052470  -0.078066  -0.000829
     8  C    0.177077   5.340966  -0.094731   0.011830   0.006393   0.013821
     9  C    0.357407  -0.094731   4.865990   0.392685  -0.061764   0.000013
    10  C   -0.052470   0.011830   0.392685   4.463322   0.324305   0.000010
    11  O   -0.078066   0.006393  -0.061764   0.324305   7.898074  -0.000077
    12  H   -0.000829   0.013821   0.000013   0.000010  -0.000077   0.730486
    13  H   -0.072019   0.442586  -0.020032   0.000106  -0.000124  -0.000339
    14  H   -0.026043   0.002331   0.346699  -0.016520   0.004258   0.000001
    15  H   -0.024330   0.008449   0.276998  -0.001031   0.002734  -0.000003
    16  H    0.007167  -0.000060  -0.025439   0.373445  -0.026326  -0.000000
    17  H   -0.006334  -0.000249  -0.013862   0.364947  -0.037307  -0.000000
              13         14         15         16         17
     1  Br  -0.002600   0.000003  -0.000003  -0.000000  -0.000000
     2  C   -0.078896  -0.000317  -0.000392  -0.000001   0.000025
     3  C    0.015355   0.000051  -0.000126   0.000030  -0.000103
     4  C   -0.001807  -0.000427  -0.000025  -0.000573   0.001392
     5  I    0.000041   0.000023  -0.000027  -0.000037  -0.000001
     6  C    0.016791   0.007924  -0.004159   0.003353   0.007853
     7  C   -0.072019  -0.026043  -0.024330   0.007167  -0.006334
     8  C    0.442586   0.002331   0.008449  -0.000060  -0.000249
     9  C   -0.020032   0.346699   0.276998  -0.025439  -0.013862
    10  C    0.000106  -0.016520  -0.001031   0.373445   0.364947
    11  O   -0.000124   0.004258   0.002734  -0.026326  -0.037307
    12  H   -0.000339   0.000001  -0.000003  -0.000000  -0.000000
    13  H    0.770529   0.003159   0.001200   0.000000  -0.000020
    14  H    0.003159   0.769326  -0.065795   0.001650  -0.014892
    15  H    0.001200  -0.065795   0.819058  -0.008218   0.007968
    16  H    0.000000   0.001650  -0.008218   0.723568  -0.047104
    17  H   -0.000020  -0.014892   0.007968  -0.047104   0.731066
          Atomic-Atomic Spin Densities.
               1          2          3          4          5          6
     1  Br  -0.007746   0.011476  -0.002996   0.000357   0.000005  -0.000096
     2  C    0.011476  -0.160963   0.017035  -0.003402   0.000239   0.004166
     3  C   -0.002996   0.017035   0.501469  -0.207595   0.004634   0.002592
     4  C    0.000357  -0.003402  -0.207595   0.598863  -0.021201  -0.025523
     5  I    0.000005   0.000239   0.004634  -0.021201   0.011097  -0.002494
     6  C   -0.000096   0.004166   0.002592  -0.025523  -0.002494  -0.100539
     7  C    0.000366   0.003121   0.021753  -0.044228   0.000430   0.008935
     8  C   -0.002360  -0.015602  -0.037792   0.021231  -0.000406  -0.003409
     9  C    0.000012   0.000453   0.000004   0.000953   0.000163   0.005235
    10  C   -0.000001  -0.000110   0.000147  -0.002157  -0.000155   0.000199
    11  O   -0.000000  -0.000048  -0.000030   0.001971  -0.000006   0.012657
    12  H    0.000564  -0.001742   0.009187  -0.002532   0.000867  -0.000256
    13  H    0.000590  -0.001817  -0.000361  -0.000027  -0.000000  -0.000356
    14  H    0.000004   0.000094  -0.000119   0.000549   0.000008   0.001901
    15  H   -0.000005  -0.000235  -0.000203   0.000351  -0.000045  -0.004627
    16  H   -0.000000  -0.000005  -0.000004  -0.000022  -0.000048  -0.001410
    17  H    0.000000   0.000006  -0.000019   0.000266   0.000007  -0.000687
               7          8          9         10         11         12
     1  Br   0.000366  -0.002360   0.000012  -0.000001  -0.000000   0.000564
     2  C    0.003121  -0.015602   0.000453  -0.000110  -0.000048  -0.001742
     3  C    0.021753  -0.037792   0.000004   0.000147  -0.000030   0.009187
     4  C   -0.044228   0.021231   0.000953  -0.002157   0.001971  -0.002532
     5  I    0.000430  -0.000406   0.000163  -0.000155  -0.000006   0.000867
     6  C    0.008935  -0.003409   0.005235   0.000199   0.012657  -0.000256
     7  C    0.512129  -0.217724   0.007220   0.016909  -0.008186  -0.000079
     8  C   -0.217724   0.628821  -0.011434   0.000249   0.000354  -0.000242
     9  C    0.007220  -0.011434   0.020929  -0.012898   0.002913   0.000005
    10  C    0.016909   0.000249  -0.012898   0.012407  -0.005313  -0.000002
    11  O   -0.008186   0.000354   0.002913  -0.005313  -0.008092   0.000003
    12  H   -0.000079  -0.000242   0.000005  -0.000002   0.000003  -0.021750
    13  H   -0.003049   0.011929   0.000918  -0.000033   0.000004   0.000009
    14  H   -0.029459   0.003425   0.017770  -0.007692   0.000569   0.000001
    15  H   -0.015424   0.011782  -0.054527   0.006638  -0.000233  -0.000002
    16  H    0.001574   0.000121  -0.008843  -0.002149  -0.000508  -0.000000
    17  H   -0.002385   0.000095   0.002425  -0.000260   0.001384   0.000000
              13         14         15         16         17
     1  Br   0.000590   0.000004  -0.000005  -0.000000   0.000000
     2  C   -0.001817   0.000094  -0.000235  -0.000005   0.000006
     3  C   -0.000361  -0.000119  -0.000203  -0.000004  -0.000019
     4  C   -0.000027   0.000549   0.000351  -0.000022   0.000266
     5  I   -0.000000   0.000008  -0.000045  -0.000048   0.000007
     6  C   -0.000356   0.001901  -0.004627  -0.001410  -0.000687
     7  C   -0.003049  -0.029459  -0.015424   0.001574  -0.002385
     8  C    0.011929   0.003425   0.011782   0.000121   0.000095
     9  C    0.000918   0.017770  -0.054527  -0.008843   0.002425
    10  C   -0.000033  -0.007692   0.006638  -0.002149  -0.000260
    11  O    0.000004   0.000569  -0.000233  -0.000508   0.001384
    12  H    0.000009   0.000001  -0.000002  -0.000000   0.000000
    13  H   -0.027797   0.000156  -0.000180  -0.000002   0.000002
    14  H    0.000156   0.064058  -0.032738  -0.003251   0.001632
    15  H   -0.000180  -0.032738   0.116261   0.007838  -0.000957
    16  H   -0.000002  -0.003251   0.007838   0.011417  -0.001211
    17  H    0.000002   0.001632  -0.000957  -0.001211  -0.001651
 Mulliken charges and spin densities:
               1          2
     1  Br  -0.176800   0.000171
     2  C    0.009895  -0.147333
     3  C   -0.094703   0.307701
     4  C   -0.278697   0.317854
     5  I   -0.107601  -0.006905
     6  C    0.211400  -0.103711
     7  C   -0.172506   0.251904
     8  C   -0.161230   0.389038
     9  C    0.048243  -0.028701
    10  C    0.212952   0.005780
    11  O   -0.351177  -0.002562
    12  H   -0.047280  -0.015968
    13  H   -0.073932  -0.020014
    14  H   -0.011430   0.016907
    15  H   -0.012299   0.033696
    16  H   -0.001455   0.003495
    17  H    0.006620  -0.001353
 Sum of Mulliken charges =  -1.00000   1.00000
 Mulliken charges and spin densities with hydrogens summed into heavy atoms:
               1          2
     1  Br  -0.176800   0.000171
     2  C    0.009895  -0.147333
     3  C   -0.141983   0.291733
     4  C   -0.278697   0.317854
     5  I   -0.107601  -0.006905
     6  C    0.211400  -0.103711
     7  C   -0.172506   0.251904
     8  C   -0.235162   0.369024
     9  C    0.024514   0.021902
    10  C    0.218117   0.007922
    11  O   -0.351177  -0.002562
 Electronic spatial extent (au):  <R**2>=           3924.2416
 Charge=             -1.0000 electrons
 Dipole moment (field-independent basis, Debye):
    X=             -1.5261    Y=              0.2061    Z=              0.2226  Tot=              1.5559
 Quadrupole moment (field-independent basis, Debye-Ang):
   XX=           -124.2139   YY=           -105.6374   ZZ=           -103.9135
   XY=             -0.8474   XZ=             -0.1999   YZ=              0.7364
 Traceless Quadrupole moment (field-independent basis, Debye-Ang):
   XX=            -12.9590   YY=              5.6175   ZZ=              7.3415
   XY=             -0.8474   XZ=             -0.1999   YZ=              0.7364
 Octapole moment (field-independent basis, Debye-Ang**2):
  XXX=            -46.2203  YYY=            -90.6548  ZZZ=              0.8735  XYY=            -12.3959
  XXY=            -26.1877  XXZ=              0.3003  XZZ=             -9.1359  YZZ=            -28.4530
  YYZ=              2.9862  XYZ=             -0.3300
 Hexadecapole moment (field-independent basis, Debye-Ang**3):
 XXXX=          -3037.2153 YYYY=          -1943.8941 ZZZZ=           -141.2833 XXXY=             56.7985
 XXXZ=              2.9711 YYYX=             -3.4410 YYYZ=             11.0260 ZZZX=              2.1363
 ZZZY=              1.6352 XXYY=           -806.4362 XXZZ=           -523.8065 YYZZ=           -347.5281
 XXYZ=              0.3434 YYXZ=              2.0551 ZZXY=              1.3646
 N-N= 9.992234077179D+02 E-N=-9.692538382716D+03  KE= 3.064383205221D+03
 StAtR1:  DoIntr=F IAtCor=3 NETot=     122 Failed=F Sum=  2.80D+01 SumC=  0.00D+00
 There are a total of      412812 grid points.
 ElSum from          density=      122.9999883457
 ElSum from atomic densities=      149.9999153835

 Hirshfeld populations at iteration   1 (CX, CA, CB, DipXYZ):
               1          2          3          4          5          6
     1  Br   0.000000  17.571599  17.573405  -0.145632   0.073271  -0.001946
     2  C    0.000000   3.011053   3.020710   0.080562  -0.039920   0.001219
     3  C    0.000000   3.177684   2.970505  -0.030329   0.010613   0.000237
     4  C    0.000000   3.164425   2.941301  -0.051109  -0.047077   0.005039
     5  I    0.000000  12.607245  12.575464   0.128932   0.100687  -0.007323
     6  C    0.000000   2.985908   2.975295  -0.104811   0.063020  -0.007104
     7  C    0.000000   3.147927   2.957678   0.032167   0.057917  -0.019826
     8  C    0.000000   3.201517   2.957458  -0.026705   0.036594  -0.002122
     9  C    0.000000   3.045818   3.023954  -0.014619   0.006578   0.004951
    10  C    0.000000   2.986626   2.980943  -0.005632  -0.052228  -0.019096
    11  O    0.000000   4.083432   4.086636   0.164654   0.069249   0.023131
    12  H    0.000000   0.508657   0.491116   0.003680  -0.135855   0.003182
    13  H    0.000000   0.513127   0.491479   0.104289   0.087894  -0.002749
    14  H    0.000000   0.501888   0.488064   0.062496   0.068668   0.083498
    15  H    0.000000   0.511933   0.487691   0.022414   0.033674  -0.106383
    16  H    0.000000   0.490328   0.488238  -0.071260   0.080463  -0.079470
    17  H    0.000000   0.490827   0.490059  -0.024520   0.035672   0.124917
       Tot   0.000000  61.999993  60.999995   0.124578   0.449220   0.000155

 Dip from Atomic Chgs             -0.724946  -0.368098   0.087417
         Total Dipole             -0.600368   0.081122   0.087572

 Hirshfeld charges, spin densities, dipoles, and CM5 charges using IRadAn=      5:
              Q-H        S-H        Dx         Dy         Dz        Q-CM5   
     1  Br  -0.145004  -0.001807  -0.145632   0.073271  -0.001946  -0.129970
     2  C   -0.031763  -0.009657   0.080562  -0.039920   0.001219  -0.052786
     3  C   -0.148189   0.207179  -0.030329   0.010613   0.000237  -0.199460
     4  C   -0.105726   0.223124  -0.051109  -0.047077   0.005039  -0.130960
     5  I   -0.182709   0.031781   0.128932   0.100687  -0.007323  -0.153104
     6  C    0.038797   0.010614  -0.104811   0.063020  -0.007104   0.060843
     7  C   -0.105605   0.190249   0.032167   0.057917  -0.019826  -0.113881
     8  C   -0.158975   0.244059  -0.026705   0.036594  -0.002122  -0.208839
     9  C   -0.069771   0.021864  -0.014619   0.006578   0.004951  -0.167336
    10  C    0.032431   0.005682  -0.005632  -0.052228  -0.019096  -0.045874
    11  O   -0.170068  -0.003204   0.164654   0.069249   0.023131  -0.249885
    12  H    0.000227   0.017541   0.003680  -0.135855   0.003182   0.056845
    13  H   -0.004606   0.021649   0.104289   0.087894  -0.002749   0.051523
    14  H    0.010049   0.013824   0.062496   0.068668   0.083498   0.064244
    15  H    0.000376   0.024242   0.022414   0.033674  -0.106383   0.055086
    16  H    0.021434   0.002091  -0.071260   0.080463  -0.079470   0.082933
    17  H    0.019114   0.000767  -0.024520   0.035672   0.124917   0.080634
       Tot  -0.999988   0.999998   0.124578   0.449220   0.000155  -0.999988
 Hirshfeld charges and spin densities with hydrogens summed into heavy atoms:
              Q-H        S-H       Q-CM5   
     1  Br  -0.145004  -0.001807  -0.129970
     2  C   -0.031763  -0.009657  -0.052786
     3  C   -0.147962   0.224720  -0.142615
     4  C   -0.105726   0.223124  -0.130960
     5  I   -0.182709   0.031781  -0.153104
     6  C    0.038797   0.010614   0.060843
     7  C   -0.105605   0.190249  -0.113881
     8  C   -0.163581   0.265708  -0.157316
     9  C   -0.059347   0.059929  -0.048007
    10  C    0.072979   0.008540   0.117692
    11  O   -0.170068  -0.003204  -0.249885
 
 EQQ= 0.973228506208E-01 EQD=-0.282964312926E-01 EDD=-0.230870134610E-02
 EQQ+QD+DD= 0.667177179821E-01
 
                          Isotropic Fermi Contact Couplings
        Atom                 a.u.       MegaHertz       Gauss      10(-4) cm-1
     1  Br(79)            -0.00440      -4.94412      -1.76418      -1.64918
     2  C(13)             -0.04707     -52.91929     -18.88292     -17.65197
     3  C(13)              0.03964      44.56127      15.90057      14.86404
     4  C(13)              0.05864      65.92210      23.52264      21.98924
     5  I(127)            -0.00000      -0.00081      -0.00029      -0.00027
     6  C(13)             -0.03626     -40.76347     -14.54542     -13.59723
     7  C(13)              0.03410      38.33273      13.67807      12.78642
     8  C(13)              0.05066      56.94936      20.32095      18.99626
     9  C(13)             -0.01588     -17.85183      -6.36998      -5.95473
    10  C(13)              0.00107       1.20250       0.42908       0.40111
    11  O(17)             -0.00536       3.25182       1.16033       1.08469
    12  H(1)              -0.00443     -19.80295      -7.06618      -6.60555
    13  H(1)              -0.00534     -23.87030      -8.51752      -7.96228
    14  H(1)               0.00534      23.88003       8.52099       7.96552
    15  H(1)               0.00871      38.94888      13.89793      12.99195
    16  H(1)               0.00021       0.92541       0.33021       0.30868
    17  H(1)              -0.00013      -0.59963      -0.21396      -0.20002
 --------------------------------------------------------
       Center         ----  Spin Dipole Couplings  ----
                      3XX-RR        3YY-RR        3ZZ-RR
 --------------------------------------------------------
     1   Atom        0.054706      0.017824     -0.072530
     2   Atom        0.051986      0.062556     -0.114542
     3   Atom       -0.163106     -0.157338      0.320444
     4   Atom       -0.176293     -0.190567      0.366860
     5   Atom       -0.000005     -0.004189      0.004195
     6   Atom        0.030342      0.042647     -0.072989
     7   Atom       -0.159202     -0.157077      0.316279
     8   Atom       -0.186995     -0.196430      0.383426
     9   Atom       -0.002873      0.009226     -0.006353
    10   Atom        0.002187      0.000433     -0.002619
    11   Atom        0.017583      0.011091     -0.028674
    12   Atom       -0.024269      0.024552     -0.000283
    13   Atom        0.012347     -0.013516      0.001169
    14   Atom       -0.004082      0.007385     -0.003303
    15   Atom       -0.003798      0.007134     -0.003336
    16   Atom        0.001254      0.000432     -0.001686
    17   Atom        0.001081      0.000631     -0.001712
 --------------------------------------------------------
                        XY            XZ            YZ
 --------------------------------------------------------
     1   Atom       -0.028064     -0.003073      0.001119
     2   Atom        0.006643      0.000691     -0.004765
     3   Atom       -0.003129     -0.001309     -0.000338
     4   Atom        0.007914      0.031745      0.028917
     5   Atom        0.003918     -0.001945     -0.001029
     6   Atom        0.004909     -0.001943     -0.001293
     7   Atom       -0.003062     -0.003373      0.012668
     8   Atom        0.002752     -0.003479      0.008031
     9   Atom       -0.001418      0.000502      0.002146
    10   Atom       -0.005003     -0.001080     -0.000550
    11   Atom       -0.006069      0.001463      0.004910
    12   Atom       -0.002459      0.000020     -0.000384
    13   Atom        0.025639     -0.000417      0.000285
    14   Atom       -0.000735     -0.000618      0.001854
    15   Atom       -0.001706      0.001251     -0.003818
    16   Atom       -0.002471      0.000401     -0.000461
    17   Atom       -0.003179     -0.001783      0.001271
 --------------------------------------------------------


 ---------------------------------------------------------------------------------
              Anisotropic Spin Dipole Couplings in Principal Axis System
 ---------------------------------------------------------------------------------

       Atom             a.u.   MegaHertz   Gauss  10(-4) cm-1        Axes

              Baa    -0.0726    -9.739    -3.475    -3.249  0.0230 -0.0052  0.9997
     1 Br(79) Bbb     0.0027     0.360     0.129     0.120  0.4745  0.8802 -0.0063
              Bcc     0.0699     9.379     3.347     3.128  0.8800 -0.4745 -0.0227
 
              Baa    -0.1147   -15.388    -5.491    -5.133 -0.0052  0.0271  0.9996
     2 C(13)  Bbb     0.0488     6.552     2.338     2.186  0.9023 -0.4309  0.0164
              Bcc     0.0658     8.836     3.153     2.947  0.4312  0.9020 -0.0222
 
              Baa    -0.1645   -22.072    -7.876    -7.362  0.9159  0.4013  0.0028
     3 C(13)  Bbb    -0.1560   -20.929    -7.468    -6.981 -0.4013  0.9159 -0.0005
              Bcc     0.3204    43.001    15.344    14.344 -0.0027 -0.0007  1.0000
 
              Baa    -0.1945   -26.095    -9.311    -8.704 -0.3579  0.9334 -0.0278
     4 C(13)  Bbb    -0.1758   -23.588    -8.417    -7.868  0.9319  0.3551 -0.0734
              Bcc     0.3702    49.683    17.728    16.572  0.0587  0.0522  0.9969
 
              Baa    -0.0065    -0.703    -0.251    -0.235 -0.5167  0.8561 -0.0116
     5 I(127) Bbb     0.0009     0.095     0.034     0.032  0.7100  0.4361  0.5530
              Bcc     0.0057     0.608     0.217     0.203 -0.4784 -0.2775  0.8331
 
              Baa    -0.0730    -9.801    -3.497    -3.269  0.0183  0.0104  0.9998
     6 C(13)  Bbb     0.0286     3.844     1.372     1.282  0.9432 -0.3319 -0.0138
              Bcc     0.0444     5.957     2.126     1.987  0.3317  0.9432 -0.0159
 
              Baa    -0.1614   -21.662    -7.730    -7.226  0.8036  0.5951 -0.0101
     7 C(13)  Bbb    -0.1552   -20.828    -7.432    -6.948 -0.5951  0.8032 -0.0258
              Bcc     0.3166    42.490    15.162    14.173 -0.0073  0.0268  0.9996
 
              Baa    -0.1973   -26.476    -9.447    -8.832 -0.2626  0.9648 -0.0149
     8 C(13)  Bbb    -0.1863   -24.994    -8.918    -8.337  0.9649  0.2626  0.0022
              Bcc     0.3836    51.470    18.366    17.168 -0.0060  0.0138  0.9999
 
              Baa    -0.0068    -0.908    -0.324    -0.303 -0.1787 -0.1464  0.9730
     9 C(13)  Bbb    -0.0029    -0.388    -0.138    -0.129  0.9781  0.0805  0.1917
              Bcc     0.0097     1.296     0.463     0.432 -0.1064  0.9859  0.1288
 
              Baa    -0.0045    -0.598    -0.213    -0.199  0.5653  0.6375  0.5234
    10 C(13)  Bbb    -0.0020    -0.263    -0.094    -0.088 -0.3000 -0.4321  0.8504
              Bcc     0.0064     0.861     0.307     0.287  0.7684 -0.6378 -0.0530
 
              Baa    -0.0294     2.126     0.758     0.709 -0.0473 -0.1273  0.9907
    11 O(17)  Bbb     0.0081    -0.588    -0.210    -0.196  0.5204  0.8435  0.1333
              Bcc     0.0213    -1.538    -0.549    -0.513  0.8526 -0.5219 -0.0263
 
              Baa    -0.0244   -13.015    -4.644    -4.341  0.9987  0.0502 -0.0000
    12 H(1)   Bbb    -0.0003    -0.154    -0.055    -0.051 -0.0008  0.0154  0.9999
              Bcc     0.0247    13.169     4.699     4.393 -0.0502  0.9986 -0.0154
 
              Baa    -0.0293   -15.637    -5.580    -5.216 -0.5242  0.8514 -0.0151
    13 H(1)   Bbb     0.0012     0.627     0.224     0.209 -0.0014  0.0169  0.9999
              Bcc     0.0281    15.010     5.356     5.007  0.8516  0.5242 -0.0076
 
              Baa    -0.0044    -2.363    -0.843    -0.788  0.8569 -0.0274  0.5148
    14 H(1)   Bbb    -0.0033    -1.774    -0.633    -0.592 -0.5108 -0.1805  0.8405
              Bcc     0.0078     4.138     1.476     1.380 -0.0699  0.9832  0.1687
 
              Baa    -0.0050    -2.691    -0.960    -0.898 -0.5714  0.1715  0.8025
    15 H(1)   Bbb    -0.0037    -1.953    -0.697    -0.651  0.8051  0.3068  0.5077
              Bcc     0.0087     4.643     1.657     1.549 -0.1592  0.9362 -0.3134
 
              Baa    -0.0018    -0.967    -0.345    -0.323  0.2604  0.4608  0.8484
    16 H(1)   Bbb    -0.0016    -0.857    -0.306    -0.286  0.6003  0.6110 -0.5161
              Bcc     0.0034     1.825     0.651     0.609  0.7562 -0.6437  0.1176
 
              Baa    -0.0027    -1.420    -0.507    -0.474  0.6070  0.3023  0.7350
    17 H(1)   Bbb    -0.0021    -1.125    -0.402    -0.375  0.3720  0.7092 -0.5989
              Bcc     0.0048     2.545     0.908     0.849  0.7023 -0.6369 -0.3180
 

 ---------------------------------------------------------------------------------

 Running external command "gaunbo6 R"
         input file       "/home/rpaton/arbr500/dzvp/fukui/Gau-1929365.EIn"
         output file      "/home/rpaton/arbr500/dzvp/fukui/Gau-1929365.EOu"
         message file     "/home/rpaton/arbr500/dzvp/fukui/Gau-1929365.EMs"
         fchk file        "/home/rpaton/arbr500/dzvp/fukui/Gau-1929365.EFC"
         mat. el file     "/home/rpaton/arbr500/dzvp/fukui/Gau-1929365.EUF"

 Writing WrtUnf unformatted file "/home/rpaton/arbr500/dzvp/fukui/Gau-1929365.EUF"
 Gaussian matrix elements                                         Version   2 NLab=11 Len12L=8 Len4L=8
 Write SHELL TO ATOM MAP                   from file      0 offset           0 length                  94 to matrix element file.
 Write SHELL TYPES                         from file      0 offset           0 length                  94 to matrix element file.
 Write NUMBER OF PRIMITIVES PER SHELL      from file      0 offset           0 length                  94 to matrix element file.
 Write PRIMITIVE EXPONENTS                 from file      0 offset           0 length                 191 to matrix element file.
 Write CONTRACTION COEFFICIENTS            from file      0 offset           0 length                 191 to matrix element file.
 Write P(S=P) CONTRACTION COEFFICIENTS     from file      0 offset           0 length                 191 to matrix element file.
 Write COORDINATES OF EACH SHELL           from file      0 offset           0 length                 282 to matrix element file.
 Write BONDS PER ATOM                      from file      0 offset           0 length                  17 to matrix element file.
 Write BONDED ATOMS                        from file      0 offset           0 length                  36 to matrix element file.
 Write BOND TYPES                          from file      0 offset           0 length                  36 to matrix element file.
 Write ONIOM CHARGE/MULT                   from file      0 offset           0 length                  32 to matrix element file.
 Write ONIOM ATOM LAYERS                   from file      0 offset           0 length                  17 to matrix element file.
 Write ONIOM ATOM MODIFIERS                from file      0 offset           0 length                  17 to matrix element file.
 Write ONIOM ATOM TYPES                    from file      0 offset           0 length                  17 to matrix element file.
 Write ONIOM LINK ATOMS                    from file      0 offset           0 length                  17 to matrix element file.
 Write ONIOM LINK CHARGES                  from file      0 offset           0 length                  17 to matrix element file.
 Write ONIOM LINK DISTANCES                from file      0 offset           0 length                  68 to matrix element file.
 Write SYMINF INTS                         from file      0 offset           0 length                  26 to matrix element file.
 Write ROTTR TO SO                         from file      0 offset           0 length                  12 to matrix element file.
 Write GAUSSIAN SCALARS                    from file    501 offset           0 to matrix element file.
 Write OPTIMIZATION FLAGS                  from file      0 offset           0 length                  17 to matrix element file.
 Write INTEGER ISO                         from file      0 offset           0 length                  17 to matrix element file.
 Write INTEGER SPIN                        from file      0 offset           0 length                  17 to matrix element file.
 Write REAL ZEFFECTIVE                     from file      0 offset           0 length                  17 to matrix element file.
 Write REAL QUADRUPOLEMOMENT               from file      0 offset           0 length                  17 to matrix element file.
 Write REAL GFACTOR                        from file      0 offset           0 length                  17 to matrix element file.
 Write REAL ZNUCLEAR                       from file      0 offset           0 length                  17 to matrix element file.
 Write MULLIKEN CHARGES                    from file      0 offset           0 length                  17 to matrix element file.
 Write TYPE 6 CHARGES                      from file      0 offset           0 length                  17 to matrix element file.
 Write TYPE 7 CHARGES                      from file      0 offset           0 length                  17 to matrix element file.
 Write NUCLEAR GRADIENT                    from file  10584 offset           0 length                  51 to matrix element file.
 Array NUCLEAR FORCE CONSTANTS              on  file  10585 does not exist.
 Write ELECTRIC DIPOLE MOMENT              from file      0 offset           0 length                   3 to matrix element file.
 Write NON-ADIABATIC COUPLING              from file  10810 offset           0 length                  51 to matrix element file.
 Write FINITE EM FIELD                     from file  10521 offset           0 length                  35 to matrix element file.
 Write OVERLAP                             from file  10514 offset           0 length               23005 to matrix element file.
 Write CORE HAMILTONIAN ALPHA              from file  10515 offset           0 length               23005 to matrix element file.
 Write CORE HAMILTONIAN BETA               from file  10515 offset       23005 length               23005 to matrix element file.
 Write KINETIC ENERGY                      from file  10516 offset           0 length               23005 to matrix element file.
 Write ORTHOGONAL BASIS                    from file  10685 offset           0 length               45796 to matrix element file.
 Write DIPOLE INTEGRALS                    from file  10518 offset           0 length               69015 to matrix element file.
 Array DIP VEL INTEGRALS                    on  file  10572 does not exist.
 Array R X DEL INTEGRALS                    on  file  10572 does not exist.
 Write ALPHA ORBITAL ENERGIES              from file      0 offset           0 length                 214 to matrix element file.
 Write BETA ORBITAL ENERGIES               from file      0 offset           0 length                 214 to matrix element file.
 Write ALPHA MO COEFFICIENTS               from file  10524 offset           0 length               45796 to matrix element file.
 Write BETA MO COEFFICIENTS                from file  10526 offset           0 length               45796 to matrix element file.
 Write ALPHA DENSITY MATRIX                from file      0 offset           0 length               23005 to matrix element file.
 Write BETA DENSITY MATRIX                 from file      0 offset           0 length               23005 to matrix element file.
 Write ALPHA FOCK MATRIX                   from file  10536 offset           0 length               23005 to matrix element file.
 Write BETA FOCK MATRIX                    from file  10538 offset           0 length               23005 to matrix element file.
 Write ENERGY-WEIGHTED DENSITY             from file  10571 offset           0 length               23005 to matrix element file.
 Write ALPHA SCF DENSITY MATRIX            from file      0 offset           0 length               23005 to matrix element file.
 Write BETA SCF DENSITY MATRIX             from file      0 offset           0 length               23005 to matrix element file.
 No 2e integrals to process.
 Perform NBO analysis...

 *********************************** NBO 7.0 ***********************************
             N A T U R A L   A T O M I C   O R B I T A L   A N D
          N A T U R A L   B O N D   O R B I T A L   A N A L Y S I S
 **************************** Robert Paton (I101709) ***************************
  (c) Copyright 1996-2019 Board of Regents of the University of Wisconsin System
      on behalf of the Theoretical Chemistry Institute.  All rights reserved.

          Cite this program [NBO 7.0.5 (4-Jun-2019)] as:

          NBO 7.0.  E. D. Glendening, J. K. Badenhoop, A. E. Reed,
          J. E. Carpenter, J. A. Bohmann, C. M. Morales, P. Karafiloglou,
          C. R. Landis, and F. Weinhold, Theoretical Chemistry Institute,
          University of Wisconsin, Madison, WI (2018)

 Filename set to /home/rpaton/arbr500/dzvp/fukui/Gau-1929365

 Job title:  arbr48_wb97xd_redcreated by GaussianPrep


 NATURAL POPULATIONS:  Natural atomic orbital occupancies

  NAO Atom No lang   Type(AO)    Occupancy     Spin
 -----------------------------------------------------
   1   Br  1  s      Cor( 1s)     2.00000     0.00000
   2   Br  1  s      Cor( 2s)     2.00000     0.00000
   3   Br  1  s      Cor( 3s)     2.00000     0.00000
   4   Br  1  s      Val( 4s)     1.83965    -0.00014
   5   Br  1  s      Ryd( 5s)     0.00306    -0.00003
   6   Br  1  px     Cor( 2p)     2.00000     0.00000
   7   Br  1  px     Cor( 3p)     2.00000     0.00000
   8   Br  1  px     Val( 4p)     1.40028     0.00267
   9   Br  1  px     Ryd( 5p)     0.00239     0.00000
  10   Br  1  py     Cor( 2p)     2.00000     0.00000
  11   Br  1  py     Cor( 3p)     2.00000     0.00000
  12   Br  1  py     Val( 4p)     1.81563     0.00047
  13   Br  1  py     Ryd( 5p)     0.00150    -0.00001
  14   Br  1  pz     Cor( 2p)     2.00000     0.00000
  15   Br  1  pz     Cor( 3p)     2.00000     0.00000
  16   Br  1  pz     Val( 4p)     1.95990    -0.00459
  17   Br  1  pz     Ryd( 5p)     0.00110    -0.00015
  18   Br  1  dxy    Cor( 3d)     1.99999     0.00000
  19   Br  1  dxy    Ryd( 4d)     0.00380     0.00001
  20   Br  1  dxy    Ryd( 5d)     0.00000     0.00000
  21   Br  1  dxz    Cor( 3d)     2.00000     0.00000
  22   Br  1  dxz    Ryd( 4d)     0.00257    -0.00011
  23   Br  1  dxz    Ryd( 5d)     0.00000     0.00000
  24   Br  1  dyz    Cor( 3d)     2.00000     0.00000
  25   Br  1  dyz    Ryd( 4d)     0.00093     0.00012
  26   Br  1  dyz    Ryd( 5d)     0.00001     0.00000
  27   Br  1  dx2y2  Cor( 3d)     2.00000     0.00000
  28   Br  1  dx2y2  Ryd( 4d)     0.00219     0.00000
  29   Br  1  dx2y2  Ryd( 5d)     0.00000     0.00000
  30   Br  1  dz2    Cor( 3d)     2.00000     0.00000
  31   Br  1  dz2    Ryd( 4d)     0.00167     0.00000
  32   Br  1  dz2    Ryd( 5d)     0.00000     0.00000

  33    C  2  s      Cor( 1s)     1.99997     0.00000
  34    C  2  s      Val( 2s)     0.91384    -0.00817
  35    C  2  s      Ryd( 3s)     0.00069     0.00001
  36    C  2  px     Val( 2p)     0.96719    -0.00506
  37    C  2  px     Ryd( 3p)     0.00666     0.00010
  38    C  2  py     Val( 2p)     1.07270    -0.00813
  39    C  2  py     Ryd( 3p)     0.00576     0.00000
  40    C  2  pz     Val( 2p)     1.12004    -0.07827
  41    C  2  pz     Ryd( 3p)     0.00098     0.00007
  42    C  2  dxy    Ryd( 3d)     0.00173    -0.00001
  43    C  2  dxz    Ryd( 3d)     0.00091     0.00023
  44    C  2  dyz    Ryd( 3d)     0.00157     0.00082
  45    C  2  dx2y2  Ryd( 3d)     0.00131    -0.00001
  46    C  2  dz2    Ryd( 3d)     0.00093     0.00004

  47    C  3  s      Cor( 1s)     1.99995     0.00000
  48    C  3  s      Val( 2s)     0.90951     0.00900
  49    C  3  s      Ryd( 3s)     0.00134     0.00004
  50    C  3  px     Val( 2p)     1.07384     0.00225
  51    C  3  px     Ryd( 3p)     0.00537     0.00001
  52    C  3  py     Val( 2p)     1.19577     0.00554
  53    C  3  py     Ryd( 3p)     0.00741     0.00010
  54    C  3  pz     Val( 2p)     1.17969     0.25232
  55    C  3  pz     Ryd( 3p)     0.01054     0.00949
  56    C  3  dxy    Ryd( 3d)     0.00092    -0.00001
  57    C  3  dxz    Ryd( 3d)     0.00080     0.00021
  58    C  3  dyz    Ryd( 3d)     0.00034    -0.00005
  59    C  3  dx2y2  Ryd( 3d)     0.00064     0.00001
  60    C  3  dz2    Ryd( 3d)     0.00077    -0.00017

  61    C  4  s      Cor( 1s)     1.99996     0.00000
  62    C  4  s      Val( 2s)     0.91113     0.01249
  63    C  4  s      Ryd( 3s)     0.00101     0.00004
  64    C  4  px     Val( 2p)     1.02495     0.00981
  65    C  4  px     Ryd( 3p)     0.00708     0.00002
  66    C  4  py     Val( 2p)     1.05620     0.00741
  67    C  4  py     Ryd( 3p)     0.00633     0.00005
  68    C  4  pz     Val( 2p)     1.34516     0.25886
  69    C  4  pz     Ryd( 3p)     0.00632     0.00500
  70    C  4  dxy    Ryd( 3d)     0.00101     0.00000
  71    C  4  dxz    Ryd( 3d)     0.00080     0.00021
  72    C  4  dyz    Ryd( 3d)     0.00063     0.00002
  73    C  4  dx2y2  Ryd( 3d)     0.00108     0.00000
  74    C  4  dz2    Ryd( 3d)     0.00075    -0.00017

  75    I  5  s      Cor( 4s)     2.00000     0.00000
  76    I  5  s      Val( 5s)     1.86826     0.00072
  77    I  5  s      Ryd( 6s)     0.00489     0.00015
  78    I  5  s      Ryd( 7s)     0.00000     0.00000
  79    I  5  px     Cor( 4p)     2.00000     0.00000
  80    I  5  px     Val( 5p)     1.36414    -0.01316
  81    I  5  px     Ryd( 6p)     0.00377     0.00010
  82    I  5  px     Ryd( 7p)     0.00000     0.00000
  83    I  5  py     Cor( 4p)     2.00000     0.00000
  84    I  5  py     Val( 5p)     1.73727    -0.00551
  85    I  5  py     Ryd( 6p)     0.00210     0.00002
  86    I  5  py     Ryd( 7p)     0.00000     0.00000
  87    I  5  pz     Cor( 4p)     2.00000     0.00000
  88    I  5  pz     Val( 5p)     1.97788     0.01054
  89    I  5  pz     Ryd( 6p)     0.00256     0.00106
  90    I  5  pz     Ryd( 7p)     0.00000     0.00000
  91    I  5  dxy    Cor( 4d)     1.99997     0.00000
  92    I  5  dxy    Ryd( 5d)     0.00239    -0.00001
  93    I  5  dxz    Cor( 4d)     2.00000     0.00000
  94    I  5  dxz    Ryd( 5d)     0.00321     0.00139
  95    I  5  dyz    Cor( 4d)     2.00000     0.00000
  96    I  5  dyz    Ryd( 5d)     0.00176     0.00117
  97    I  5  dx2y2  Cor( 4d)     1.99999     0.00000
  98    I  5  dx2y2  Ryd( 5d)     0.00098     0.00000
  99    I  5  dz2    Cor( 4d)     1.99999     0.00000
 100    I  5  dz2    Ryd( 5d)     0.00108     0.00001

 101    C  6  s      Cor( 1s)     1.99995     0.00000
 102    C  6  s      Val( 2s)     0.78968    -0.00601
 103    C  6  s      Ryd( 3s)     0.00340     0.00002
 104    C  6  px     Val( 2p)     0.84234    -0.00401
 105    C  6  px     Ryd( 3p)     0.01171     0.00012
 106    C  6  py     Val( 2p)     1.03025    -0.00638
 107    C  6  py     Ryd( 3p)     0.00369    -0.00002
 108    C  6  pz     Val( 2p)     0.96594    -0.04676
 109    C  6  pz     Ryd( 3p)     0.00197     0.00036
 110    C  6  dxy    Ryd( 3d)     0.00188     0.00000
 111    C  6  dxz    Ryd( 3d)     0.00197     0.00031
 112    C  6  dyz    Ryd( 3d)     0.00216     0.00085
 113    C  6  dx2y2  Ryd( 3d)     0.00174    -0.00001
 114    C  6  dz2    Ryd( 3d)     0.00095     0.00002

 115    C  7  s      Cor( 1s)     1.99996     0.00000
 116    C  7  s      Val( 2s)     0.83024     0.00771
 117    C  7  s      Ryd( 3s)     0.00186     0.00023
 118    C  7  px     Val( 2p)     1.10223     0.00162
 119    C  7  px     Ryd( 3p)     0.00390     0.00008
 120    C  7  py     Val( 2p)     1.02737     0.00554
 121    C  7  py     Ryd( 3p)     0.00427     0.00009
 122    C  7  pz     Val( 2p)     1.22797     0.21459
 123    C  7  pz     Ryd( 3p)     0.00631     0.00369
 124    C  7  dxy    Ryd( 3d)     0.00095     0.00000
 125    C  7  dxz    Ryd( 3d)     0.00111     0.00053
 126    C  7  dyz    Ryd( 3d)     0.00052    -0.00002
 127    C  7  dx2y2  Ryd( 3d)     0.00067     0.00000
 128    C  7  dz2    Ryd( 3d)     0.00066    -0.00014

 129    C  8  s      Cor( 1s)     1.99995     0.00000
 130    C  8  s      Val( 2s)     0.89978     0.01143
 131    C  8  s      Ryd( 3s)     0.00130     0.00003
 132    C  8  px     Val( 2p)     1.15558     0.00474
 133    C  8  px     Ryd( 3p)     0.00612    -0.00002
 134    C  8  py     Val( 2p)     1.09881     0.00678
 135    C  8  py     Ryd( 3p)     0.00504     0.00008
 136    C  8  pz     Val( 2p)     1.21834     0.30697
 137    C  8  pz     Ryd( 3p)     0.01205     0.01089
 138    C  8  dxy    Ryd( 3d)     0.00070    -0.00001
 139    C  8  dxz    Ryd( 3d)     0.00057     0.00004
 140    C  8  dyz    Ryd( 3d)     0.00052     0.00004
 141    C  8  dx2y2  Ryd( 3d)     0.00084     0.00001
 142    C  8  dz2    Ryd( 3d)     0.00072    -0.00019

 143    C  9  s      Cor( 1s)     1.99994     0.00000
 144    C  9  s      Val( 2s)     1.02161    -0.00262
 145    C  9  s      Ryd( 3s)     0.00067     0.00000
 146    C  9  px     Val( 2p)     1.07042    -0.00171
 147    C  9  px     Ryd( 3p)     0.00301     0.00005
 148    C  9  py     Val( 2p)     1.14119    -0.00681
 149    C  9  py     Ryd( 3p)     0.00185     0.00002
 150    C  9  pz     Val( 2p)     1.21310    -0.00405
 151    C  9  pz     Ryd( 3p)     0.00258     0.00020
 152    C  9  dxy    Ryd( 3d)     0.00043     0.00000
 153    C  9  dxz    Ryd( 3d)     0.00045     0.00000
 154    C  9  dyz    Ryd( 3d)     0.00127     0.00039
 155    C  9  dx2y2  Ryd( 3d)     0.00081    -0.00001
 156    C  9  dz2    Ryd( 3d)     0.00077     0.00000

 157    C 10  s      Cor( 1s)     1.99994     0.00000
 158    C 10  s      Val( 2s)     1.01100     0.00016
 159    C 10  s      Ryd( 3s)     0.00117     0.00003
 160    C 10  px     Val( 2p)     1.05456     0.00018
 161    C 10  px     Ryd( 3p)     0.00398     0.00002
 162    C 10  py     Val( 2p)     0.77712     0.00093
 163    C 10  py     Ryd( 3p)     0.00445     0.00019
 164    C 10  pz     Val( 2p)     1.18091     0.00057
 165    C 10  pz     Ryd( 3p)     0.00158    -0.00003
 166    C 10  dxy    Ryd( 3d)     0.00142    -0.00001
 167    C 10  dxz    Ryd( 3d)     0.00069     0.00001
 168    C 10  dyz    Ryd( 3d)     0.00151     0.00000
 169    C 10  dx2y2  Ryd( 3d)     0.00161     0.00000
 170    C 10  dz2    Ryd( 3d)     0.00126     0.00000

 171    O 11  s      Cor( 1s)     1.99995     0.00000
 172    O 11  s      Val( 2s)     1.58004    -0.00020
 173    O 11  s      Ryd( 3s)     0.00034     0.00002
 174    O 11  px     Val( 2p)     1.72214     0.00043
 175    O 11  px     Ryd( 3p)     0.00202     0.00000
 176    O 11  py     Val( 2p)     1.41076     0.00010
 177    O 11  py     Ryd( 3p)     0.00085     0.00000
 178    O 11  pz     Val( 2p)     1.85085    -0.00397
 179    O 11  pz     Ryd( 3p)     0.00192    -0.00009
 180    O 11  dxy    Ryd( 3d)     0.00169     0.00000
 181    O 11  dxz    Ryd( 3d)     0.00136     0.00001
 182    O 11  dyz    Ryd( 3d)     0.00030    -0.00001
 183    O 11  dx2y2  Ryd( 3d)     0.00130     0.00000
 184    O 11  dz2    Ryd( 3d)     0.00092     0.00000

 185    H 12  s      Val( 1s)     0.77323    -0.00897
 186    H 12  s      Ryd( 2s)     0.00188     0.00002
 187    H 12  px     Ryd( 2p)     0.00006     0.00000
 188    H 12  py     Ryd( 2p)     0.00092    -0.00002
 189    H 12  pz     Ryd( 2p)     0.00032     0.00012

 190    H 13  s      Val( 1s)     0.78789    -0.01121
 191    H 13  s      Ryd( 2s)     0.00177    -0.00002
 192    H 13  px     Ryd( 2p)     0.00068    -0.00001
 193    H 13  py     Ryd( 2p)     0.00024    -0.00001
 194    H 13  pz     Ryd( 2p)     0.00037     0.00020

 195    H 14  s      Val( 1s)     0.79056     0.01600
 196    H 14  s      Ryd( 2s)     0.00443     0.00274
 197    H 14  px     Ryd( 2p)     0.00032     0.00001
 198    H 14  py     Ryd( 2p)     0.00029    -0.00001
 199    H 14  pz     Ryd( 2p)     0.00049     0.00000

 200    H 15  s      Val( 1s)     0.80474     0.02786
 201    H 15  s      Ryd( 2s)     0.00864     0.00561
 202    H 15  px     Ryd( 2p)     0.00012     0.00000
 203    H 15  py     Ryd( 2p)     0.00016     0.00000
 204    H 15  pz     Ryd( 2p)     0.00084     0.00001

 205    H 16  s      Val( 1s)     0.81024     0.00145
 206    H 16  s      Ryd( 2s)     0.00269     0.00114
 207    H 16  px     Ryd( 2p)     0.00040     0.00000
 208    H 16  py     Ryd( 2p)     0.00032     0.00000
 209    H 16  pz     Ryd( 2p)     0.00047     0.00000

 210    H 17  s      Val( 1s)     0.81568    -0.00070
 211    H 17  s      Ryd( 2s)     0.00283    -0.00003
 212    H 17  px     Ryd( 2p)     0.00014     0.00000
 213    H 17  py     Ryd( 2p)     0.00009     0.00000
 214    H 17  pz     Ryd( 2p)     0.00099     0.00000

 [28 electrons found in the effective core potential]


 Summary of Natural Population Analysis:

                                     Natural Population                 Natural
             Natural    ---------------------------------------------    Spin
  Atom No    Charge        Core      Valence    Rydberg      Total      Density
 -------------------------------------------------------------------------------
   Br  1   -0.03466     27.99997     7.01545    0.01924    35.03466    -0.00176
    C  2   -0.09428      1.99997     4.07377    0.02054     6.09428    -0.09838
    C  3   -0.38690      1.99995     4.35881    0.02814     6.38690     0.27873
    C  4   -0.36239      1.99996     4.33744    0.02500     6.36239     0.29376
    I  5    0.02976     45.99994     6.94756    0.02274    52.97024    -0.00352
    C  6    0.34238      1.99995     3.62821    0.02946     5.65762    -0.06152
    C  7   -0.20801      1.99996     4.18781    0.02024     6.20801     0.23391
    C  8   -0.40030      1.99995     4.37250    0.02785     6.40030     0.34080
    C  9   -0.45811      1.99994     4.44633    0.01185     6.45811    -0.01456
    C 10   -0.04121      1.99994     4.02359    0.01768     6.04121     0.00205
    O 11   -0.57447      1.99995     6.56380    0.01072     8.57447    -0.00370
    H 12    0.22359      0.00000     0.77323    0.00318     0.77641    -0.00885
    H 13    0.20904      0.00000     0.78789    0.00307     0.79096    -0.01105
    H 14    0.20391      0.00000     0.79056    0.00553     0.79609     0.01875
    H 15    0.18551      0.00000     0.80474    0.00976     0.81449     0.03349
    H 16    0.18587      0.00000     0.81024    0.00388     0.81413     0.00260
    H 17    0.18027      0.00000     0.81568    0.00405     0.81973    -0.00073
 ===============================================================================
 * Total * -1.00000     91.99948    58.73761    0.26291   151.00000     1.00000

                                 Natural Population
 ---------------------------------------------------------
   Effective Core            28.00000
   Core                      63.99948 ( 99.9992% of   64)
   Valence                   58.73761 ( 99.5553% of   59)
   Natural Minimal Basis    150.73709 ( 99.8259% of  151)
   Natural Rydberg Basis      0.26291 (  0.1741% of  151)
 ---------------------------------------------------------

    Atom No         Natural Electron Configuration
 ----------------------------------------------------------------------------
     Br  1      [core]4s( 1.84)4p( 5.18)4d( 0.01)
      C  2      [core]2s( 0.91)2p( 3.16)3p( 0.01)3d( 0.01)
      C  3      [core]2s( 0.91)2p( 3.45)3p( 0.02)
      C  4      [core]2s( 0.91)2p( 3.43)3p( 0.02)
      I  5      [core]5s( 1.87)5p( 5.08)5d( 0.01)6p( 0.01)
      C  6      [core]2s( 0.79)2p( 2.84)3p( 0.02)3d( 0.01)
      C  7      [core]2s( 0.83)2p( 3.36)3p( 0.01)
      C  8      [core]2s( 0.90)2p( 3.47)3p( 0.02)
      C  9      [core]2s( 1.02)2p( 3.42)3p( 0.01)
      C 10      [core]2s( 1.01)2p( 3.01)3p( 0.01)3d( 0.01)
      O 11      [core]2s( 1.58)2p( 4.98)3d( 0.01)
      H 12            1s( 0.77)
      H 13            1s( 0.79)
      H 14            1s( 0.79)
      H 15            1s( 0.80)2s( 0.01)
      H 16            1s( 0.81)
      H 17            1s( 0.82)


 ***************************************************
 *******         Alpha spin orbitals         *******
 ***************************************************


 NATURAL POPULATIONS:  Natural atomic orbital occupancies

  NAO Atom No lang   Type(AO)    Occupancy      Energy
 -------------------------------------------------------
   1   Br  1  s      Cor( 1s)     1.00000    -400.64193
   2   Br  1  s      Cor( 2s)     1.00000    -128.76395
   3   Br  1  s      Cor( 3s)     1.00000     -24.65846
   4   Br  1  s      Val( 4s)     0.91975      -0.60804
   5   Br  1  s      Ryd( 5s)     0.00152       0.69727
   6   Br  1  px     Cor( 2p)     1.00000     -36.96780
   7   Br  1  px     Cor( 3p)     1.00000     -25.81512
   8   Br  1  px     Val( 4p)     0.70147      -0.13657
   9   Br  1  px     Ryd( 5p)     0.00119       0.87878
  10   Br  1  py     Cor( 2p)     1.00000     -36.96338
  11   Br  1  py     Cor( 3p)     1.00000     -25.81114
  12   Br  1  py     Val( 4p)     0.90805      -0.19809
  13   Br  1  py     Ryd( 5p)     0.00074       0.89349
  14   Br  1  pz     Cor( 2p)     1.00000     -36.96163
  15   Br  1  pz     Cor( 3p)     1.00000     -25.80954
  16   Br  1  pz     Val( 4p)     0.97766      -0.22013
  17   Br  1  pz     Ryd( 5p)     0.00048       0.87137
  18   Br  1  dxy    Cor( 3d)     1.00000      -2.58707
  19   Br  1  dxy    Ryd( 4d)     0.00191       1.13092
  20   Br  1  dxy    Ryd( 5d)     0.00000       3.92849
  21   Br  1  dxz    Cor( 3d)     1.00000      -2.58478
  22   Br  1  dxz    Ryd( 4d)     0.00123       0.87114
  23   Br  1  dxz    Ryd( 5d)     0.00000       3.70726
  24   Br  1  dyz    Cor( 3d)     1.00000      -2.57950
  25   Br  1  dyz    Ryd( 4d)     0.00052       0.81943
  26   Br  1  dyz    Ryd( 5d)     0.00000       3.65989
  27   Br  1  dx2y2  Cor( 3d)     1.00000      -2.58697
  28   Br  1  dx2y2  Ryd( 4d)     0.00109       1.10988
  29   Br  1  dx2y2  Ryd( 5d)     0.00000       3.88829
  30   Br  1  dz2    Cor( 3d)     1.00000      -2.58066
  31   Br  1  dz2    Ryd( 4d)     0.00083       0.92821
  32   Br  1  dz2    Ryd( 5d)     0.00000       3.76755

  33    C  2  s      Cor( 1s)     0.99998     -10.17940
  34    C  2  s      Val( 2s)     0.45283       0.05845
  35    C  2  s      Ryd( 3s)     0.00035       0.81361
  36    C  2  px     Val( 2p)     0.48107       0.07942
  37    C  2  px     Ryd( 3p)     0.00338       1.16930
  38    C  2  py     Val( 2p)     0.53229       0.11325
  39    C  2  py     Ryd( 3p)     0.00288       1.04666
  40    C  2  pz     Val( 2p)     0.52088       0.03653
  41    C  2  pz     Ryd( 3p)     0.00053       0.83660
  42    C  2  dxy    Ryd( 3d)     0.00086       2.54496
  43    C  2  dxz    Ryd( 3d)     0.00057       2.08798
  44    C  2  dyz    Ryd( 3d)     0.00119       2.15635
  45    C  2  dx2y2  Ryd( 3d)     0.00065       2.59751
  46    C  2  dz2    Ryd( 3d)     0.00049       2.38902

  47    C  3  s      Cor( 1s)     0.99998     -10.12190
  48    C  3  s      Val( 2s)     0.45925       0.11487
  49    C  3  s      Ryd( 3s)     0.00069       0.81001
  50    C  3  px     Val( 2p)     0.53804       0.14349
  51    C  3  px     Ryd( 3p)     0.00269       0.90647
  52    C  3  py     Val( 2p)     0.60065       0.09746
  53    C  3  py     Ryd( 3p)     0.00376       1.29051
  54    C  3  pz     Val( 2p)     0.71601       0.00310
  55    C  3  pz     Ryd( 3p)     0.01002       0.80622
  56    C  3  dxy    Ryd( 3d)     0.00045       2.65474
  57    C  3  dxz    Ryd( 3d)     0.00051       2.17235
  58    C  3  dyz    Ryd( 3d)     0.00014       2.13954
  59    C  3  dx2y2  Ryd( 3d)     0.00032       2.70709
  60    C  3  dz2    Ryd( 3d)     0.00030       2.44472

  61    C  4  s      Cor( 1s)     0.99998     -10.14797
  62    C  4  s      Val( 2s)     0.46181       0.06024
  63    C  4  s      Ryd( 3s)     0.00052       0.76322
  64    C  4  px     Val( 2p)     0.51738       0.07360
  65    C  4  px     Ryd( 3p)     0.00355       1.35542
  66    C  4  py     Val( 2p)     0.53181       0.10451
  67    C  4  py     Ryd( 3p)     0.00319       1.07117
  68    C  4  pz     Val( 2p)     0.80201      -0.04212
  69    C  4  pz     Ryd( 3p)     0.00566       0.83829
  70    C  4  dxy    Ryd( 3d)     0.00050       2.52273
  71    C  4  dxz    Ryd( 3d)     0.00051       2.09432
  72    C  4  dyz    Ryd( 3d)     0.00033       2.16865
  73    C  4  dx2y2  Ryd( 3d)     0.00054       2.64736
  74    C  4  dz2    Ryd( 3d)     0.00029       2.40768

  75    I  5  s      Cor( 4s)     1.00000      -6.80696
  76    I  5  s      Val( 5s)     0.93449      -0.55027
  77    I  5  s      Ryd( 6s)     0.00252       1.07359
  78    I  5  s      Ryd( 7s)     0.00000      55.74655
  79    I  5  px     Cor( 4p)     1.00000      -4.82442
  80    I  5  px     Val( 5p)     0.67549      -0.09684
  81    I  5  px     Ryd( 6p)     0.00194       0.65906
  82    I  5  px     Ryd( 7p)     0.00000      19.48716
  83    I  5  py     Cor( 4p)     1.00000      -4.81882
  84    I  5  py     Val( 5p)     0.86588      -0.15206
  85    I  5  py     Ryd( 6p)     0.00106       0.68012
  86    I  5  py     Ryd( 7p)     0.00000      19.26108
  87    I  5  pz     Cor( 4p)     1.00000      -4.81467
  88    I  5  pz     Val( 5p)     0.99421      -0.18826
  89    I  5  pz     Ryd( 6p)     0.00181       0.64011
  90    I  5  pz     Ryd( 7p)     0.00000      18.92846
  91    I  5  dxy    Cor( 4d)     0.99999      -1.85840
  92    I  5  dxy    Ryd( 5d)     0.00119       1.05783
  93    I  5  dxz    Cor( 4d)     1.00000      -1.85451
  94    I  5  dxz    Ryd( 5d)     0.00230       0.76576
  95    I  5  dyz    Cor( 4d)     1.00000      -1.84975
  96    I  5  dyz    Ryd( 5d)     0.00147       0.70204
  97    I  5  dx2y2  Cor( 4d)     0.99999      -1.85820
  98    I  5  dx2y2  Ryd( 5d)     0.00049       1.01761
  99    I  5  dz2    Cor( 4d)     0.99999      -1.85036
 100    I  5  dz2    Ryd( 5d)     0.00054       0.81216

 101    C  6  s      Cor( 1s)     0.99998     -10.19192
 102    C  6  s      Val( 2s)     0.39184       0.16294
 103    C  6  s      Ryd( 3s)     0.00171       0.88313
 104    C  6  px     Val( 2p)     0.41916       0.18511
 105    C  6  px     Ryd( 3p)     0.00591       1.05198
 106    C  6  py     Val( 2p)     0.51193       0.14745
 107    C  6  py     Ryd( 3p)     0.00184       1.18809
 108    C  6  pz     Val( 2p)     0.45959       0.06536
 109    C  6  pz     Ryd( 3p)     0.00117       0.84452
 110    C  6  dxy    Ryd( 3d)     0.00094       2.68204
 111    C  6  dxz    Ryd( 3d)     0.00114       2.15085
 112    C  6  dyz    Ryd( 3d)     0.00150       2.15426
 113    C  6  dx2y2  Ryd( 3d)     0.00086       2.65222
 114    C  6  dz2    Ryd( 3d)     0.00048       2.41801

 115    C  7  s      Cor( 1s)     0.99998     -10.11241
 116    C  7  s      Val( 2s)     0.41898       0.15829
 117    C  7  s      Ryd( 3s)     0.00104       0.82469
 118    C  7  px     Val( 2p)     0.55192       0.14720
 119    C  7  px     Ryd( 3p)     0.00199       1.17397
 120    C  7  py     Val( 2p)     0.51645       0.14234
 121    C  7  py     Ryd( 3p)     0.00218       1.34564
 122    C  7  pz     Val( 2p)     0.72128       0.01168
 123    C  7  pz     Ryd( 3p)     0.00500       0.88996
 124    C  7  dxy    Ryd( 3d)     0.00047       2.76201
 125    C  7  dxz    Ryd( 3d)     0.00082       2.21814
 126    C  7  dyz    Ryd( 3d)     0.00025       2.19036
 127    C  7  dx2y2  Ryd( 3d)     0.00033       2.65476
 128    C  7  dz2    Ryd( 3d)     0.00026       2.46213

 129    C  8  s      Cor( 1s)     0.99997     -10.11320
 130    C  8  s      Val( 2s)     0.45560       0.13098
 131    C  8  s      Ryd( 3s)     0.00067       0.78752
 132    C  8  px     Val( 2p)     0.58016       0.12806
 133    C  8  px     Ryd( 3p)     0.00305       1.17354
 134    C  8  py     Val( 2p)     0.55280       0.13715
 135    C  8  py     Ryd( 3p)     0.00256       1.01345
 136    C  8  pz     Val( 2p)     0.76266      -0.00506
 137    C  8  pz     Ryd( 3p)     0.01147       0.81060
 138    C  8  dxy    Ryd( 3d)     0.00035       2.73028
 139    C  8  dxz    Ryd( 3d)     0.00030       2.18882
 140    C  8  dyz    Ryd( 3d)     0.00028       2.17893
 141    C  8  dx2y2  Ryd( 3d)     0.00042       2.70741
 142    C  8  dz2    Ryd( 3d)     0.00027       2.46586

 143    C  9  s      Cor( 1s)     0.99997     -10.16961
 144    C  9  s      Val( 2s)     0.50949      -0.01013
 145    C  9  s      Ryd( 3s)     0.00033       1.16698
 146    C  9  px     Val( 2p)     0.53435       0.06076
 147    C  9  px     Ryd( 3p)     0.00153       0.79690
 148    C  9  py     Val( 2p)     0.56719       0.07005
 149    C  9  py     Ryd( 3p)     0.00094       0.72962
[...]
   55. BD ( 1) C  8- H 13      71. BD*( 1) C  6- C  7      2.19    1.22   0.065
   55. BD ( 1) C  8- H 13      73. BD*( 1) C  7- C  8      0.68    1.27   0.037
   55. BD ( 1) C  8- H 13      97. RY ( 1) C  2            0.53    1.73   0.038
   55. BD ( 1) C  8- H 13     146. RY ( 1) C  7            0.33    1.71   0.030
   56. BD ( 1) C  9- C 10      69. BD*( 1) C  4- C  6      0.33    1.33   0.027
   56. BD ( 1) C  9- C 10      73. BD*( 1) C  7- C  8      2.34    1.37   0.072
   56. BD ( 1) C  9- C 10      75. BD*( 1) C  7- C  9      0.60    1.17   0.033
   56. BD ( 1) C  9- C 10     147. RY ( 2) C  7            0.39    1.65   0.032
   57. BD ( 1) C  9- H 14      71. BD*( 1) C  6- C  7      0.76    1.25   0.039
   57. BD ( 1) C  9- H 14      74. BD*( 2) C  7- C  8      1.29    0.72   0.039
   57. BD ( 1) C  9- H 14      75. BD*( 1) C  7- C  9      0.31    1.10   0.023
   57. BD ( 1) C  9- H 14      80. BD*( 1) C 10- O 11      1.26    0.92   0.043
   57. BD ( 1) C  9- H 14      82. BD*( 1) C 10- H 17      0.32    1.08   0.023
   57. BD ( 1) C  9- H 14     148. RY ( 3) C  7            0.55    1.71   0.039
   58. BD ( 1) C  9- H 15      71. BD*( 1) C  6- C  7      0.28    1.25   0.024
   58. BD ( 1) C  9- H 15      74. BD*( 2) C  7- C  8      2.59    0.72   0.054
   58. BD ( 1) C  9- H 15      75. BD*( 1) C  7- C  9      0.37    1.09   0.025
   58. BD ( 1) C  9- H 15      81. BD*( 1) C 10- H 16      0.34    1.08   0.024
   58. BD ( 1) C  9- H 15      82. BD*( 1) C 10- H 17      1.05    1.07   0.042
   58. BD ( 1) C  9- H 15     147. RY ( 2) C  7            0.69    1.57   0.042
   58. BD ( 1) C  9- H 15     174. RY ( 2) C 10            0.27    1.45   0.025
   59. BD ( 1) C 10- O 11      69. BD*( 1) C  4- C  6      2.39    1.51   0.076
   59. BD ( 1) C 10- O 11      78. BD*( 1) C  9- H 14      0.46    1.34   0.031
   59. BD ( 1) C 10- O 11     138. RY ( 2) C  6            0.95    2.03   0.055
   60. BD ( 1) C 10- H 16      72. BD*( 1) C  6- O 11      0.95    1.09   0.041
   60. BD ( 1) C 10- H 16      75. BD*( 1) C  7- C  9      0.59    1.13   0.033
   60. BD ( 1) C 10- H 16      79. BD*( 1) C  9- H 15      0.32    1.13   0.024
   60. BD ( 1) C 10- H 16     165. RY ( 2) C  9            0.26    1.61   0.026
   60. BD ( 1) C 10- H 16     183. RY ( 2) O 11            0.32    1.95   0.032
   61. BD ( 1) C 10- H 17      72. BD*( 1) C  6- O 11      0.49    1.09   0.029
   61. BD ( 1) C 10- H 17      78. BD*( 1) C  9- H 14      0.29    1.12   0.023
   61. BD ( 1) C 10- H 17      79. BD*( 1) C  9- H 15      1.15    1.12   0.045
   61. BD ( 1) C 10- H 17     164. RY ( 1) C  9            0.45    1.51   0.033
   61. BD ( 1) C 10- H 17     182. RY ( 1) O 11            0.33    1.88   0.031


 NATURAL BOND ORBITALS (Summary):

                                                     Principal Delocalizations
           NBO                 Occupancy    Energy   (geminal,vicinal,remote)
 ===============================================================================
 Molecular unit  1  (C8H6IOBr)
 ------ Lewis --------------------------------------
    1. CR ( 1)Br  1             1.00000  -400.64194
    2. CR ( 2)Br  1             1.00000  -128.76396
    3. CR ( 3)Br  1             1.00000   -24.65847
    4. CR ( 4)Br  1             1.00000   -36.96780
    5. CR ( 5)Br  1             1.00000   -25.81511
    6. CR ( 6)Br  1             1.00000   -36.96338
    7. CR ( 7)Br  1             1.00000   -25.81114
    8. CR ( 8)Br  1             1.00000   -36.96167
    9. CR ( 9)Br  1             1.00000   -25.80958
   10. CR (10)Br  1             1.00000    -2.58706
   11. CR (11)Br  1             1.00000    -2.58480
   12. CR (12)Br  1             1.00000    -2.57952
   13. CR (13)Br  1             1.00000    -2.58696
   14. CR (14)Br  1             1.00000    -2.58069
   15. CR ( 1) C  2             0.99998   -10.18105
   16. CR ( 1) C  3             0.99998   -10.11846
   17. CR ( 1) C  4             0.99998   -10.14387
   18. CR ( 1) I  5             1.00000    -6.80695
   19. CR ( 2) I  5             1.00000    -4.82448
   20. CR ( 3) I  5             1.00000    -4.81884
   21. CR ( 4) I  5             1.00000    -4.81457
   22. CR ( 5) I  5             0.99999    -1.85847
   23. CR ( 6) I  5             1.00000    -1.85447
   24. CR ( 7) I  5             1.00000    -1.84970
   25. CR ( 8) I  5             0.99999    -1.85828
   26. CR ( 9) I  5             0.99999    -1.85033
   27. CR ( 1) C  6             0.99998   -10.19308
   28. CR ( 1) C  7             0.99998   -10.10904
   29. CR ( 1) C  8             0.99997   -10.10904
   30. CR ( 1) C  9             0.99997   -10.16997
   31. CR ( 1) C 10             0.99997   -10.22582
   32. CR ( 1) O 11             0.99998   -19.13901
   33. LP ( 1)Br  1             0.99727    -0.59607  97(v),65(v),63(v)
   34. LP ( 2)Br  1             0.99102    -0.22330  63(v),65(v),98(v)
   35. LP ( 3)Br  1             0.98253    -0.22174  64(v)
   36. LP ( 1) I  5             0.99864    -0.54489  66(v)
   37. LP ( 2) I  5             0.99193    -0.18795  69(v),66(v)
   38. LP ( 3) I  5             0.98395    -0.18535  70(v)
   39. LP ( 1) O 11             0.98330    -0.40959  71(v),77(v),137(v),173(v)
                                                     81(v),138(v),69(v)
   40. LP ( 2) O 11             0.93192    -0.24371  70(v),82(v),81(v),141(v)
                                                     139(v),176(v),175(v),77(v)
   41. BD ( 1)Br  1- C  2       0.99264    -0.48970  66(v),73(v),155(v),106(v)
   42. BD ( 1) C  2- C  3       0.98444    -0.51687  68(v),65(g),66(g),67(g)
                                                     76(v),116(v),155(v),191(v)
   43. BD ( 2) C  2- C  3       0.86499    -0.14798  74(v),70(v),157(v),83(v)
                                                     118(v),117(v)
   44. BD ( 1) C  2- C  8       0.98684    -0.50968  75(v),63(g),73(g),146(v)
                                                     76(g),67(v),106(v),195(v)
                                                     107(v)
   45. BD ( 1) C  3- C  4       0.98235    -0.50560  72(v),69(g),62(v),63(g)
                                                     67(g),97(v),98(v),137(v)
                                                     138(v),191(v)
   46. BD ( 1) C  3- H 12       0.98759    -0.38547  65(v),69(v),97(v),62(v)
                                                     63(g),66(g),115(v),68(v)
   47. BD ( 1) C  4- I  5       0.98975    -0.39981  71(v),63(v),137(v),106(v)
                                                     72(v),67(v)
   48. BD ( 1) C  4- C  6       0.98555    -0.53260  71(g),66(g),80(v),67(v)
                                                     75(v),72(g),106(v),146(v)
                                                     107(v),148(v)
   49. BD ( 2) C  4- C  6       0.83985    -0.14469  64(v),74(v),124(v),110(v)
                                                     70(g),147(v),182(v)
   50. BD ( 1) C  6- C  7       0.97841    -0.49380  69(g),68(v),73(g),76(v)
                                                     115(v),75(g),78(v),164(v)
                                                     156(v),155(v),79(v),77(v)
   51. BD ( 1) C  6- O 11       0.99540    -0.74766  73(v),69(g),174(v),66(v)
                                                     71(g),81(v),115(v)
   52. BD ( 1) C  7- C  8       0.98009    -0.49105  62(v),71(g),65(g),75(g)
                                                     72(v),76(g),97(v),98(v)
                                                     140(v),195(v),77(v)
   53. BD ( 2) C  7- C  8       0.81846    -0.10577  70(v),64(v),79(v),78(v)
                                                     142(v),99(v),100(v),157(g)
   54. BD ( 1) C  7- C  9       0.98131    -0.45092  69(v),73(g),80(v),71(g)
                                                     65(v),81(v),72(v),77(g)
                                                     173(v),78(g),79(g),155(v)
                                                     137(v),156(v),203(v)
   55. BD ( 1) C  8- H 13       0.98877    -0.38354  71(v),63(v),73(g),97(v)
                                                     65(g),62(v),146(v)
   56. BD ( 1) C  9- C 10       0.99338    -0.48913  73(v),75(g),147(v),69(r)
   57. BD ( 1) C  9- H 14       0.98905    -0.41831  74(v),80(v),71(v),148(v)
                                                     82(v),75(g)
   58. BD ( 1) C  9- H 15       0.98781    -0.41055  74(v),82(v),147(v),75(g)
                                                     81(v),71(v),174(v)
   59. BD ( 1) C 10- O 11       0.99469    -0.66634  69(v),138(v),78(v)
   60. BD ( 1) C 10- H 16       0.99419    -0.45254  72(v),75(v),79(v),183(v)
                                                     165(v)
   61. BD ( 1) C 10- H 17       0.99417    -0.44611  79(v),72(v),164(v),182(v)
                                                     78(v)
 ------ non-Lewis ----------------------------------
   62. BD*( 1)Br  1- C  2       0.01582     0.35145
   63. BD*( 1) C  2- C  3       0.01352     0.83962
   64. BD*( 2) C  2- C  3       0.19784     0.25522
   65. BD*( 1) C  2- C  8       0.01229     0.83283
   66. BD*( 1) C  3- C  4       0.01096     0.84390
   67. BD*( 1) C  3- H 12       0.00761     0.72536
   68. BD*( 1) C  4- I  5       0.01597     0.32704
   69. BD*( 1) C  4- C  6       0.01684     0.84174
   70. BD*( 2) C  4- C  6       0.20964     0.25095
   71. BD*( 1) C  6- C  7       0.01857     0.83468
   72. BD*( 1) C  6- O 11       0.01403     0.63998
   73. BD*( 1) C  7- C  8       0.01261     0.88482
   74. BD*( 2) C  7- C  8       0.14420     0.30651
   75. BD*( 1) C  7- C  9       0.01078     0.67985
   76. BD*( 1) C  8- H 13       0.00799     0.72153
   77. BD*( 1) C  9- C 10       0.00774     0.58583
   78. BD*( 1) C  9- H 14       0.00656     0.67451
   79. BD*( 1) C  9- H 15       0.00953     0.67369
   80. BD*( 1) C 10- O 11       0.01014     0.50289
   81. BD*( 1) C 10- H 16       0.00801     0.66866
   82. BD*( 1) C 10- H 17       0.01222     0.65670
   83. RY ( 1)Br  1             0.00209     0.82630
   84. RY ( 2)Br  1             0.00076     0.93141
   85. RY ( 3)Br  1             0.00024     0.76295
   86. RY ( 4)Br  1             0.00005     1.18048
   87. RY ( 5)Br  1             0.00004     0.76798
   88. RY ( 6)Br  1             0.00001     1.05746
   89. RY ( 7)Br  1             0.00000     1.07048
   90. RY ( 8)Br  1             0.00000     0.90228
   91. RY ( 9)Br  1             0.00000     1.16404
   92. RY (10)Br  1             0.00000     3.85665
   93. RY (11)Br  1             0.00000     3.58310
   94. RY (12)Br  1             0.00000     3.67093
   95. RY (13)Br  1             0.00000     3.71732
   96. RY (14)Br  1             0.00000     3.64217
   97. RY ( 1) C  2             0.00331     1.34734
   98. RY ( 2) C  2             0.00251     0.99635
   99. RY ( 3) C  2             0.00071     1.30418
  100. RY ( 4) C  2             0.00044     2.17592
  101. RY ( 5) C  2             0.00034     1.03921
  102. RY ( 6) C  2             0.00028     2.53816
  103. RY ( 7) C  2             0.00015     2.19797
  104. RY ( 8) C  2             0.00006     1.58337
  105. RY ( 9) C  2             0.00000     2.42403
  106. RY ( 1) C  3             0.00336     1.37084
  107. RY ( 2) C  3             0.00159     0.93470
  108. RY ( 3) C  3             0.00066     1.14150
  109. RY ( 4) C  3             0.00032     0.84021
  110. RY ( 5) C  3             0.00030     1.84486
  111. RY ( 6) C  3             0.00006     2.62050
  112. RY ( 7) C  3             0.00002     2.62990
  113. RY ( 8) C  3             0.00001     2.14372
  114. RY ( 9) C  3             0.00000     2.46922
  115. RY ( 1) C  4             0.00274     1.36799
  116. RY ( 2) C  4             0.00206     1.11215
  117. RY ( 3) C  4             0.00080     1.09824
  118. RY ( 4) C  4             0.00032     2.13705
  119. RY ( 5) C  4             0.00025     0.80049
  120. RY ( 6) C  4             0.00020     2.68051
  121. RY ( 7) C  4             0.00011     1.89338
  122. RY ( 8) C  4             0.00004     2.40946
  123. RY ( 9) C  4             0.00000     2.45027
  124. RY ( 1) I  5             0.00164     0.70980
  125. RY ( 2) I  5             0.00069     0.87305
  126. RY ( 3) I  5             0.00043     0.85573
  127. RY ( 4) I  5             0.00008     1.37988
  128. RY ( 5) I  5             0.00004     1.01076
  129. RY ( 6) I  5             0.00003     1.53413
  130. RY ( 7) I  5             0.00002     0.68807
  131. RY ( 8) I  5             0.00000     0.94488
  132. RY ( 9) I  5             0.00001     1.23431
  133. RY (10) I  5             0.00000    18.93105
  134. RY (11) I  5             0.00000    52.88584
  135. RY (12) I  5             0.00000    19.44840
  136. RY (13) I  5             0.00000    20.31322
  137. RY ( 1) C  6             0.00427     1.06494
  138. RY ( 2) C  6             0.00224     1.36129
  139. RY ( 3) C  6             0.00129     1.86818
  140. RY ( 4) C  6             0.00097     1.30496
  141. RY ( 5) C  6             0.00075     1.25243
  142. RY ( 6) C  6             0.00040     2.03096
  143. RY ( 7) C  6             0.00029     2.41358
  144. RY ( 8) C  6             0.00010     2.25351
  145. RY ( 9) C  6             0.00001     2.44763
  146. RY ( 1) C  7             0.00225     1.32615
  147. RY ( 2) C  7             0.00158     1.15822
  148. RY ( 3) C  7             0.00118     1.29095
  149. RY ( 4) C  7             0.00042     1.04226
  150. RY ( 5) C  7             0.00032     2.21308
  151. RY ( 6) C  7             0.00008     2.13603
  152. RY ( 7) C  7             0.00006     2.59621
  153. RY ( 8) C  7             0.00003     2.37924
  154. RY ( 9) C  7             0.00001     2.44927
  155. RY ( 1) C  8             0.00280     1.37348
  156. RY ( 2) C  8             0.00154     0.95344
  157. RY ( 3) C  8             0.00066     1.13433
  158. RY ( 4) C  8             0.00030     0.84503
  159. RY ( 5) C  8             0.00024     1.90222
  160. RY ( 6) C  8             0.00003     2.65060
  161. RY ( 7) C  8             0.00001     2.60408
  162. RY ( 8) C  8             0.00001     2.17658
  163. RY ( 9) C  8             0.00000     2.49811
  164. RY ( 1) C  9             0.00183     1.06301
  165. RY ( 2) C  9             0.00103     1.15420
  166. RY ( 3) C  9             0.00046     0.87162
  167. RY ( 4) C  9             0.00024     1.96567
  168. RY ( 5) C  9             0.00017     1.42823
  169. RY ( 6) C  9             0.00005     2.35943
  170. RY ( 7) C  9             0.00002     2.33789
  171. RY ( 8) C  9             0.00001     2.39703
  172. RY ( 9) C  9             0.00000     2.45324
  173. RY ( 1) C 10             0.00205     1.02679
  174. RY ( 2) C 10             0.00136     1.03510
  175. RY ( 3) C 10             0.00077     1.60523
  176. RY ( 4) C 10             0.00065     1.87731
  177. RY ( 5) C 10             0.00020     1.78631
  178. RY ( 6) C 10             0.00012     2.18644
  179. RY ( 7) C 10             0.00004     1.56690
  180. RY ( 8) C 10             0.00001     2.13153
  181. RY ( 9) C 10             0.00000     2.37719
  182. RY ( 1) O 11             0.00112     1.43141
  183. RY ( 2) O 11             0.00094     1.49531
  184. RY ( 3) O 11             0.00013     2.62720
  185. RY ( 4) O 11             0.00013     2.40467
  186. RY ( 5) O 11             0.00009     2.26399
  187. RY ( 6) O 11             0.00002     2.75325
  188. RY ( 7) O 11             0.00001     3.03928
  189. RY ( 8) O 11             0.00000     2.94436
  190. RY ( 9) O 11             0.00000     3.12035
  191. RY ( 1) H 12             0.00094     0.61561
  192. RY ( 2) H 12             0.00010     1.93099
  193. RY ( 3) H 12             0.00003     2.24974
  194. RY ( 4) H 12             0.00002     2.61669
  195. RY ( 1) H 13             0.00091     0.61663
  196. RY ( 2) H 13             0.00009     1.94170
  197. RY ( 3) H 13             0.00003     2.35639
  198. RY ( 4) H 13             0.00002     2.51091
  199. RY ( 1) H 14             0.00082     0.57428
  200. RY ( 2) H 14             0.00005     1.96161
  201. RY ( 3) H 14             0.00004     2.12079
  202. RY ( 4) H 14             0.00001     2.50386
  203. RY ( 1) H 15             0.00143     0.56422
  204. RY ( 2) H 15             0.00004     2.06673
  205. RY ( 3) H 15             0.00004     2.04191
  206. RY ( 4) H 15             0.00001     2.50643
  207. RY ( 1) H 16             0.00078     0.52288
  208. RY ( 2) H 16             0.00005     1.94126
  209. RY ( 3) H 16             0.00004     2.12746
  210. RY ( 4) H 16             0.00001     2.42752
  211. RY ( 1) H 17             0.00145     0.53648
  212. RY ( 2) H 17             0.00005     1.94657
  213. RY ( 3) H 17             0.00004     2.15512
  214. RY ( 4) H 17             0.00001     2.42352
          -------------------------------
                 Total Lewis   74.17005  ( 98.8934%)
           Valence non-Lewis    0.76283  (  1.0171%)
           Rydberg non-Lewis    0.06712  (  0.0895%)
          -------------------------------
               Total unit  1   75.00000  (100.0000%)
              Charge unit  1    0.00000

 $CHOOSE
  ALPHA
   LONE 1 3 4 1 5 3 8 1 11 2 END
   BOND S 1 2 D 2 3 S 2 8 S 3 4 S 3 12 S 4 5 S 4 6 D 6 7 S 6 11 S 7 8 S 7 9
        S 8 13 S 9 10 S 9 14 S 9 15 S 10 11 S 10 16 S 10 17 END
  END
  BETA
   LONE 1 3 5 3 11 2 END
   BOND S 1 2 D 2 3 S 2 8 S 3 4 S 3 12 S 4 5 D 4 6 S 6 7 S 6 11 D 7 8 S 7 9
        S 8 13 S 9 10 S 9 14 S 9 15 S 10 11 S 10 16 S 10 17 END
  END
 $END

 NBO analysis completed in 1.57 CPU seconds (2 wall seconds)
 Maximum scratch memory used by NBO was 889384 words (6.79 MB)
 Maximum scratch memory used by G16NBO was 101103 words (0.77 MB)

 Opening RunExU unformatted file "/home/rpaton/arbr500/dzvp/fukui/Gau-1929365.EUF"
 Read unf file /home/rpaton/arbr500/dzvp/fukui/Gau-1929365.EUF:
 Label Gaussian matrix elements                                         IVers= 2 NLab= 2 Version=ES64L-G16RevC.01
 Title arbr48_wb97xd_redcreated by GaussianPrep                        
 NAtoms=    17 NBasis=   214 NBsUse=   214 ICharg=    -1 Multip=     2 NE=   123 Len12L=8 Len4L=8 IOpCl= 1 ICGU=112
 GAUSSIAN SCALARS                    NI= 1 NR= 1 NTot=       1 LenBuf=    2 NRI=1 N=    1000
 NPA CHARGES                         NI= 0 NR= 1 NTot=      17 LenBuf= 2048 NRI=1 N=      17
 Recovered energy= -3254.92403336     dipole=     -0.600402270017      0.081071029063      0.087565774173
 Unable to Open any file for archive entry.
 1\1\GINC-DYNAMO\SP\UwB97XD\def2SVP\C8H6Br1I1O1(1-,2)\RPATON\28-Sep-202
 4\0\\# pop=(nbo6,hirshfeld) wb97xd/def2svp\\arbr48_wb97xd_redcreated b
 y GaussianPrep\\-1,2\Br,0,3.504829,-0.904999,0.016071\C,0,1.836599,-0.
 009438,-0.006232\C,0,0.662336,-0.759965,-0.003862\C,0,-0.580843,-0.117
 488,-0.013911\I,0,-2.36571,-1.213777,-0.002823\C,0,-0.607771,1.272953,
 -0.02633\C,0,0.575812,2.017683,-0.032756\C,0,1.809722,1.389774,-0.0258
 24\C,0,0.188045,3.472896,-0.112959\C,0,-1.324375,3.394647,0.172693\O,0
 ,-1.715548,2.0329,-0.040732\H,0,0.712622,-1.849315,0.011161\H,0,2.7382
 56,1.962565,-0.03663\H,0,0.715264,4.104821,0.615304\H,0,0.39757,3.8741
 98,-1.11778\H,0,-1.933212,4.028771,-0.484097\H,0,-1.549675,3.654561,1.
 220142\\Version=ES64L-G16RevC.01\State=2-A\HF=-3254.9240334\S2=0.76525
 3\S2-1=0.\S2A=0.750135\RMSD=2.355e-09\Dipole=-0.6004023,0.0810711,0.08
 75658\Quadrupole=-9.6346716,4.1764804,5.4581912,-0.630016,-0.148628,0.
 5474604\PG=C01 [X(C8H6Br1I1O1)]\\@
 The archive entry for this job was punched.


 Happiness is a conscious choice, not an automatic response.
 -- Mildred Barthel
 Job cpu time:       0 days  0 hours 19 minutes 20.4 seconds.
 Elapsed time:       0 days  0 hours  0 minutes 48.8 seconds.
 File lengths (MBytes):  RWF=     49 Int=      0 D2E=      0 Chk=      4 Scr=      1
 Normal termination of Gaussian 16 at Sat Sep 28 12:10:40 2024.
