 Entering Gaussian System, Link 0=/usr/local/Gaussian/G16C/g16/g16
 Input=arbr41_wb97xd_oxd.com
 Output=arbr41_wb97xd_oxd.log
 Initial command:
 /usr/local/Gaussian/G16C/g16/l1.exe "/home/rpaton/opt/dzvp/fukui/Gau-1748978.inp" -scrdir="/home/rpaton/opt/dzvp/fukui/"
 Entering Link 1 = /usr/local/Gaussian/G16C/g16/l1.exe PID=   1748979.
  
 Copyright (c) 1988-2019, Gaussian, Inc.  All Rights Reserved.
  
 This is part of the Gaussian(R) 16 program.  It is based on
 the Gaussian(R) 09 system (copyright 2009, Gaussian, Inc.),
 the Gaussian(R) 03 system (copyright 2003, Gaussian, Inc.),
 the Gaussian(R) 98 system (copyright 1998, Gaussian, Inc.),
 the Gaussian(R) 94 system (copyright 1995, Gaussian, Inc.),
 the Gaussian 92(TM) system (copyright 1992, Gaussian, Inc.),
 the Gaussian 90(TM) system (copyright 1990, Gaussian, Inc.),
 the Gaussian 88(TM) system (copyright 1988, Gaussian, Inc.),
 the Gaussian 86(TM) system (copyright 1986, Carnegie Mellon
 University), and the Gaussian 82(TM) system (copyright 1983,
 Carnegie Mellon University). Gaussian is a federally registered
 trademark of Gaussian, Inc.
  
 This software contains proprietary and confidential information,
 including trade secrets, belonging to Gaussian, Inc.
  
 This software is provided under written license and may be
 used, copied, transmitted, or stored only in accord with that
 written license.
  
 The following legend is applicable only to US Government
 contracts under FAR:
  
                    RESTRICTED RIGHTS LEGEND
  
 Use, reproduction and disclosure by the US Government is
 subject to restrictions as set forth in subparagraphs (a)
 and (c) of the Commercial Computer Software - Restricted
 Rights clause in FAR 52.227-19.
  
 Gaussian, Inc.
 340 Quinnipiac St., Bldg. 40, Wallingford CT 06492
  
  
 ---------------------------------------------------------------
 Warning -- This program may not be used in any manner that
 competes with the business of Gaussian, Inc. or will provide
 assistance to any competitor of Gaussian, Inc.  The licensee
 of this program is prohibited from giving any competitor of
 Gaussian, Inc. access to this program.  By using this program,
 the user acknowledges that Gaussian, Inc. is engaged in the
 business of creating and licensing software in the field of
 computational chemistry and represents and warrants to the
 licensee that it is not a competitor of Gaussian, Inc. and that
 it will not use this program in any manner prohibited above.
 ---------------------------------------------------------------
  

 Cite this work as:
 Gaussian 16, Revision C.01,
 M. J. Frisch, G. W. Trucks, H. B. Schlegel, G. E. Scuseria, 
 M. A. Robb, J. R. Cheeseman, G. Scalmani, V. Barone, 
 G. A. Petersson, H. Nakatsuji, X. Li, M. Caricato, A. V. Marenich, 
 J. Bloino, B. G. Janesko, R. Gomperts, B. Mennucci, H. P. Hratchian, 
 J. V. Ortiz, A. F. Izmaylov, J. L. Sonnenberg, D. Williams-Young, 
 F. Ding, F. Lipparini, F. Egidi, J. Goings, B. Peng, A. Petrone, 
 T. Henderson, D. Ranasinghe, V. G. Zakrzewski, J. Gao, N. Rega, 
 G. Zheng, W. Liang, M. Hada, M. Ehara, K. Toyota, R. Fukuda, 
 J. Hasegawa, M. Ishida, T. Nakajima, Y. Honda, O. Kitao, H. Nakai, 
 T. Vreven, K. Throssell, J. A. Montgomery, Jr., J. E. Peralta, 
 F. Ogliaro, M. J. Bearpark, J. J. Heyd, E. N. Brothers, K. N. Kudin, 
 V. N. Staroverov, T. A. Keith, R. Kobayashi, J. Normand, 
 K. Raghavachari, A. P. Rendell, J. C. Burant, S. S. Iyengar, 
 J. Tomasi, M. Cossi, J. M. Millam, M. Klene, C. Adamo, R. Cammi, 
 J. W. Ochterski, R. L. Martin, K. Morokuma, O. Farkas, 
 J. B. Foresman, and D. J. Fox, Gaussian, Inc., Wallingford CT, 2019.
 
 ******************************************
 Gaussian 16:  ES64L-G16RevC.01  3-Jul-2019
                27-Sep-2024 
 ******************************************
 %chk=arbr41_wb97xd_popn.chk
 %mem=48GB
 %nprocshared=24
 Will use up to   24 processors via shared memory.
 -------------------------------------
 # pop=(nbo6,hirshfeld) wb97xd/def2svp
 -------------------------------------
 1/38=1,172=1/1;
 2/12=2,17=6,18=5,40=1/2;
 3/5=43,7=101,11=2,25=1,30=1,74=-58/1,2,3;
 4//1;
 5/5=2,38=5/2;
 6/7=2,8=2,9=2,10=2,28=1,40=1,79=1,113=1,114=1,124=3103,126=1/1,12;
 99/5=1,9=1/99;
 -----------------------------------------
 arbr41_wb97xd_popncreated by GaussianPrep
 -----------------------------------------
 Symbolic Z-matrix:
 Charge =  1 Multiplicity = 2
 N                    -3.13265  -2.4341   -1.1652 
 C                    -2.8021   -1.69089  -0.34409 
 C                    -2.39286  -0.73654   0.69752 
 C                    -3.37502   0.45952   0.82071 
 C                    -2.81143   1.54296  -0.11555 
 C                    -1.33262   1.24515  -0.1289 
 C                    -0.27012   2.0478   -0.53431 
 C                     1.03068   1.54718  -0.47456 
 C                     1.25602   0.24697  -0.01745 
 Br                    3.02667  -0.41516   0.06288 
 C                     0.20132  -0.57283   0.38558 
 C                    -1.08552  -0.05099   0.32835 
 H                    -2.31539  -1.29953   1.64055 
 H                    -4.41251   0.17881   0.59718 
 H                    -3.33854   0.81582   1.86099 
 H                    -3.22387   1.44174  -1.13402 
 H                    -3.04448   2.56094   0.22846 
 H                    -0.44306   3.0646   -0.8939 
 H                     1.87441   2.16711  -0.78133 
 H                     0.38845  -1.59013   0.73389 
 
                          Input orientation:                          
 ---------------------------------------------------------------------
 Center     Atomic      Atomic             Coordinates (Angstroms)
 Number     Number       Type             X           Y           Z
 ---------------------------------------------------------------------
      1          7           0       -3.132648   -2.434104   -1.165197
      2          6           0       -2.802096   -1.690892   -0.344087
      3          6           0       -2.392863   -0.736541    0.697516
      4          6           0       -3.375022    0.459516    0.820714
      5          6           0       -2.811426    1.542957   -0.115546
      6          6           0       -1.332616    1.245148   -0.128902
      7          6           0       -0.270116    2.047802   -0.534307
      8          6           0        1.030676    1.547180   -0.474562
      9          6           0        1.256022    0.246974   -0.017448
     10         35           0        3.026668   -0.415160    0.062877
     11          6           0        0.201316   -0.572828    0.385580
     12          6           0       -1.085520   -0.050989    0.328351
     13          1           0       -2.315391   -1.299529    1.640548
     14          1           0       -4.412505    0.178807    0.597179
     15          1           0       -3.338537    0.815815    1.860987
     16          1           0       -3.223869    1.441736   -1.134017
     17          1           0       -3.044483    2.560942    0.228460
     18          1           0       -0.443060    3.064597   -0.893895
     19          1           0        1.874405    2.167115   -0.781325
     20          1           0        0.388450   -1.590133    0.733887
 ---------------------------------------------------------------------
                    Distance matrix (angstroms):
                    1          2          3          4          5
     1  N    0.000000
     2  C    1.155790   0.000000
     3  C    2.626538   1.470780   0.000000
     4  C    3.517901   2.511824   1.552535   0.000000
     5  C    4.125768   3.241928   2.456090   1.538853   0.000000
     6  C    4.225035   3.290290   2.394615   2.385458   1.508558
     7  C    5.355333   4.519396   3.711605   3.741547   2.624592
     8  C    5.801798   5.019191   4.278991   4.719208   3.858842
     9  C    5.269339   4.508918   3.846146   4.711078   4.270050
    10  Br   6.597081   5.980602   5.466019   6.505460   6.160308
    11  C    4.121234   3.286786   2.617990   3.747702   3.715412
    12  C    3.478600   2.467405   1.521647   2.396843   2.390912
    13  H    3.134864   2.080582   1.101030   2.211150   3.377816
    14  H    3.401662   2.641055   2.219658   1.097787   2.220886
    15  H    4.445464   3.381376   2.158187   1.100204   2.171005
    16  H    3.877039   3.258104   2.964789   2.192847   1.103466
    17  H    5.186573   4.297052   3.393820   2.208169   1.099522
    18  H    6.127251   5.336854   4.558834   4.280506   2.920680
    19  H    6.810958   6.078245   5.369149   5.747948   4.773871
    20  H    4.088635   3.369238   2.909578   4.286295   4.558179
                    6          7          8          9         10
     6  C    0.000000
     7  C    1.391946   0.000000
     8  C    2.407458   1.395081   0.000000
     9  C    2.776656   2.416448   1.396521   0.000000
    10  Br   4.668700   4.158316   2.850194   1.892105   0.000000
    11  C    2.433655   2.817116   2.433540   1.395318   2.848089
    12  C    1.396463   2.411221   2.770758   2.385619   4.136809
    13  H    3.251489   4.485284   4.875819   4.230321   5.639925
    14  H    3.339161   4.683246   5.713956   5.702158   7.481950
    15  H    2.857920   4.082944   5.007964   4.996206   6.727877
    16  H    2.150754   3.074350   4.306641   4.769026   6.629467
    17  H    2.188495   2.922711   4.257802   4.889710   6.763392
    18  H    2.164929   1.092284   2.156454   3.405002   5.006309
    19  H    3.400097   2.161995   1.091009   2.157046   2.951022
    20  H    3.427140   3.908529   3.422797   2.166137   2.964964
                   11         12         13         14         15
    11  C    0.000000
    12  C    1.389798   0.000000
    13  H    2.904626   2.189360   0.000000
    14  H    4.679431   3.345729   2.769835   0.000000
    15  H    4.078690   2.859442   2.360106   1.776625   0.000000
    16  H    4.254355   2.989864   4.004757   2.450487   3.061858
    17  H    4.514467   3.266450   4.174782   2.771643   2.407713
    18  H    3.909365   3.407861   5.382808   5.129091   4.585868
    19  H    3.415872   3.861673   5.952939   6.736385   5.998549
    20  H    1.091442   2.169334   2.866573   5.118301   4.577048
                   16         17         18         19         20
    16  H    0.000000
    17  H    1.772328   0.000000
    18  H    3.228658   2.877629   0.000000
    19  H    5.161682   5.036886   2.487728   0.000000
    20  H    5.072489   5.410352   5.000759   4.315187   0.000000
 Stoichiometry    C10H8BrN(1+,2)
 Framework group  C1[X(C10H8BrN)]
 Deg. of freedom    54
 Full point group                 C1      NOp   1
 Largest Abelian subgroup         C1      NOp   1
 Largest concise Abelian subgroup C1      NOp   1
                         Standard orientation:                         
 ---------------------------------------------------------------------
 Center     Atomic      Atomic             Coordinates (Angstroms)
 Number     Number       Type             X           Y           Z
 ---------------------------------------------------------------------
      1          7           0       -3.132648   -2.434104   -1.165197
      2          6           0       -2.802096   -1.690892   -0.344087
      3          6           0       -2.392863   -0.736541    0.697516
      4          6           0       -3.375022    0.459516    0.820714
      5          6           0       -2.811426    1.542957   -0.115546
      6          6           0       -1.332616    1.245148   -0.128902
      7          6           0       -0.270116    2.047802   -0.534307
      8          6           0        1.030676    1.547180   -0.474562
      9          6           0        1.256022    0.246974   -0.017448
     10         35           0        3.026668   -0.415160    0.062877
     11          6           0        0.201316   -0.572828    0.385580
     12          6           0       -1.085520   -0.050989    0.328351
     13          1           0       -2.315391   -1.299529    1.640548
     14          1           0       -4.412505    0.178807    0.597179
     15          1           0       -3.338537    0.815815    1.860987
     16          1           0       -3.223869    1.441736   -1.134017
     17          1           0       -3.044483    2.560942    0.228460
     18          1           0       -0.443060    3.064597   -0.893895
     19          1           0        1.874405    2.167115   -0.781325
     20          1           0        0.388450   -1.590133    0.733887
 ---------------------------------------------------------------------
 Rotational constants (GHZ):           1.4352070           0.3535468           0.3018991
 Standard basis: def2SVP (5D, 7F)
 There are   240 symmetry adapted cartesian basis functions of A   symmetry.
 There are   226 symmetry adapted basis functions of A   symmetry.
   226 basis functions,   411 primitive gaussians,   240 cartesian basis functions
    55 alpha electrons       54 beta electrons
       nuclear repulsion energy       870.5645115855 Hartrees.
 NAtoms=   20 NActive=   20 NUniq=   20 SFac= 1.00D+00 NAtFMM=   60 NAOKFM=F Big=F
 Integral buffers will be    131072 words long.
 Raffenetti 2 integral format.
 Two-electron integral symmetry is turned on.
 Nuclear repulsion after empirical dispersion term =      870.5512949900 Hartrees.
 One-electron integrals computed using PRISM.
   1 Symmetry operations used in ECPInt.
 ECPInt:  NShTT=    5253 NPrTT=   20710 LenC2=    5028 LenP2D=   14804.
 LDataN:  DoStor=T MaxTD1= 4 Len=   56
 NBasis=   226 RedAO= T EigKep=  2.54D-04  NBF=   226
 NBsUse=   226 1.00D-06 EigRej= -1.00D+00 NBFU=   226
 ExpMin= 1.22D-01 ExpMax= 1.13D+05 ExpMxC= 1.70D+04 IAcc=3 IRadAn=         5 AccDes= 0.00D+00
 Harris functional with IExCor= 4639 and IRadAn=       5 diagonalized for initial guess.
 HarFok:  IExCor= 4639 AccDes= 0.00D+00 IRadAn=         5 IDoV= 1 UseB2=F ITyADJ=14
 ICtDFT=  3500011 ScaDFX=  1.000000  1.000000  1.000000  1.000000
 FoFCou: FMM=F IPFlag=           0 FMFlag=      100000 FMFlg1=           0
         NFxFlg=           0 DoJE=T BraDBF=F KetDBF=T FulRan=T
         wScrn=  0.000000 ICntrl=       500 IOpCl=  0 I1Cent=   200000004 NGrid=           0
         NMat0=    1 NMatS0=      1 NMatT0=    0 NMatD0=    1 NMtDS0=    0 NMtDT0=    0
 Petite list used in FoFCou.
 Initial guess <Sx>= 0.0000 <Sy>= 0.0000 <Sz>= 0.5000 <S**2>= 0.7500 S= 0.5000
 Requested convergence on RMS density matrix=1.00D-08 within 128 cycles.
 Requested convergence on MAX density matrix=1.00D-06.
 Requested convergence on             energy=1.00D-06.
 No special actions if energy rises.
 Integral accuracy reduced to 1.0D-05 until final iterations.
 Initial convergence to 1.0D-05 achieved.  Increase integral accuracy.
 SCF Done:  E(UwB97XD) =  -3013.73460423     A.U. after   26 cycles
            NFock= 26  Conv=0.39D-08     -V/T= 2.0025
 <Sx>= 0.0000 <Sy>= 0.0000 <Sz>= 0.5000 <S**2>= 0.7648 S= 0.5074
 <L.S>= 0.000000000000E+00
 Annihilation of the first spin contaminant:
 S**2 before annihilation     0.7648,   after     0.7501

 **********************************************************************

            Population analysis using the SCF Density.

 **********************************************************************

 Orbital symmetries:
 Alpha Orbitals:
       Occupied  (A) (A) (A) (A) (A) (A) (A) (A) (A) (A) (A) (A)
                 (A) (A) (A) (A) (A) (A) (A) (A) (A) (A) (A) (A)
                 (A) (A) (A) (A) (A) (A) (A) (A) (A) (A) (A) (A)
                 (A) (A) (A) (A) (A) (A) (A) (A) (A) (A) (A) (A)
                 (A) (A) (A) (A) (A) (A) (A)
       Virtual   (A) (A) (A) (A) (A) (A) (A) (A) (A) (A) (A) (A)
                 (A) (A) (A) (A) (A) (A) (A) (A) (A) (A) (A) (A)
                 (A) (A) (A) (A) (A) (A) (A) (A) (A) (A) (A) (A)
                 (A) (A) (A) (A) (A) (A) (A) (A) (A) (A) (A) (A)
                 (A) (A) (A) (A) (A) (A) (A) (A) (A) (A) (A) (A)
                 (A) (A) (A) (A) (A) (A) (A) (A) (A) (A) (A) (A)
                 (A) (A) (A) (A) (A) (A) (A) (A) (A) (A) (A) (A)
                 (A) (A) (A) (A) (A) (A) (A) (A) (A) (A) (A) (A)
                 (A) (A) (A) (A) (A) (A) (A) (A) (A) (A) (A) (A)
                 (A) (A) (A) (A) (A) (A) (A) (A) (A) (A) (A) (A)
                 (A) (A) (A) (A) (A) (A) (A) (A) (A) (A) (A) (A)
                 (A) (A) (A) (A) (A) (A) (A) (A) (A) (A) (A) (A)
                 (A) (A) (A) (A) (A) (A) (A) (A) (A) (A) (A) (A)
                 (A) (A) (A) (A) (A) (A) (A) (A) (A) (A) (A) (A)
                 (A) (A) (A)
 Beta  Orbitals:
       Occupied  (A) (A) (A) (A) (A) (A) (A) (A) (A) (A) (A) (A)
                 (A) (A) (A) (A) (A) (A) (A) (A) (A) (A) (A) (A)
                 (A) (A) (A) (A) (A) (A) (A) (A) (A) (A) (A) (A)
                 (A) (A) (A) (A) (A) (A) (A) (A) (A) (A) (A) (A)
                 (A) (A) (A) (A) (A) (A)
       Virtual   (A) (A) (A) (A) (A) (A) (A) (A) (A) (A) (A) (A)
                 (A) (A) (A) (A) (A) (A) (A) (A) (A) (A) (A) (A)
                 (A) (A) (A) (A) (A) (A) (A) (A) (A) (A) (A) (A)
                 (A) (A) (A) (A) (A) (A) (A) (A) (A) (A) (A) (A)
                 (A) (A) (A) (A) (A) (A) (A) (A) (A) (A) (A) (A)
                 (A) (A) (A) (A) (A) (A) (A) (A) (A) (A) (A) (A)
                 (A) (A) (A) (A) (A) (A) (A) (A) (A) (A) (A) (A)
                 (A) (A) (A) (A) (A) (A) (A) (A) (A) (A) (A) (A)
                 (A) (A) (A) (A) (A) (A) (A) (A) (A) (A) (A) (A)
                 (A) (A) (A) (A) (A) (A) (A) (A) (A) (A) (A) (A)
                 (A) (A) (A) (A) (A) (A) (A) (A) (A) (A) (A) (A)
                 (A) (A) (A) (A) (A) (A) (A) (A) (A) (A) (A) (A)
                 (A) (A) (A) (A) (A) (A) (A) (A) (A) (A) (A) (A)
                 (A) (A) (A) (A) (A) (A) (A) (A) (A) (A) (A) (A)
                 (A) (A) (A) (A)
 The electronic state is 2-A.
 Alpha  occ. eigenvalues -- -483.27628 -62.85767 -56.66517 -56.66329 -56.66100
 Alpha  occ. eigenvalues --  -14.57545 -10.58859 -10.54271 -10.52911 -10.52712
 Alpha  occ. eigenvalues --  -10.52132 -10.51423 -10.51358 -10.48374 -10.47077
 Alpha  occ. eigenvalues --  -10.46892  -9.02698  -6.85148  -6.84294  -6.83649
 Alpha  occ. eigenvalues --   -2.95602  -2.95423  -2.94954  -2.94229  -2.94174
 Alpha  occ. eigenvalues --   -1.20203  -1.14956  -1.12404  -1.08839  -1.05938
 Alpha  occ. eigenvalues --   -1.01644  -0.98771  -0.91562  -0.87686  -0.86816
 Alpha  occ. eigenvalues --   -0.80536  -0.78464  -0.75782  -0.73454  -0.71855
 Alpha  occ. eigenvalues --   -0.70527  -0.70210  -0.69182  -0.64900  -0.64012
 Alpha  occ. eigenvalues --   -0.63287  -0.62218  -0.61292  -0.59070  -0.57108
 Alpha  occ. eigenvalues --   -0.56853  -0.54769  -0.54388  -0.53655  -0.53074
 Alpha virt. eigenvalues --   -0.16738  -0.15489  -0.11759  -0.03271  -0.02723
 Alpha virt. eigenvalues --    0.00318   0.00849   0.01554   0.02618   0.03576
 Alpha virt. eigenvalues --    0.04857   0.06544   0.07605   0.09369   0.09952
 Alpha virt. eigenvalues --    0.10587   0.11375   0.12870   0.14437   0.18404
 Alpha virt. eigenvalues --    0.19321   0.19701   0.21920   0.22102   0.22530
 Alpha virt. eigenvalues --    0.25141   0.28086   0.31206   0.32702   0.33362
 Alpha virt. eigenvalues --    0.33957   0.34698   0.36755   0.37915   0.38591
 Alpha virt. eigenvalues --    0.39448   0.40408   0.40559   0.41645   0.43736
 Alpha virt. eigenvalues --    0.44916   0.46584   0.47783   0.50615   0.50798
 Alpha virt. eigenvalues --    0.51515   0.52178   0.53321   0.54538   0.54787
 Alpha virt. eigenvalues --    0.55039   0.56619   0.57964   0.58182   0.59320
 Alpha virt. eigenvalues --    0.59912   0.60488   0.61176   0.61609   0.62207
 Alpha virt. eigenvalues --    0.62728   0.63636   0.64403   0.65345   0.65740
 Alpha virt. eigenvalues --    0.66450   0.72005   0.73223   0.74798   0.76709
 Alpha virt. eigenvalues --    0.77043   0.82688   0.83543   0.85614   0.87639
 Alpha virt. eigenvalues --    0.90327   0.90996   0.93802   1.00389   1.01811
 Alpha virt. eigenvalues --    1.03142   1.05667   1.07846   1.11900   1.12530
 Alpha virt. eigenvalues --    1.13283   1.16724   1.17583   1.20851   1.23325
 Alpha virt. eigenvalues --    1.27421   1.32140   1.34914   1.36553   1.40475
 Alpha virt. eigenvalues --    1.43840   1.48951   1.55633   1.56232   1.57508
 Alpha virt. eigenvalues --    1.59486   1.60463   1.61193   1.62413   1.64328
 Alpha virt. eigenvalues --    1.66550   1.66809   1.68695   1.70389   1.71854
 Alpha virt. eigenvalues --    1.73473   1.73828   1.74482   1.76845   1.77516
 Alpha virt. eigenvalues --    1.78013   1.80811   1.82603   1.84319   1.87187
 Alpha virt. eigenvalues --    1.88402   1.91419   1.92327   1.93408   1.98512
 Alpha virt. eigenvalues --    1.99246   2.01531   2.02838   2.07257   2.12601
 Alpha virt. eigenvalues --    2.13810   2.14604   2.15454   2.16560   2.19355
 Alpha virt. eigenvalues --    2.22451   2.22816   2.24008   2.24929   2.30412
 Alpha virt. eigenvalues --    2.31326   2.35502   2.36731   2.43192   2.46313
 Alpha virt. eigenvalues --    2.49562   2.50821   2.51018   2.55363   2.61588
 Alpha virt. eigenvalues --    2.69013   2.69955   2.73528   2.75676   2.77125
 Alpha virt. eigenvalues --    2.81975   2.85494   2.88958   2.92264   2.95106
 Alpha virt. eigenvalues --    2.97028   3.00709   3.04668   3.09389   3.31343
 Alpha virt. eigenvalues --    3.35091   3.39143   3.40497   3.44145   3.52248
 Alpha virt. eigenvalues --    3.71916
  Beta  occ. eigenvalues -- -483.27554 -62.85715 -56.66486 -56.66149 -56.66062
  Beta  occ. eigenvalues --  -14.57546 -10.58499 -10.53881 -10.52783 -10.52652
  Beta  occ. eigenvalues --  -10.52140 -10.51472 -10.51362 -10.48380 -10.47070
  Beta  occ. eigenvalues --  -10.46877  -9.02603  -6.85116  -6.84017  -6.83609
  Beta  occ. eigenvalues --   -2.95526  -2.95292  -2.94936  -2.94098  -2.94065
  Beta  occ. eigenvalues --   -1.19361  -1.14275  -1.12112  -1.08387  -1.05508
  Beta  occ. eigenvalues --   -1.00883  -0.98198  -0.91099  -0.87367  -0.86395
  Beta  occ. eigenvalues --   -0.80222  -0.78071  -0.75410  -0.73178  -0.71594
  Beta  occ. eigenvalues --   -0.69890  -0.69612  -0.67043  -0.64655  -0.63506
  Beta  occ. eigenvalues --   -0.62691  -0.61879  -0.60415  -0.57211  -0.56468
  Beta  occ. eigenvalues --   -0.55673  -0.54556  -0.54339  -0.53374
  Beta virt. eigenvalues --   -0.32850  -0.14145  -0.13300  -0.11033  -0.03234
  Beta virt. eigenvalues --   -0.02544   0.00571   0.01552   0.01921   0.02736
  Beta virt. eigenvalues --    0.03733   0.04962   0.06630   0.07738   0.09473
  Beta virt. eigenvalues --    0.10189   0.10707   0.11805   0.13084   0.14657
  Beta virt. eigenvalues --    0.18818   0.19502   0.19944   0.22028   0.22328
  Beta virt. eigenvalues --    0.22752   0.25354   0.28239   0.31445   0.32988
  Beta virt. eigenvalues --    0.33581   0.34894   0.35192   0.37665   0.38129
  Beta virt. eigenvalues --    0.39462   0.39932   0.40926   0.41086   0.42526
  Beta virt. eigenvalues --    0.44092   0.45104   0.46711   0.48280   0.50844
  Beta virt. eigenvalues --    0.50989   0.52152   0.52515   0.53581   0.54809
  Beta virt. eigenvalues --    0.55054   0.55306   0.56814   0.58238   0.58364
  Beta virt. eigenvalues --    0.59465   0.60085   0.60613   0.61323   0.61763
  Beta virt. eigenvalues --    0.62302   0.63029   0.63838   0.65084   0.65416
  Beta virt. eigenvalues --    0.66016   0.66778   0.72213   0.73406   0.74938
  Beta virt. eigenvalues --    0.76872   0.77228   0.82906   0.83643   0.85791
  Beta virt. eigenvalues --    0.87780   0.90667   0.91103   0.93985   1.00707
  Beta virt. eigenvalues --    1.01983   1.03306   1.05956   1.07983   1.12196
  Beta virt. eigenvalues --    1.12895   1.13821   1.16945   1.17962   1.21053
  Beta virt. eigenvalues --    1.23599   1.27710   1.32281   1.35503   1.36923
  Beta virt. eigenvalues --    1.40726   1.44472   1.49385   1.55753   1.56423
  Beta virt. eigenvalues --    1.57602   1.59669   1.60706   1.61937   1.62966
  Beta virt. eigenvalues --    1.64671   1.66786   1.67351   1.68885   1.70596
  Beta virt. eigenvalues --    1.72249   1.73617   1.74142   1.74906   1.77043
  Beta virt. eigenvalues --    1.77774   1.78302   1.80944   1.82881   1.84499
  Beta virt. eigenvalues --    1.87593   1.88662   1.91728   1.92553   1.93982
  Beta virt. eigenvalues --    1.98730   1.99826   2.01691   2.03412   2.07585
  Beta virt. eigenvalues --    2.13012   2.14231   2.15417   2.16155   2.16975
  Beta virt. eigenvalues --    2.19563   2.22739   2.23168   2.24062   2.25089
  Beta virt. eigenvalues --    2.30634   2.31622   2.35919   2.37294   2.43393
  Beta virt. eigenvalues --    2.46526   2.50401   2.51197   2.51681   2.55531
  Beta virt. eigenvalues --    2.61676   2.69242   2.70128   2.73940   2.75897
  Beta virt. eigenvalues --    2.77296   2.82141   2.85590   2.89056   2.92411
  Beta virt. eigenvalues --    2.95208   2.97067   3.00763   3.04757   3.09590
  Beta virt. eigenvalues --    3.31568   3.35307   3.39343   3.40708   3.44167
  Beta virt. eigenvalues --    3.52272   3.71999
          Condensed to atoms (all electrons):
               1          2          3          4          5          6
     1  N    5.993840   0.938496  -0.024318  -0.004371   0.000223  -0.000114
     2  C    0.938496   5.141472   0.189011  -0.071636   0.002973  -0.003163
     3  C   -0.024318   0.189011   5.112265   0.427962  -0.102755  -0.086290
     4  C   -0.004371  -0.071636   0.427962   4.628513   0.406417  -0.056081
     5  C    0.000223   0.002973  -0.102755   0.406417   4.695507   0.339812
     6  C   -0.000114  -0.003163  -0.086290  -0.056081   0.339812   5.326626
     7  C   -0.000028  -0.001632   0.015586   0.009934  -0.049907   0.263616
     8  C    0.000004   0.000257  -0.001297  -0.000513   0.006893   0.085805
     9  C   -0.000007  -0.000403   0.009868  -0.000972   0.000530  -0.148834
    10  Br   0.000000   0.000010  -0.000086   0.000000   0.000014   0.000457
    11  C   -0.000076  -0.006699  -0.056078   0.010703   0.009904   0.030610
    12  C   -0.002177  -0.048018   0.319268  -0.080628  -0.084371   0.303187
    13  H   -0.000224   0.007494   0.348128  -0.011029   0.006413   0.004468
    14  H   -0.000308  -0.011131  -0.006275   0.391203  -0.012156   0.004589
    15  H    0.000140   0.011122  -0.033630   0.397086  -0.019513  -0.001029
    16  H    0.000259   0.003844   0.001941  -0.016579   0.368699   0.002651
    17  H   -0.000005  -0.000432   0.006376  -0.016331   0.376345  -0.006314
    18  H   -0.000000  -0.000018  -0.000166   0.000258  -0.010148  -0.056679
    19  H    0.000000  -0.000000   0.000013   0.000006  -0.000117   0.011197
    20  H    0.000078   0.001058  -0.010031   0.000322  -0.000238   0.011453
               7          8          9         10         11         12
     1  N   -0.000028   0.000004  -0.000007   0.000000  -0.000076  -0.002177
     2  C   -0.001632   0.000257  -0.000403   0.000010  -0.006699  -0.048018
     3  C    0.015586  -0.001297   0.009868  -0.000086  -0.056078   0.319268
     4  C    0.009934  -0.000513  -0.000972   0.000000   0.010703  -0.080628
     5  C   -0.049907   0.006893   0.000530   0.000014   0.009904  -0.084371
     6  C    0.263616   0.085805  -0.148834   0.000457   0.030610   0.303187
     7  C    4.948155   0.394058   0.078538   0.001988  -0.069125   0.006650
     8  C    0.394058   4.989907   0.202099  -0.060719   0.021003  -0.106882
     9  C    0.078538   0.202099   5.374076   0.307775   0.241065   0.098946
    10  Br   0.001988  -0.060719   0.307775  34.544930  -0.064769   0.002291
    11  C   -0.069125   0.021003   0.241065  -0.064769   4.986444   0.386576
    12  C    0.006650  -0.106882   0.098946   0.002291   0.386576   5.268205
    13  H   -0.000343   0.000048   0.000003  -0.000002  -0.003951  -0.007994
    14  H   -0.000274   0.000010   0.000014  -0.000000  -0.000301   0.005577
    15  H   -0.000343   0.000019  -0.000017  -0.000000  -0.000075   0.000096
    16  H   -0.002820  -0.000228   0.000026  -0.000000  -0.000440  -0.004729
    17  H   -0.005090  -0.000132   0.000049  -0.000000  -0.000466   0.006561
    18  H    0.454362  -0.052283   0.011836  -0.000089  -0.001890   0.012531
    19  H   -0.036453   0.439685  -0.056766  -0.000945   0.009972  -0.001482
    20  H   -0.001621   0.009916  -0.053224  -0.000880   0.438830  -0.034868
              13         14         15         16         17         18
     1  N   -0.000224  -0.000308   0.000140   0.000259  -0.000005  -0.000000
     2  C    0.007494  -0.011131   0.011122   0.003844  -0.000432  -0.000018
     3  C    0.348128  -0.006275  -0.033630   0.001941   0.006376  -0.000166
     4  C   -0.011029   0.391203   0.397086  -0.016579  -0.016331   0.000258
     5  C    0.006413  -0.012156  -0.019513   0.368699   0.376345  -0.010148
     6  C    0.004468   0.004589  -0.001029   0.002651  -0.006314  -0.056679
     7  C   -0.000343  -0.000274  -0.000343  -0.002820  -0.005090   0.454362
     8  C    0.000048   0.000010   0.000019  -0.000228  -0.000132  -0.052283
     9  C    0.000003   0.000014  -0.000017   0.000026   0.000049   0.011836
    10  Br  -0.000002  -0.000000  -0.000000  -0.000000  -0.000000  -0.000089
    11  C   -0.003951  -0.000301  -0.000075  -0.000440  -0.000466  -0.001890
    12  C   -0.007994   0.005577   0.000096  -0.004729   0.006561   0.012531
    13  H    0.541636   0.000097  -0.008453  -0.000163  -0.000100   0.000003
    14  H    0.000097   0.545917  -0.014878  -0.007873   0.000901  -0.000003
    15  H   -0.008453  -0.014878   0.579432   0.004612  -0.009341  -0.000013
    16  H   -0.000163  -0.007873   0.004612   0.527570  -0.009327   0.000608
    17  H   -0.000100   0.000901  -0.009341  -0.009327   0.546236   0.002273
    18  H    0.000003  -0.000003  -0.000013   0.000608   0.002273   0.560241
    19  H   -0.000000  -0.000000  -0.000000   0.000002   0.000000  -0.008543
    20  H    0.001699  -0.000004  -0.000008   0.000000   0.000004   0.000007
              19         20
     1  N    0.000000   0.000078
     2  C   -0.000000   0.001058
     3  C    0.000013  -0.010031
     4  C    0.000006   0.000322
     5  C   -0.000117  -0.000238
     6  C    0.011197   0.011453
     7  C   -0.036453  -0.001621
     8  C    0.439685   0.009916
     9  C   -0.056766  -0.053224
    10  Br  -0.000945  -0.000880
    11  C    0.009972   0.438830
    12  C   -0.001482  -0.034868
    13  H   -0.000000   0.001699
    14  H   -0.000000  -0.000004
    15  H   -0.000000  -0.000008
    16  H    0.000002   0.000000
    17  H    0.000000   0.000004
    18  H   -0.008543   0.000007
    19  H    0.543702  -0.000101
    20  H   -0.000101   0.552125
          Atomic-Atomic Spin Densities.
               1          2          3          4          5          6
     1  N    0.000559   0.000169  -0.000457  -0.000025   0.000029  -0.000058
     2  C    0.000169   0.025873  -0.018338   0.002137  -0.000682  -0.001141
     3  C   -0.000457  -0.018338   0.015730  -0.002258   0.005687  -0.007280
     4  C   -0.000025   0.002137  -0.002258  -0.001709   0.000923   0.001665
     5  C    0.000029  -0.000682   0.005687   0.000923  -0.001855  -0.034676
     6  C   -0.000058  -0.001141  -0.007280   0.001665  -0.034676   0.377748
     7  C   -0.000003  -0.000120   0.000161  -0.000025  -0.000047   0.024783
     8  C    0.000001   0.000040  -0.000063  -0.000017   0.000204  -0.007326
     9  C    0.000004   0.000120  -0.000069  -0.000030   0.000093  -0.009602
    10  Br  -0.000000  -0.000004   0.000004   0.000000  -0.000000   0.000110
    11  C    0.000021   0.000573   0.002904  -0.000148   0.000090  -0.005507
    12  C   -0.000291  -0.002084  -0.001828   0.001892  -0.004982   0.036408
    13  H   -0.000088  -0.003223   0.006129  -0.001300   0.000264  -0.000358
    14  H    0.000016   0.000293  -0.000497   0.000439  -0.000231   0.000172
    15  H    0.000008   0.000515  -0.002400   0.001628  -0.001584   0.001360
    16  H    0.000062   0.001156  -0.002657   0.001677   0.007159  -0.006615
    17  H   -0.000002  -0.000144   0.000753  -0.000908   0.008940  -0.005319
    18  H   -0.000000  -0.000001  -0.000001   0.000004   0.000044  -0.000422
    19  H    0.000000   0.000000  -0.000001  -0.000000   0.000005   0.000016
    20  H    0.000000   0.000005   0.000071   0.000003   0.000002   0.000072
               7          8          9         10         11         12
     1  N   -0.000003   0.000001   0.000004  -0.000000   0.000021  -0.000291
     2  C   -0.000120   0.000040   0.000120  -0.000004   0.000573  -0.002084
     3  C    0.000161  -0.000063  -0.000069   0.000004   0.002904  -0.001828
     4  C   -0.000025  -0.000017  -0.000030   0.000000  -0.000148   0.001892
     5  C   -0.000047   0.000204   0.000093  -0.000000   0.000090  -0.004982
     6  C    0.024783  -0.007326  -0.009602   0.000110  -0.005507   0.036408
     7  C   -0.052227  -0.024646  -0.005127   0.000362  -0.000803  -0.001026
     8  C   -0.024646   0.113303   0.038127  -0.005510   0.000165  -0.004087
     9  C   -0.005127   0.038127   0.295185  -0.062254   0.031036  -0.007314
    10  Br   0.000362  -0.005510  -0.062254   0.310164  -0.002538   0.000522
    11  C   -0.000803   0.000165   0.031036  -0.002538  -0.007092  -0.025241
    12  C   -0.001026  -0.004087  -0.007314   0.000522  -0.025241   0.046742
    13  H    0.000002   0.000006   0.000025  -0.000001   0.000242  -0.001786
    14  H   -0.000001  -0.000000   0.000000   0.000000  -0.000002  -0.000036
    15  H    0.000006  -0.000007  -0.000007   0.000000  -0.000048   0.000684
    16  H   -0.000615   0.000055   0.000026  -0.000000   0.000060  -0.000498
    17  H    0.000020   0.000038   0.000009  -0.000000   0.000005  -0.000091
    18  H    0.000590   0.000101   0.000077   0.000001  -0.000041   0.000059
    19  H    0.000140   0.001259  -0.000350  -0.000122  -0.000042  -0.000064
    20  H   -0.000046   0.000050  -0.000187  -0.000208   0.000690   0.000069
              13         14         15         16         17         18
     1  N   -0.000088   0.000016   0.000008   0.000062  -0.000002  -0.000000
     2  C   -0.003223   0.000293   0.000515   0.001156  -0.000144  -0.000001
     3  C    0.006129  -0.000497  -0.002400  -0.002657   0.000753  -0.000001
     4  C   -0.001300   0.000439   0.001628   0.001677  -0.000908   0.000004
     5  C    0.000264  -0.000231  -0.001584   0.007159   0.008940   0.000044
     6  C   -0.000358   0.000172   0.001360  -0.006615  -0.005319  -0.000422
     7  C    0.000002  -0.000001   0.000006  -0.000615   0.000020   0.000590
     8  C    0.000006  -0.000000  -0.000007   0.000055   0.000038   0.000101
     9  C    0.000025   0.000000  -0.000007   0.000026   0.000009   0.000077
    10  Br  -0.000001   0.000000   0.000000  -0.000000  -0.000000   0.000001
    11  C    0.000242  -0.000002  -0.000048   0.000060   0.000005  -0.000041
    12  C   -0.001786  -0.000036   0.000684  -0.000498  -0.000091   0.000059
    13  H    0.004676  -0.000030  -0.000295  -0.000053   0.000022  -0.000000
    14  H   -0.000030  -0.000722   0.000264   0.000178  -0.000042  -0.000000
    15  H   -0.000295   0.000264   0.001275   0.000279  -0.000530  -0.000000
    16  H   -0.000053   0.000178   0.000279   0.036843  -0.004178  -0.000012
    17  H    0.000022  -0.000042  -0.000530  -0.004178   0.016456  -0.000001
    18  H   -0.000000  -0.000000  -0.000000  -0.000012  -0.000001   0.000169
    19  H    0.000000   0.000000   0.000000   0.000000  -0.000000   0.000102
    20  H   -0.000019  -0.000000   0.000000   0.000000  -0.000000  -0.000001
              19         20
     1  N    0.000000   0.000000
     2  C    0.000000   0.000005
     3  C   -0.000001   0.000071
     4  C   -0.000000   0.000003
     5  C    0.000005   0.000002
     6  C    0.000016   0.000072
     7  C    0.000140  -0.000046
     8  C    0.001259   0.000050
     9  C   -0.000350  -0.000187
    10  Br  -0.000122  -0.000208
    11  C   -0.000042   0.000690
    12  C   -0.000064   0.000069
    13  H    0.000000  -0.000019
    14  H    0.000000  -0.000000
    15  H    0.000000   0.000000
    16  H    0.000000   0.000000
    17  H   -0.000000  -0.000000
    18  H    0.000102  -0.000001
    19  H   -0.006502   0.000003
    20  H    0.000003  -0.001436
 Mulliken charges and spin densities:
               1          2
     1  N    0.098587  -0.000054
     2  C   -0.152607   0.005144
     3  C   -0.109494  -0.004409
     4  C   -0.014267   0.003947
     5  C    0.065476  -0.020619
     6  C   -0.025965   0.364028
     7  C   -0.005251  -0.058621
     8  C    0.072350   0.111693
     9  C   -0.064601   0.279762
    10  Br   0.270023   0.240526
    11  C    0.068764  -0.005677
    12  C   -0.038740   0.037047
    13  H    0.122274   0.004211
    14  H    0.104894  -0.000200
    15  H    0.094794   0.001148
    16  H    0.131946   0.032866
    17  H    0.108794   0.015029
    18  H    0.087712   0.000667
    19  H    0.099828  -0.005557
    20  H    0.085483  -0.000931
 Sum of Mulliken charges =   1.00000   1.00000
 Mulliken charges and spin densities with hydrogens summed into heavy atoms:
               1          2
     1  N    0.098587  -0.000054
     2  C   -0.152607   0.005144
     3  C    0.012780  -0.000198
     4  C    0.185421   0.004895
     5  C    0.306216   0.027276
     6  C   -0.025965   0.364028
     7  C    0.082461  -0.057954
     8  C    0.172178   0.106136
     9  C   -0.064601   0.279762
    10  Br   0.270023   0.240526
    11  C    0.154247  -0.006608
    12  C   -0.038740   0.037047
 Electronic spatial extent (au):  <R**2>=           3270.6213
 Charge=              1.0000 electrons
 Dipole moment (field-independent basis, Debye):
    X=              0.2058    Y=              5.2441    Z=              2.1135  Tot=              5.6577
 Quadrupole moment (field-independent basis, Debye-Ang):
   XX=            -50.5862   YY=            -70.4080   ZZ=            -77.8036
   XY=            -12.6404   XZ=             -8.3017   YZ=             -9.1811
 Traceless Quadrupole moment (field-independent basis, Debye-Ang):
   XX=             15.6797   YY=             -4.1421   ZZ=            -11.5376
   XY=            -12.6404   XZ=             -8.3017   YZ=             -9.1811
 Octapole moment (field-independent basis, Debye-Ang**2):
  XXX=            105.7447  YYY=             33.9784  ZZZ=              9.5411  XYY=             46.4295
  XXY=             30.8549  XXZ=             24.7097  XZZ=             31.8011  YZZ=              2.1161
  YYZ=              6.7872  XYZ=             14.3907
 Hexadecapole moment (field-independent basis, Debye-Ang**3):
 XXXX=          -2386.8135 YYYY=           -796.7065 ZZZZ=           -224.6271 XXXY=           -208.1647
 XXXZ=            -70.0047 YYYX=           -128.8741 YYYZ=            -61.7421 ZZZX=            -15.8910
 ZZZY=            -16.0437 XXYY=           -613.4061 XXZZ=           -491.9096 YYZZ=           -182.6737
 XXYZ=            -55.5595 YYXZ=            -42.3998 ZZXY=            -35.4140
 N-N= 8.705512949900D+02 E-N=-8.891976435570D+03  KE= 3.006281802520D+03
 There are a total of      456026 grid points.
 ElSum from          density=      108.9999696395
 ElSum from atomic densities=      109.9998916332
 Hirshfeld populations at iteration   1 (CA, CB, DipXYZ):
               1          2          3          4          5
     1  N    3.583806   3.583975   0.006662   0.029378   0.042152
     2  C    2.969043   2.963913   0.034129   0.112711   0.159341
     3  C    2.990778   2.985796  -0.015247  -0.030444   0.001170
     4  C    3.013871   3.008283  -0.026725   0.002431  -0.002586
     5  C    3.023475   2.996869  -0.024919   0.023224  -0.005449
     6  C    3.067708   2.828903  -0.038850   0.040485  -0.009336
     7  C    2.998392   2.985641  -0.036078   0.065273  -0.025070
     8  C    3.037749   2.935180   0.045484   0.033688  -0.018803
     9  C    3.063302   2.845887   0.042947  -0.008512  -0.004770
    10  Br  17.509011  17.259462   0.153523  -0.062611   0.003972
    11  C    3.012399   2.984651   0.009303  -0.061268   0.016073
    12  C    3.006988   2.941407  -0.048831  -0.024878   0.020087
    13  H    0.462770   0.459762   0.002786  -0.091472   0.150807
    14  H    0.467366   0.467349  -0.164870  -0.033049  -0.024819
    15  H    0.473558   0.472166  -0.007085   0.052120   0.154898
    16  H    0.472805   0.448383  -0.078327  -0.004648  -0.154574
    17  H    0.469966   0.457885  -0.048729   0.156501   0.050669
    18  H    0.457676   0.458531  -0.026124   0.168778  -0.061026
    19  H    0.460060   0.456629   0.123885   0.120882  -0.056372
    20  H    0.459265   0.459313   0.013366  -0.169692   0.059889
       Tot  54.999985  53.999985  -0.083700   0.318897   0.296252

 Dip from Atomic Chgs              0.164632   1.744310   0.535248
         Total Dipole              0.080932   2.063208   0.831499

 Hirshfeld charges, spin densities, dipoles, and CM5 charges using IRadAn=      5:
              Q-H        S-H        Dx         Dy         Dz        Q-CM5   
     1  N   -0.167781  -0.000169   0.006662   0.029378   0.042152  -0.291576
     2  C    0.067044   0.005129   0.034129   0.112711   0.159341   0.179331
     3  C    0.023426   0.004981  -0.015247  -0.030444   0.001170  -0.027447
     4  C   -0.022154   0.005588  -0.026725   0.002431  -0.002586  -0.124406
     5  C   -0.020343   0.026606  -0.024919   0.023224  -0.005449  -0.120045
     6  C    0.103390   0.238805  -0.038850   0.040485  -0.009336   0.092155
     7  C    0.015967   0.012751  -0.036078   0.065273  -0.025070  -0.035914
     8  C    0.027071   0.102568   0.045484   0.033688  -0.018803  -0.025524
     9  C    0.090811   0.217414   0.042947  -0.008512  -0.004770   0.069633
    10  Br   0.231527   0.249549   0.153523  -0.062611   0.003972   0.246613
    11  C    0.002950   0.027748   0.009303  -0.061268   0.016073  -0.046716
    12  C    0.051604   0.065581  -0.048831  -0.024878   0.020087   0.043832
    13  H    0.077468   0.003009   0.002786  -0.091472   0.150807   0.136132
    14  H    0.065286   0.000017  -0.164870  -0.033049  -0.024819   0.119885
    15  H    0.054277   0.001392  -0.007085   0.052120   0.154898   0.109025
    16  H    0.078813   0.024422  -0.078327  -0.004648  -0.154574   0.133274
    17  H    0.072148   0.012081  -0.048729   0.156501   0.050669   0.125920
    18  H    0.083793  -0.000855  -0.026124   0.168778  -0.061026   0.138964
    19  H    0.083311   0.003431   0.123885   0.120882  -0.056372   0.139107
    20  H    0.081422  -0.000048   0.013366  -0.169692   0.059889   0.137788
       Tot   1.000030   1.000000  -0.083700   0.318897   0.296252   1.000030
 Hirshfeld charges and spin densities with hydrogens summed into heavy atoms:
              Q-H        S-H       Q-CM5   
     1  N   -0.167781  -0.000169  -0.291576
     2  C    0.067044   0.005129   0.179331
     3  C    0.100894   0.007990   0.108685
     4  C    0.097409   0.006997   0.104504
     5  C    0.130618   0.063109   0.139149
     6  C    0.103390   0.238805   0.092155
     7  C    0.099760   0.011896   0.103050
     8  C    0.110382   0.105999   0.113583
     9  C    0.090811   0.217414   0.069633
    10  Br   0.231527   0.249549   0.246613
    11  C    0.084372   0.027700   0.091072
    12  C    0.051604   0.065581   0.043832
 
 EQQ= 0.853838260731E-01 EQD=-0.496476432185E-01 EDD= 0.879727573254E-02
 EQQ+QD+DD= 0.445334585872E-01
 
                          Isotropic Fermi Contact Couplings
        Atom                 a.u.       MegaHertz       Gauss      10(-4) cm-1
     1  N(14)             -0.00049      -0.15768      -0.05626      -0.05260
     2  C(13)              0.00936      10.52105       3.75417       3.50945
     3  C(13)             -0.00297      -3.33343      -1.18945      -1.11191
     4  C(13)              0.00420       4.72491       1.68596       1.57606
     5  C(13)             -0.01251     -14.06779      -5.01974      -4.69251
     6  C(13)              0.05536      62.23875      22.20833      20.76061
     7  C(13)             -0.01961     -22.04711      -7.86696      -7.35412
     8  C(13)              0.00919      10.32949       3.68582       3.44555
     9  C(13)              0.04543      51.07403      18.22448      17.03646
    10  Br(79)             0.06619      74.38225      26.54144      24.81125
    11  C(13)             -0.01135     -12.76384      -4.55445      -4.25756
    12  C(13)             -0.00188      -2.10952      -0.75273      -0.70366
    13  H(1)               0.00198       8.84576       3.15639       2.95063
    14  H(1)              -0.00014      -0.62254      -0.22214      -0.20766
    15  H(1)               0.00031       1.40224       0.50035       0.46774
    16  H(1)               0.01587      70.93194      25.31028      23.66035
    17  H(1)               0.00749      33.46586      11.94145      11.16301
    18  H(1)               0.00011       0.49180       0.17549       0.16405
    19  H(1)              -0.00197      -8.81796      -3.14647      -2.94136
    20  H(1)              -0.00039      -1.72127      -0.61419      -0.57415
 --------------------------------------------------------
       Center         ----  Spin Dipole Couplings  ----
                      3XX-RR        3YY-RR        3ZZ-RR
 --------------------------------------------------------
     1   Atom       -0.003892     -0.000314      0.004206
     2   Atom       -0.000558      0.003518     -0.002960
     3   Atom       -0.002680      0.001701      0.000979
     4   Atom        0.004506     -0.003789     -0.000716
     5   Atom       -0.012525     -0.012776      0.025301
     6   Atom       -0.188729     -0.118212      0.306941
     7   Atom        0.012372      0.007214     -0.019586
     8   Atom       -0.071066     -0.040443      0.111509
     9   Atom       -0.171701     -0.112079      0.283779
    10   Atom       -1.605809     -0.949333      2.555141
    11   Atom       -0.005828     -0.002769      0.008597
    12   Atom       -0.041973     -0.023802      0.065775
    13   Atom       -0.000622      0.001181     -0.000559
    14   Atom        0.002888     -0.001398     -0.001490
    15   Atom        0.002150     -0.002710      0.000561
    16   Atom        0.003327     -0.006288      0.002961
    17   Atom        0.000808      0.004691     -0.005500
    18   Atom       -0.001015      0.004444     -0.003430
    19   Atom       -0.001731      0.004897     -0.003166
    20   Atom       -0.002164      0.005672     -0.003508
 --------------------------------------------------------
                        XY            XZ            YZ
 --------------------------------------------------------
     1   Atom        0.001668      0.000474      0.003852
     2   Atom        0.005505      0.002441      0.003660
     3   Atom        0.003926     -0.003445     -0.000816
     4   Atom        0.003757     -0.006067     -0.003419
     5   Atom       -0.002885      0.002323      0.013629
     6   Atom        0.012111      0.040369      0.192311
     7   Atom        0.002996     -0.002749     -0.010986
     8   Atom        0.007914      0.019282      0.063791
     9   Atom        0.014488      0.047054      0.172236
    10   Atom        0.209735      0.390625      1.511666
    11   Atom        0.003700     -0.002031      0.004322
    12   Atom        0.000785      0.003675      0.030141
    13   Atom        0.001679     -0.001191     -0.003048
    14   Atom        0.001507     -0.001030     -0.000552
    15   Atom        0.000515     -0.003701     -0.000614
    16   Atom       -0.001364      0.006800     -0.000434
    17   Atom       -0.005715     -0.000786      0.000343
    18   Atom        0.002952     -0.001444     -0.003755
    19   Atom        0.011115     -0.004481     -0.004976
    20   Atom        0.003554     -0.001672     -0.004130
 --------------------------------------------------------


 ---------------------------------------------------------------------------------
              Anisotropic Spin Dipole Couplings in Principal Axis System
 ---------------------------------------------------------------------------------

       Atom             a.u.   MegaHertz   Gauss  10(-4) cm-1        Axes

              Baa    -0.0047    -0.181    -0.065    -0.061  0.8702 -0.4675  0.1559
     1 N(14)  Bbb    -0.0019    -0.072    -0.026    -0.024  0.4780  0.7240 -0.4973
              Bcc     0.0066     0.253     0.090     0.084  0.1196  0.5072  0.8535
 
              Baa    -0.0046    -0.619    -0.221    -0.206  0.1015 -0.4647  0.8796
     2 C(13)  Bbb    -0.0044    -0.585    -0.209    -0.195  0.8392 -0.4348 -0.3266
              Bcc     0.0090     1.204     0.430     0.402  0.5342  0.7713  0.3459
 
              Baa    -0.0060    -0.806    -0.288    -0.269  0.8431 -0.3902  0.3701
     3 C(13)  Bbb     0.0005     0.064     0.023     0.021 -0.0402  0.6405  0.7669
              Bcc     0.0055     0.742     0.265     0.248  0.5362  0.6614 -0.5244
 
              Baa    -0.0060    -0.806    -0.288    -0.269  0.0376  0.8191  0.5725
     4 C(13)  Bbb    -0.0043    -0.575    -0.205    -0.192  0.6288 -0.4647  0.6235
              Bcc     0.0103     1.381     0.493     0.461  0.7767  0.3365 -0.5325
 
              Baa    -0.0190    -2.550    -0.910    -0.851  0.4726  0.8350 -0.2816
     5 C(13)  Bbb    -0.0107    -1.438    -0.513    -0.480  0.8807 -0.4590  0.1169
              Bcc     0.0297     3.988     1.423     1.330  0.0316  0.3033  0.9524
 
              Baa    -0.1953   -26.202    -9.350    -8.740  0.6783  0.6663 -0.3097
     6 C(13)  Bbb    -0.1888   -25.341    -9.042    -8.453  0.7311 -0.6541  0.1942
              Bcc     0.3841    51.543    18.392    17.193  0.0732  0.3581  0.9308
 
              Baa    -0.0236    -3.165    -1.129    -1.056  0.0444  0.3318  0.9423
     7 C(13)  Bbb     0.0080     1.073     0.383     0.358 -0.6430  0.7314 -0.2272
              Bcc     0.0156     2.092     0.747     0.698  0.7646  0.5958 -0.2458
 
              Baa    -0.0732    -9.826    -3.506    -3.278  0.9913 -0.1157 -0.0635
     8 C(13)  Bbb    -0.0636    -8.534    -3.045    -2.847  0.0865  0.9330 -0.3494
              Bcc     0.1368    18.361     6.552     6.124  0.0997  0.3409  0.9348
 
              Baa    -0.1793   -24.064    -8.587    -8.027  0.6906  0.6522 -0.3127
     9 C(13)  Bbb    -0.1735   -23.283    -8.308    -7.766  0.7172 -0.6733  0.1798
              Bcc     0.3528    47.347    16.894    15.793  0.0933  0.3484  0.9327
 
              Baa    -1.6693  -223.911   -79.897   -74.689  0.9305 -0.3636  0.0441
    10 Br(79) Bbb    -1.4883  -199.641   -71.237   -66.593  0.3546  0.8641 -0.3573
              Bcc     3.1576   423.552   151.134   141.282  0.0918  0.3481  0.9330
 
              Baa    -0.0093    -1.245    -0.444    -0.415  0.7719 -0.5924  0.2310
    11 C(13)  Bbb    -0.0008    -0.109    -0.039    -0.037  0.6338  0.7457 -0.2057
              Bcc     0.0101     1.354     0.483     0.452 -0.0504  0.3051  0.9510
 
              Baa    -0.0421    -5.650    -2.016    -1.885  0.9989  0.0245 -0.0409
    12 C(13)  Bbb    -0.0330    -4.427    -1.580    -1.477 -0.0353  0.9562 -0.2905
              Bcc     0.0751    10.077     3.596     3.361  0.0320  0.2916  0.9560
 
              Baa    -0.0029    -1.526    -0.545    -0.509 -0.0381  0.6117  0.7901
    13 H(1)   Bbb    -0.0015    -0.786    -0.281    -0.262  0.9228 -0.2818  0.2627
              Bcc     0.0043     2.313     0.825     0.771  0.3834  0.7392 -0.5538
 
              Baa    -0.0020    -1.084    -0.387    -0.362 -0.1236  0.8025  0.5837
    14 H(1)   Bbb    -0.0016    -0.849    -0.303    -0.283  0.3528 -0.5143  0.7817
              Bcc     0.0036     1.933     0.690     0.645  0.9275  0.3025 -0.2195
 
              Baa    -0.0028    -1.518    -0.542    -0.506  0.1460  0.9336  0.3271
    15 H(1)   Bbb    -0.0024    -1.267    -0.452    -0.423  0.6177 -0.3443  0.7070
              Bcc     0.0052     2.784     0.994     0.929  0.7727  0.0988 -0.6270
 
              Baa    -0.0065    -3.484    -1.243    -1.162  0.2056  0.9732 -0.1028
    16 H(1)   Bbb    -0.0035    -1.876    -0.670    -0.626 -0.6662  0.2161  0.7138
              Bcc     0.0100     5.361     1.913     1.788  0.7169 -0.0782  0.6928
 
              Baa    -0.0056    -2.999    -1.070    -1.000  0.1795  0.0669  0.9815
    17 H(1)   Bbb    -0.0032    -1.709    -0.610    -0.570  0.7923  0.5816 -0.1846
              Bcc     0.0088     4.708     1.680     1.570 -0.5831  0.8108  0.0514
 
              Baa    -0.0050    -2.643    -0.943    -0.882  0.0820  0.3475  0.9341
    18 H(1)   Bbb    -0.0023    -1.224    -0.437    -0.408  0.9259 -0.3734  0.0576
              Bcc     0.0072     3.867     1.380     1.290  0.3688  0.8601 -0.3523
 
              Baa    -0.0101    -5.385    -1.921    -1.796  0.8162 -0.5647  0.1223
    19 H(1)   Bbb    -0.0055    -2.916    -1.041    -0.973  0.0978  0.3436  0.9340
              Bcc     0.0156     8.301     2.962     2.769  0.5694  0.7504 -0.3357
 
              Baa    -0.0051    -2.743    -0.979    -0.915  0.1633  0.3047  0.9383
    20 H(1)   Bbb    -0.0035    -1.885    -0.673    -0.629  0.9261 -0.3753 -0.0393
              Bcc     0.0087     4.628     1.651     1.544  0.3401  0.8754 -0.3435
 

 ---------------------------------------------------------------------------------

 Running external command "gaunbo6 R"
         input file       "/home/rpaton/opt/dzvp/fukui/Gau-1748979.EIn"
         output file      "/home/rpaton/opt/dzvp/fukui/Gau-1748979.EOu"
         message file     "/home/rpaton/opt/dzvp/fukui/Gau-1748979.EMs"
         fchk file        "/home/rpaton/opt/dzvp/fukui/Gau-1748979.EFC"
         mat. el file     "/home/rpaton/opt/dzvp/fukui/Gau-1748979.EUF"

 Writing WrtUnf unformatted file "/home/rpaton/opt/dzvp/fukui/Gau-1748979.EUF"
 Gaussian matrix elements                                         Version   2 NLab=11 Len12L=8 Len4L=8
 Write SHELL TO ATOM MAP                   from file      0 offset           0 length                 102 to matrix element file.
 Write SHELL TYPES                         from file      0 offset           0 length                 102 to matrix element file.
 Write NUMBER OF PRIMITIVES PER SHELL      from file      0 offset           0 length                 102 to matrix element file.
 Write PRIMITIVE EXPONENTS                 from file      0 offset           0 length                 202 to matrix element file.
 Write CONTRACTION COEFFICIENTS            from file      0 offset           0 length                 202 to matrix element file.
 Write P(S=P) CONTRACTION COEFFICIENTS     from file      0 offset           0 length                 202 to matrix element file.
 Write COORDINATES OF EACH SHELL           from file      0 offset           0 length                 306 to matrix element file.
 Write BONDS PER ATOM                      from file      0 offset           0 length                  20 to matrix element file.
 Write BONDED ATOMS                        from file      0 offset           0 length                  42 to matrix element file.
 Write BOND TYPES                          from file      0 offset           0 length                  42 to matrix element file.
 Write ONIOM CHARGE/MULT                   from file      0 offset           0 length                  32 to matrix element file.
 Write ONIOM ATOM LAYERS                   from file      0 offset           0 length                  20 to matrix element file.
 Write ONIOM ATOM MODIFIERS                from file      0 offset           0 length                  20 to matrix element file.
 Write ONIOM ATOM TYPES                    from file      0 offset           0 length                  20 to matrix element file.
 Write ONIOM LINK ATOMS                    from file      0 offset           0 length                  20 to matrix element file.
 Write ONIOM LINK CHARGES                  from file      0 offset           0 length                  20 to matrix element file.
 Write ONIOM LINK DISTANCES                from file      0 offset           0 length                  80 to matrix element file.
 Write SYMINF INTS                         from file      0 offset           0 length                  26 to matrix element file.
 Write ROTTR TO SO                         from file      0 offset           0 length                  12 to matrix element file.
 Write GAUSSIAN SCALARS                    from file    501 offset           0 to matrix element file.
 Write OPTIMIZATION FLAGS                  from file      0 offset           0 length                  20 to matrix element file.
 Write INTEGER ISO                         from file      0 offset           0 length                  20 to matrix element file.
 Write INTEGER SPIN                        from file      0 offset           0 length                  20 to matrix element file.
 Write REAL ZEFFECTIVE                     from file      0 offset           0 length                  20 to matrix element file.
 Write REAL QUADRUPOLEMOMENT               from file      0 offset           0 length                  20 to matrix element file.
 Write REAL GFACTOR                        from file      0 offset           0 length                  20 to matrix element file.
 Write REAL ZNUCLEAR                       from file      0 offset           0 length                  20 to matrix element file.
 Write MULLIKEN CHARGES                    from file      0 offset           0 length                  20 to matrix element file.
 Write TYPE 6 CHARGES                      from file      0 offset           0 length                  20 to matrix element file.
 Write TYPE 7 CHARGES                      from file      0 offset           0 length                  20 to matrix element file.
 Write NUCLEAR GRADIENT                    from file  10584 offset           0 length                  60 to matrix element file.
 Array NUCLEAR FORCE CONSTANTS              on  file  10585 does not exist.
 Write ELECTRIC DIPOLE MOMENT              from file      0 offset           0 length                   3 to matrix element file.
 Write NON-ADIABATIC COUPLING              from file  10810 offset           0 length                  60 to matrix element file.
 Write FINITE EM FIELD                     from file  10521 offset           0 length                  35 to matrix element file.
 Write OVERLAP                             from file  10514 offset           0 length               25651 to matrix element file.
 Write CORE HAMILTONIAN ALPHA              from file  10515 offset           0 length               25651 to matrix element file.
 Write CORE HAMILTONIAN BETA               from file  10515 offset       25651 length               25651 to matrix element file.
 Write KINETIC ENERGY                      from file  10516 offset           0 length               25651 to matrix element file.
 Write ORTHOGONAL BASIS                    from file  10685 offset           0 length               51076 to matrix element file.
 Write DIPOLE INTEGRALS                    from file  10518 offset           0 length               76953 to matrix element file.
 Array DIP VEL INTEGRALS                    on  file  10572 does not exist.
 Array R X DEL INTEGRALS                    on  file  10572 does not exist.
 Write ALPHA ORBITAL ENERGIES              from file      0 offset           0 length                 226 to matrix element file.
 Write BETA ORBITAL ENERGIES               from file      0 offset           0 length                 226 to matrix element file.
 Write ALPHA MO COEFFICIENTS               from file  10524 offset           0 length               51076 to matrix element file.
 Write BETA MO COEFFICIENTS                from file  10526 offset           0 length               51076 to matrix element file.
 Write ALPHA DENSITY MATRIX                from file      0 offset           0 length               25651 to matrix element file.
 Write BETA DENSITY MATRIX                 from file      0 offset           0 length               25651 to matrix element file.
 Write ALPHA FOCK MATRIX                   from file  10536 offset           0 length               25651 to matrix element file.
 Write BETA FOCK MATRIX                    from file  10538 offset           0 length               25651 to matrix element file.
 Write ENERGY-WEIGHTED DENSITY             from file  10571 offset           0 length               25651 to matrix element file.
 Write ALPHA SCF DENSITY MATRIX            from file      0 offset           0 length               25651 to matrix element file.
 Write BETA SCF DENSITY MATRIX             from file      0 offset           0 length               25651 to matrix element file.
 No 2e integrals to process.
 Perform NBO analysis...

 *********************************** NBO 7.0 ***********************************
             N A T U R A L   A T O M I C   O R B I T A L   A N D
          N A T U R A L   B O N D   O R B I T A L   A N A L Y S I S
 **************************** Robert Paton (I101709) ***************************
  (c) Copyright 1996-2019 Board of Regents of the University of Wisconsin System
      on behalf of the Theoretical Chemistry Institute.  All rights reserved.

          Cite this program [NBO 7.0.5 (4-Jun-2019)] as:

          NBO 7.0.  E. D. Glendening, J. K. Badenhoop, A. E. Reed,
          J. E. Carpenter, J. A. Bohmann, C. M. Morales, P. Karafiloglou,
          C. R. Landis, and F. Weinhold, Theoretical Chemistry Institute,
          University of Wisconsin, Madison, WI (2018)

 Filename set to /home/rpaton/opt/dzvp/fukui/Gau-1748979

 Job title:  arbr41_wb97xd_popncreated by GaussianPrep


 NATURAL POPULATIONS:  Natural atomic orbital occupancies

  NAO Atom No lang   Type(AO)    Occupancy     Spin
 -----------------------------------------------------
   1    N  1  s      Cor( 1s)     1.99995     0.00000
   2    N  1  s      Val( 2s)     1.58963     0.00001
   3    N  1  s      Ryd( 3s)     0.00768     0.00004
   4    N  1  px     Val( 2p)     1.09405    -0.00113
   5    N  1  px     Ryd( 3p)     0.00023     0.00000
   6    N  1  py     Val( 2p)     1.26157    -0.00056
   7    N  1  py     Ryd( 3p)     0.00068     0.00000
   8    N  1  pz     Val( 2p)     1.30608     0.00084
   9    N  1  pz     Ryd( 3p)     0.00101     0.00000
  10    N  1  dxy    Ryd( 3d)     0.00166     0.00000
  11    N  1  dxz    Ryd( 3d)     0.00192     0.00000
  12    N  1  dyz    Ryd( 3d)     0.00295     0.00000
  13    N  1  dx2y2  Ryd( 3d)     0.00167     0.00000
  14    N  1  dz2    Ryd( 3d)     0.00276     0.00000

  15    C  2  s      Cor( 1s)     1.99993     0.00000
  16    C  2  s      Val( 2s)     0.81137     0.00216
  17    C  2  s      Ryd( 3s)     0.00994     0.00029
  18    C  2  px     Val( 2p)     0.94886     0.00130
  19    C  2  px     Ryd( 3p)     0.00496     0.00001
  20    C  2  py     Val( 2p)     0.95799     0.00142
  21    C  2  py     Ryd( 3p)     0.01049     0.00001
  22    C  2  pz     Val( 2p)     0.96013     0.00076
  23    C  2  pz     Ryd( 3p)     0.01048     0.00000
  24    C  2  dxy    Ryd( 3d)     0.00073     0.00000
  25    C  2  dxz    Ryd( 3d)     0.00081     0.00000
  26    C  2  dyz    Ryd( 3d)     0.00078     0.00000
  27    C  2  dx2y2  Ryd( 3d)     0.00065     0.00000
  28    C  2  dz2    Ryd( 3d)     0.00141     0.00000

  29    C  3  s      Cor( 1s)     1.99993     0.00000
  30    C  3  s      Val( 2s)     0.96537    -0.00033
  31    C  3  s      Ryd( 3s)     0.00100     0.00002
  32    C  3  px     Val( 2p)     1.05113    -0.00133
  33    C  3  px     Ryd( 3p)     0.00230    -0.00001
  34    C  3  py     Val( 2p)     1.12897    -0.00063
  35    C  3  py     Ryd( 3p)     0.00386     0.00002
  36    C  3  pz     Val( 2p)     1.19834     0.00019
  37    C  3  pz     Ryd( 3p)     0.00333    -0.00001
  38    C  3  dxy    Ryd( 3d)     0.00080     0.00001
  39    C  3  dxz    Ryd( 3d)     0.00066     0.00000
  40    C  3  dyz    Ryd( 3d)     0.00118     0.00004
  41    C  3  dx2y2  Ryd( 3d)     0.00077     0.00000
  42    C  3  dz2    Ryd( 3d)     0.00074     0.00000

  43    C  4  s      Cor( 1s)     1.99993     0.00000
  44    C  4  s      Val( 2s)     1.02835     0.00038
  45    C  4  s      Ryd( 3s)     0.00067     0.00001
  46    C  4  px     Val( 2p)     1.18121     0.00056
  47    C  4  px     Ryd( 3p)     0.00523     0.00001
  48    C  4  py     Val( 2p)     1.00636     0.00011
  49    C  4  py     Ryd( 3p)     0.00255    -0.00001
  50    C  4  pz     Val( 2p)     1.18251     0.00161
  51    C  4  pz     Ryd( 3p)     0.00340    -0.00002
  52    C  4  dxy    Ryd( 3d)     0.00080     0.00000
  53    C  4  dxz    Ryd( 3d)     0.00043     0.00000
  54    C  4  dyz    Ryd( 3d)     0.00065     0.00000
  55    C  4  dx2y2  Ryd( 3d)     0.00057     0.00001
  56    C  4  dz2    Ryd( 3d)     0.00086     0.00000

  57    C  5  s      Cor( 1s)     1.99994     0.00000
  58    C  5  s      Val( 2s)     1.03099    -0.00228
  59    C  5  s      Ryd( 3s)     0.00083     0.00001
  60    C  5  px     Val( 2p)     1.02831    -0.00871
  61    C  5  px     Ryd( 3p)     0.00245     0.00005
  62    C  5  py     Val( 2p)     1.20460    -0.00081
  63    C  5  py     Ryd( 3p)     0.00521     0.00009
  64    C  5  pz     Val( 2p)     1.19847     0.00971
  65    C  5  pz     Ryd( 3p)     0.00221     0.00041
  66    C  5  dxy    Ryd( 3d)     0.00037     0.00001
  67    C  5  dxz    Ryd( 3d)     0.00033     0.00012
  68    C  5  dyz    Ryd( 3d)     0.00067     0.00001
  69    C  5  dx2y2  Ryd( 3d)     0.00101     0.00001
  70    C  5  dz2    Ryd( 3d)     0.00094     0.00002

  71    C  6  s      Cor( 1s)     1.99996     0.00000
  72    C  6  s      Val( 2s)     0.88658     0.01244
  73    C  6  s      Ryd( 3s)     0.00247     0.00008
  74    C  6  px     Val( 2p)     1.09721     0.00818
  75    C  6  px     Ryd( 3p)     0.00518     0.00004
  76    C  6  py     Val( 2p)     1.04120     0.04051
  77    C  6  py     Ryd( 3p)     0.00316     0.00006
  78    C  6  pz     Val( 2p)     0.80528     0.25330
  79    C  6  pz     Ryd( 3p)     0.00201     0.00031
  80    C  6  dxy    Ryd( 3d)     0.00105     0.00002
  81    C  6  dxz    Ryd( 3d)     0.00100     0.00009
  82    C  6  dyz    Ryd( 3d)     0.00074    -0.00001
  83    C  6  dx2y2  Ryd( 3d)     0.00110     0.00002
  84    C  6  dz2    Ryd( 3d)     0.00068    -0.00012

  85    C  7  s      Cor( 1s)     1.99995     0.00000
  86    C  7  s      Val( 2s)     0.95257    -0.00314
  87    C  7  s      Ryd( 3s)     0.00104     0.00003
  88    C  7  px     Val( 2p)     1.05368    -0.00555
  89    C  7  px     Ryd( 3p)     0.00390     0.00007
  90    C  7  py     Val( 2p)     1.18703    -0.00471
  91    C  7  py     Ryd( 3p)     0.00688     0.00010
  92    C  7  pz     Val( 2p)     0.97789    -0.01740
  93    C  7  pz     Ryd( 3p)     0.00155     0.00013
  94    C  7  dxy    Ryd( 3d)     0.00092     0.00002
  95    C  7  dxz    Ryd( 3d)     0.00051     0.00013
  96    C  7  dyz    Ryd( 3d)     0.00062     0.00000
  97    C  7  dx2y2  Ryd( 3d)     0.00078    -0.00001
  98    C  7  dz2    Ryd( 3d)     0.00058     0.00004

  99    C  8  s      Cor( 1s)     1.99995     0.00000
 100    C  8  s      Val( 2s)     0.96452     0.00298
 101    C  8  s      Ryd( 3s)     0.00155     0.00001
 102    C  8  px     Val( 2p)     1.16456     0.00378
 103    C  8  px     Ryd( 3p)     0.00749     0.00007
 104    C  8  py     Val( 2p)     1.08381     0.00918
 105    C  8  py     Ryd( 3p)     0.00427     0.00003
 106    C  8  pz     Val( 2p)     0.92382     0.09057
 107    C  8  pz     Ryd( 3p)     0.00171     0.00016
 108    C  8  dxy    Ryd( 3d)     0.00072    -0.00002
 109    C  8  dxz    Ryd( 3d)     0.00068    -0.00009
 110    C  8  dyz    Ryd( 3d)     0.00063     0.00013
 111    C  8  dx2y2  Ryd( 3d)     0.00107     0.00003
 112    C  8  dz2    Ryd( 3d)     0.00060     0.00003

 113    C  9  s      Cor( 1s)     1.99996     0.00000
 114    C  9  s      Val( 2s)     0.95663     0.01009
 115    C  9  s      Ryd( 3s)     0.00104    -0.00002
 116    C  9  px     Val( 2p)     1.01689     0.00666
 117    C  9  px     Ryd( 3p)     0.00737    -0.00005
 118    C  9  py     Val( 2p)     1.07085     0.03032
 119    C  9  py     Ryd( 3p)     0.00738    -0.00015
 120    C  9  pz     Val( 2p)     0.94846     0.20380
 121    C  9  pz     Ryd( 3p)     0.00276    -0.00047
 122    C  9  dxy    Ryd( 3d)     0.00161     0.00001
 123    C  9  dxz    Ryd( 3d)     0.00113     0.00005
 124    C  9  dyz    Ryd( 3d)     0.00089     0.00003
 125    C  9  dx2y2  Ryd( 3d)     0.00173     0.00002
 126    C  9  dz2    Ryd( 3d)     0.00101    -0.00010

 127   Br 10  s      Cor( 1s)     2.00000     0.00000
 128   Br 10  s      Cor( 2s)     2.00000     0.00000
 129   Br 10  s      Cor( 3s)     2.00000     0.00000
 130   Br 10  s      Val( 4s)     1.85914     0.00208
 131   Br 10  s      Ryd( 5s)     0.00273     0.00007
 132   Br 10  px     Cor( 2p)     2.00000     0.00000
 133   Br 10  px     Cor( 3p)     2.00000     0.00000
 134   Br 10  px     Val( 4p)     1.21583    -0.00463
 135   Br 10  px     Ryd( 5p)     0.00246     0.00009
 136   Br 10  py     Cor( 2p)     2.00000     0.00000
 137   Br 10  py     Cor( 3p)     2.00000     0.00000
 138   Br 10  py     Val( 4p)     1.83270     0.03102
 139   Br 10  py     Ryd( 5p)     0.00143     0.00003
 140   Br 10  pz     Cor( 2p)     2.00000     0.00000
 141   Br 10  pz     Cor( 3p)     2.00000     0.00000
 142   Br 10  pz     Val( 4p)     1.71945     0.22759
 143   Br 10  pz     Ryd( 5p)     0.00089     0.00034
 144   Br 10  dxy    Cor( 3d)     2.00000     0.00000
 145   Br 10  dxy    Ryd( 4d)     0.00351    -0.00015
 146   Br 10  dxy    Ryd( 5d)     0.00001     0.00000
 147   Br 10  dxz    Cor( 3d)     2.00000     0.00000
 148   Br 10  dxz    Ryd( 4d)     0.00287    -0.00077
 149   Br 10  dxz    Ryd( 5d)     0.00002     0.00000
 150   Br 10  dyz    Cor( 3d)     2.00000     0.00000
 151   Br 10  dyz    Ryd( 4d)     0.00045    -0.00010
 152   Br 10  dyz    Ryd( 5d)     0.00000     0.00000
 153   Br 10  dx2y2  Cor( 3d)     1.99999     0.00000
 154   Br 10  dx2y2  Ryd( 4d)     0.00408    -0.00011
 155   Br 10  dx2y2  Ryd( 5d)     0.00001     0.00000
 156   Br 10  dz2    Cor( 3d)     2.00000     0.00000
 157   Br 10  dz2    Ryd( 4d)     0.00206     0.00010
 158   Br 10  dz2    Ryd( 5d)     0.00000     0.00000

 159    C 11  s      Cor( 1s)     1.99995     0.00000
 160    C 11  s      Val( 2s)     0.94485    -0.00151
 161    C 11  s      Ryd( 3s)     0.00178     0.00000
 162    C 11  px     Val( 2p)     1.06557    -0.00393
 163    C 11  px     Ryd( 3p)     0.00480     0.00003
 164    C 11  py     Val( 2p)     1.19487    -0.00048
 165    C 11  py     Ryd( 3p)     0.00762     0.00006
 166    C 11  pz     Val( 2p)     0.96607     0.00849
 167    C 11  pz     Ryd( 3p)     0.00186     0.00016
 168    C 11  dxy    Ryd( 3d)     0.00103     0.00001
 169    C 11  dxz    Ryd( 3d)     0.00053     0.00007
 170    C 11  dyz    Ryd( 3d)     0.00067     0.00001
 171    C 11  dx2y2  Ryd( 3d)     0.00067    -0.00001
 172    C 11  dz2    Ryd( 3d)     0.00063     0.00003

 173    C 12  s      Cor( 1s)     1.99996     0.00000
 174    C 12  s      Val( 2s)     0.86515     0.00056
 175    C 12  s      Ryd( 3s)     0.00249     0.00005
 176    C 12  px     Val( 2p)     1.08300     0.00137
 177    C 12  px     Ryd( 3p)     0.00494     0.00008
 178    C 12  py     Val( 2p)     1.05530     0.00154
 179    C 12  py     Ryd( 3p)     0.00405     0.00005
 180    C 12  pz     Val( 2p)     0.94502     0.05037
 181    C 12  pz     Ryd( 3p)     0.00267     0.00014
 182    C 12  dxy    Ryd( 3d)     0.00087    -0.00002
 183    C 12  dxz    Ryd( 3d)     0.00075    -0.00005
 184    C 12  dyz    Ryd( 3d)     0.00067     0.00017
 185    C 12  dx2y2  Ryd( 3d)     0.00110     0.00004
 186    C 12  dz2    Ryd( 3d)     0.00058     0.00004

 187    H 13  s      Val( 1s)     0.68961     0.00377
 188    H 13  s      Ryd( 2s)     0.00184     0.00005
 189    H 13  px     Ryd( 2p)     0.00005     0.00000
 190    H 13  py     Ryd( 2p)     0.00029     0.00000
 191    H 13  pz     Ryd( 2p)     0.00087     0.00001

 192    H 14  s      Val( 1s)     0.72376    -0.00024
 193    H 14  s      Ryd( 2s)     0.00084    -0.00002
 194    H 14  px     Ryd( 2p)     0.00095     0.00000
 195    H 14  py     Ryd( 2p)     0.00011     0.00000
 196    H 14  pz     Ryd( 2p)     0.00009     0.00000

 197    H 15  s      Val( 1s)     0.74455     0.00080
 198    H 15  s      Ryd( 2s)     0.00172     0.00002
 199    H 15  px     Ryd( 2p)     0.00007     0.00000
 200    H 15  py     Ryd( 2p)     0.00016     0.00000
 201    H 15  pz     Ryd( 2p)     0.00094     0.00000

 202    H 16  s      Val( 1s)     0.70219     0.02743
 203    H 16  s      Ryd( 2s)     0.00147     0.00030
 204    H 16  px     Ryd( 2p)     0.00028    -0.00001
 205    H 16  py     Ryd( 2p)     0.00008     0.00000
 206    H 16  pz     Ryd( 2p)     0.00084     0.00006

 207    H 17  s      Val( 1s)     0.71501     0.01273
 208    H 17  s      Ryd( 2s)     0.00119     0.00012
 209    H 17  px     Ryd( 2p)     0.00014     0.00000
 210    H 17  py     Ryd( 2p)     0.00082     0.00003
 211    H 17  pz     Ryd( 2p)     0.00016     0.00000

 212    H 18  s      Val( 1s)     0.72244     0.00040
 213    H 18  s      Ryd( 2s)     0.00112    -0.00001
 214    H 18  px     Ryd( 2p)     0.00005     0.00000
 215    H 18  py     Ryd( 2p)     0.00093     0.00000
 216    H 18  pz     Ryd( 2p)     0.00021     0.00000

 217    H 19  s      Val( 1s)     0.71666    -0.00373
 218    H 19  s      Ryd( 2s)     0.00131    -0.00003
 219    H 19  px     Ryd( 2p)     0.00067    -0.00001
 220    H 19  py     Ryd( 2p)     0.00038     0.00000
 221    H 19  pz     Ryd( 2p)     0.00018     0.00001

 222    H 20  s      Val( 1s)     0.71326    -0.00061
 223    H 20  s      Ryd( 2s)     0.00123    -0.00003
 224    H 20  px     Ryd( 2p)     0.00008     0.00000
 225    H 20  py     Ryd( 2p)     0.00095     0.00000
 226    H 20  pz     Ryd( 2p)     0.00021     0.00000


 Summary of Natural Population Analysis:

                                     Natural Population                 Natural
             Natural    ---------------------------------------------    Spin
  Atom No    Charge        Core      Valence    Rydberg      Total      Density
 -------------------------------------------------------------------------------
    N  1   -0.27184      1.99995     5.25133    0.02056     7.27184    -0.00079
    C  2    0.28146      1.99993     3.67835    0.04026     5.71854     0.00594
    C  3   -0.35836      1.99993     4.34381    0.01463     6.35836    -0.00205
    C  4   -0.41354      1.99993     4.39843    0.01518     6.41354     0.00268
    C  5   -0.47633      1.99994     4.46237    0.01403     6.47633    -0.00134
    C  6    0.15239      1.99996     3.83027    0.01738     5.84761     0.31491
    C  7   -0.18791      1.99995     4.17118    0.01678     6.18791    -0.03027
    C  8   -0.15539      1.99995     4.13672    0.01871     6.15539     0.10686
    C  9   -0.01773      1.99996     3.99283    0.02493     6.01773     0.25018
   Br 10    0.35237     27.99997     6.62712    0.02054    34.64763     0.25556
    C 11   -0.19088      1.99995     4.17135    0.01958     6.19088     0.00295
    C 12    0.03345      1.99996     3.94848    0.01812     5.96655     0.05434
    H 13    0.30733      0.00000     0.68961    0.00305     0.69267     0.00382
    H 14    0.27425      0.00000     0.72376    0.00199     0.72575    -0.00025
    H 15    0.25255      0.00000     0.74455    0.00289     0.74745     0.00082
    H 16    0.29515      0.00000     0.70219    0.00266     0.70485     0.02778
    H 17    0.28268      0.00000     0.71501    0.00231     0.71732     0.01287
    H 18    0.27526      0.00000     0.72244    0.00230     0.72474     0.00039
    H 19    0.28080      0.00000     0.71666    0.00254     0.71920    -0.00375
    H 20    0.28427      0.00000     0.71326    0.00246     0.71573    -0.00064
 ===============================================================================
 * Total *  1.00000     49.99938    58.73971    0.26090   109.00000     1.00000

                                 Natural Population
 ---------------------------------------------------------
   Core                      49.99938 ( 99.9988% of   50)
   Valence                   58.73971 ( 99.5588% of   59)
   Natural Minimal Basis    108.73910 ( 99.7606% of  109)
   Natural Rydberg Basis      0.26090 (  0.2394% of  109)
 ---------------------------------------------------------

    Atom No         Natural Electron Configuration
 ----------------------------------------------------------------------------
      N  1      [core]2s( 1.59)2p( 3.66)3s( 0.01)3d( 0.01)
      C  2      [core]2s( 0.81)2p( 2.87)3s( 0.01)3p( 0.03)
      C  3      [core]2s( 0.97)2p( 3.38)3p( 0.01)
      C  4      [core]2s( 1.03)2p( 3.37)3p( 0.01)
      C  5      [core]2s( 1.03)2p( 3.43)3p( 0.01)
      C  6      [core]2s( 0.89)2p( 2.94)3p( 0.01)
      C  7      [core]2s( 0.95)2p( 3.22)3p( 0.01)
      C  8      [core]2s( 0.96)2p( 3.17)3p( 0.01)
      C  9      [core]2s( 0.96)2p( 3.04)3p( 0.02)3d( 0.01)
     Br 10      [core]4s( 1.86)4p( 4.77)4d( 0.01)
      C 11      [core]2s( 0.94)2p( 3.23)3p( 0.01)
      C 12      [core]2s( 0.87)2p( 3.08)3p( 0.01)
      H 13            1s( 0.69)
      H 14            1s( 0.72)
      H 15            1s( 0.74)
      H 16            1s( 0.70)
      H 17            1s( 0.72)
      H 18            1s( 0.72)
      H 19            1s( 0.72)
      H 20            1s( 0.71)


 ***************************************************
 *******         Alpha spin orbitals         *******
 ***************************************************


 NATURAL POPULATIONS:  Natural atomic orbital occupancies

  NAO Atom No lang   Type(AO)    Occupancy      Energy
 -------------------------------------------------------
   1    N  1  s      Cor( 1s)     0.99998     -14.57102
   2    N  1  s      Val( 2s)     0.79482      -0.55010
   3    N  1  s      Ryd( 3s)     0.00386       1.19903
   4    N  1  px     Val( 2p)     0.54646      -0.27452
   5    N  1  px     Ryd( 3p)     0.00012       0.83491
   6    N  1  py     Val( 2p)     0.63050      -0.29651
   7    N  1  py     Ryd( 3p)     0.00034       0.83027
   8    N  1  pz     Val( 2p)     0.65346      -0.30313
   9    N  1  pz     Ryd( 3p)     0.00051       0.82415
  10    N  1  dxy    Ryd( 3d)     0.00083       2.30664
  11    N  1  dxz    Ryd( 3d)     0.00096       2.34128
  12    N  1  dyz    Ryd( 3d)     0.00148       2.68055
  13    N  1  dx2y2  Ryd( 3d)     0.00084       2.29826
  14    N  1  dz2    Ryd( 3d)     0.00138       2.37461

  15    C  2  s      Cor( 1s)     0.99996     -10.46819
  16    C  2  s      Val( 2s)     0.40676      -0.18030
  17    C  2  s      Ryd( 3s)     0.00512       0.54157
  18    C  2  px     Val( 2p)     0.47508      -0.21293
  19    C  2  px     Ryd( 3p)     0.00249       0.55210
  20    C  2  py     Val( 2p)     0.47970      -0.14510
  21    C  2  py     Ryd( 3p)     0.00525       0.57947
  22    C  2  pz     Val( 2p)     0.48044      -0.12398
  23    C  2  pz     Ryd( 3p)     0.00524       0.57016
  24    C  2  dxy    Ryd( 3d)     0.00036       2.02309
  25    C  2  dxz    Ryd( 3d)     0.00041       2.07086
  26    C  2  dyz    Ryd( 3d)     0.00039       2.52471
  27    C  2  dx2y2  Ryd( 3d)     0.00032       1.99560
  28    C  2  dz2    Ryd( 3d)     0.00070       2.18022

  29    C  3  s      Cor( 1s)     0.99996     -10.51207
  30    C  3  s      Val( 2s)     0.48252      -0.29136
  31    C  3  s      Ryd( 3s)     0.00051       0.90410
  32    C  3  px     Val( 2p)     0.52490      -0.25685
  33    C  3  px     Ryd( 3p)     0.00115       0.58703
  34    C  3  py     Val( 2p)     0.56417      -0.26585
  35    C  3  py     Ryd( 3p)     0.00194       0.65920
  36    C  3  pz     Val( 2p)     0.59926      -0.28248
  37    C  3  pz     Ryd( 3p)     0.00166       0.73683
  38    C  3  dxy    Ryd( 3d)     0.00040       2.18251
  39    C  3  dxz    Ryd( 3d)     0.00033       1.95928
[...]
   53. BD ( 2) C 11- C 12     131. RY ( 5) C  6            0.27    2.32   0.032
   53. BD ( 2) C 11- C 12     156. RY ( 3) C  9            1.31    1.34   0.053
   53. BD ( 2) C 11- C 12     158. RY ( 5) C  9            0.28    2.29   0.032
   53. BD ( 2) C 11- C 12     179. RY ( 3) C 11            0.35    1.11   0.025
   54. BD ( 1) C 11- H 20      70. BD*( 1) C  6- C 12      2.23    1.22   0.066
   54. BD ( 1) C 11- H 20      74. BD*( 1) C  8- C  9      2.04    1.20   0.062
   54. BD ( 1) C 11- H 20      76. BD*( 1) C  9-Br 10      0.57    0.75   0.026
   54. BD ( 1) C 11- H 20      78. BD*( 1) C  9- C 11      0.37    1.20   0.026
   54. BD ( 1) C 11- H 20      79. BD*( 1) C 11- C 12      0.61    1.23   0.035
   54. BD ( 1) C 11- H 20     155. RY ( 2) C  9            0.56    1.75   0.039
   54. BD ( 1) C 11- H 20     186. RY ( 1) C 12            0.35    1.77   0.031


 NATURAL BOND ORBITALS (Summary):

                                                     Principal Delocalizations
           NBO                 Occupancy    Energy   (geminal,vicinal,remote)
 ===============================================================================
 Molecular unit  1  (C10H8NBr)
 ------ Lewis --------------------------------------
    1. CR ( 1) N  1             0.99998   -14.57103
    2. CR ( 1) C  2             0.99996   -10.46804
    3. CR ( 1) C  3             0.99996   -10.51211
    4. CR ( 1) C  4             0.99997   -10.46930
    5. CR ( 1) C  5             0.99997   -10.48225
    6. CR ( 1) C  6             0.99998   -10.53772
    7. CR ( 1) C  7             0.99997   -10.51362
    8. CR ( 1) C  8             0.99998   -10.52673
    9. CR ( 1) C  9             0.99998   -10.58430
   10. CR ( 1)Br 10             1.00000  -399.95319
   11. CR ( 2)Br 10             1.00000  -130.35408
   12. CR ( 3)Br 10             1.00000   -24.85125
   13. CR ( 4)Br 10             1.00000   -38.03081
   14. CR ( 5)Br 10             1.00000   -25.48281
   15. CR ( 6)Br 10             1.00000   -38.02356
   16. CR ( 7)Br 10             1.00000   -25.47608
   17. CR ( 8)Br 10             1.00000   -38.02445
   18. CR ( 9)Br 10             1.00000   -25.47658
   19. CR (10)Br 10             1.00000    -2.94991
   20. CR (11)Br 10             1.00000    -2.95103
   21. CR (12)Br 10             1.00000    -2.94244
   22. CR (13)Br 10             1.00000    -2.94994
   23. CR (14)Br 10             1.00000    -2.94583
   24. CR ( 1) C 11             0.99997   -10.52030
   25. CR ( 1) C 12             0.99998   -10.52547
   26. LP ( 1) N  1             0.98556    -0.59873  91(v),59(v)
   27. LP ( 1)Br 10             0.99723    -0.94438  155(v),74(v),78(v)
   28. LP ( 2)Br 10             0.98737    -0.55930  74(v),78(v),154(v),71(r)
                                                     79(r)
   29. BD ( 1) N  1- C  2       0.99773    -1.07000  59(g)
   30. BD ( 2) N  1- C  2       0.99337    -0.55482  60(v),62(v)
   31. BD ( 3) N  1- C  2       0.99133    -0.55599  61(v),62(v),60(v),80(r)
   32. BD ( 1) C  2- C  3       0.98458    -0.84735  56(g),80(v),82(v),65(v)
                                                     109(v),61(g),60(g),188(v)
                                                     62(g),70(v)
   33. BD ( 1) C  3- C  4       0.97980    -0.77019  79(v),57(v),56(v),68(v)
                                                     59(g),92(v),93(v),58(v)
                                                     61(g),62(g),187(v),66(v)
                                                     80(v),119(v)
   34. BD ( 1) C  3- C 12       0.97902    -0.81095  58(v),69(v),79(g),56(v)
                                                     78(v),70(g),93(v),64(v)
                                                     59(g),177(v),60(g),62(g)
                                                     127(v),178(v),92(v),63(v)
                                                     109(v)
   35. BD ( 1) C  3- H 13       0.97454    -0.72231  57(v),80(v),56(v),63(v)
                                                     70(v),58(v),92(v),94(v)
                                                     188(v),110(v),65(v),59(g)
                                                     60(g)
   36. BD ( 1) C  4- C  5       0.98686    -0.77397  69(v),62(v),55(v),128(v)
                                                     66(g),67(g),61(v),68(g)
                                                     64(g),101(v)
   37. BD ( 1) C  4- H 14       0.99104    -0.70669  66(v),61(v),120(v),59(v)
                                                     67(v)
   38. BD ( 1) C  4- H 15       0.98757    -0.70210  59(v),67(v),62(v),118(v)
                                                     68(v)
   39. BD ( 1) C  5- C  6       0.98713    -0.81631  79(v),69(g),71(v),70(g)
                                                     64(v),136(v),186(v),109(v)
                                                     63(g),68(g),111(v),61(v)
                                                     60(v)
   40. BD ( 1) C  5- H 16       0.95336    -0.70673  55(v),65(v),109(v),64(v)
                                                     70(v),130(v)
   41. BD ( 1) C  5- H 17       0.97554    -0.71652  55(v),60(v),70(v),65(v)
                                                     110(v)
   42. BD ( 1) C  6- C  7       0.98800    -0.89492  70(g),61(v),66(g),71(g)
                                                     75(v),146(v),73(g),145(v)
                                                     186(v),118(v)
   43. BD ( 1) C  6- C 12       0.98361    -0.88185  79(g),69(g),73(v),81(v)
                                                     61(g),66(g),136(v),118(v)
                                                     100(v),177(v),68(v),62(v)
                                                     178(v),109(r)
   44. BD ( 1) C  7- C  8       0.98588    -0.88703  76(v),66(v),74(g),69(g)
                                                     127(v),75(g),155(v),73(g)
                                                     154(v),129(v)
   45. BD ( 2) C  7- C  8       0.84950    -0.51153  55(v),77(v),133(v),156(v)
                                                     138(g),158(v),72(g)
   46. BD ( 1) C  7- H 18       0.98931    -0.75544  70(v),74(v),69(g),127(v)
                                                     71(g),75(v),145(v)
   47. BD ( 1) C  8- C  9       0.99057    -0.92417  78(g),81(v),71(g),73(v)
                                                     75(g),137(v),177(v),136(v)
                                                     178(v)
   48. BD ( 1) C  8- H 19       0.98853    -0.76378  78(v),69(v),76(v),155(v)
                                                     71(g),73(v),136(v),74(g)
   49. BD ( 1) C  9-Br 10       0.99184    -0.84831  79(v),71(v),145(v),177(v)
   50. BD ( 2) C  9-Br 10       0.93484    -0.56812  72(v),80(v),179(v),147(v)
                                                     77(g)
   51. BD ( 1) C  9- C 11       0.98929    -0.91916  61(v),74(g),79(g),186(v)
                                                     75(v),81(g),145(v)
   52. BD ( 1) C 11- C 12       0.98436    -0.89284  76(v),70(g),78(g),61(g)
                                                     66(v),81(g),155(v),100(v)
                                                     154(v),127(v)
   53. BD ( 2) C 11- C 12       0.85341    -0.51584  55(v),77(v),59(v),156(v)
                                                     62(v),58(r),179(g),158(v)
                                                     131(v)
   54. BD ( 1) C 11- H 20       0.98833    -0.76192  70(v),74(v),79(g),76(v)
                                                     155(v),78(g),186(v)
 ------ non-Lewis ----------------------------------
   55. LV ( 1) C  6             0.23711    -0.22348
   56. BD*( 1) N  1- C  2       0.00544     0.82839
   57. BD*( 2) N  1- C  2       0.01286     0.05879
   58. BD*( 3) N  1- C  2       0.01104     0.06389
   59. BD*( 1) C  2- C  3       0.01562     0.38101
   60. BD*( 1) C  3- C  4       0.00907     0.27713
   61. BD*( 1) C  3- C 12       0.01608     0.29952
   62. BD*( 1) C  3- H 13       0.00959     0.38982
   63. BD*( 1) C  4- C  5       0.00414     0.29891
   64. BD*( 1) C  4- H 14       0.00419     0.41869
   65. BD*( 1) C  4- H 15       0.00549     0.40097
   66. BD*( 1) C  5- C  6       0.01095     0.32234
   67. BD*( 1) C  5- H 16       0.00534     0.38283
   68. BD*( 1) C  5- H 17       0.00430     0.39365
   69. BD*( 1) C  6- C  7       0.01200     0.47214
   70. BD*( 1) C  6- C 12       0.01557     0.45630
   71. BD*( 1) C  7- C  8       0.00784     0.45956
   72. BD*( 2) C  7- C  8       0.02727    -0.07947
   73. BD*( 1) C  7- H 18       0.00671     0.38664
   74. BD*( 1) C  8- C  9       0.01295     0.43699
   75. BD*( 1) C  8- H 19       0.00639     0.38441
   76. BD*( 1) C  9-Br 10       0.01464    -0.00953
   77. BD*( 2) C  9-Br 10       0.12439    -0.23190
   78. BD*( 1) C  9- C 11       0.01255     0.43985
   79. BD*( 1) C 11- C 12       0.01322     0.47139
   80. BD*( 2) C 11- C 12       0.04346    -0.07703
   81. BD*( 1) C 11- H 20       0.00702     0.37687
   82. RY ( 1) N  1             0.00102     1.19150
   83. RY ( 2) N  1             0.00003     0.87176
   84. RY ( 3) N  1             0.00001     0.83900
   85. RY ( 4) N  1             0.00001     1.08680
   86. RY ( 5) N  1             0.00000     2.41990
   87. RY ( 6) N  1             0.00000     2.16504
   88. RY ( 7) N  1             0.00000     2.15861
   89. RY ( 8) N  1             0.00000     2.38204
   90. RY ( 9) N  1             0.00000     2.56366
   91. RY ( 1) C  2             0.00860     0.39595
   92. RY ( 2) C  2             0.00274     0.72005
   93. RY ( 3) C  2             0.00209     0.74561
   94. RY ( 4) C  2             0.00075     0.95086
   95. RY ( 5) C  2             0.00005     1.89503
   96. RY ( 6) C  2             0.00002     2.57018
   97. RY ( 7) C  2             0.00002     2.28664
   98. RY ( 8) C  2             0.00000     1.72096
   99. RY ( 9) C  2             0.00000     1.73187
  100. RY ( 1) C  3             0.00207     0.95472
  101. RY ( 2) C  3             0.00091     0.94223
  102. RY ( 3) C  3             0.00064     0.98776
  103. RY ( 4) C  3             0.00046     1.28454
  104. RY ( 5) C  3             0.00029     1.81666
  105. RY ( 6) C  3             0.00013     1.84813
  106. RY ( 7) C  3             0.00003     1.88540
  107. RY ( 8) C  3             0.00003     1.89343
  108. RY ( 9) C  3             0.00001     1.96084
  109. RY ( 1) C  4             0.00239     0.92788
  110. RY ( 2) C  4             0.00101     0.76153
  111. RY ( 3) C  4             0.00051     0.59292
  112. RY ( 4) C  4             0.00028     0.95874
  113. RY ( 5) C  4             0.00011     1.90594
  114. RY ( 6) C  4             0.00003     2.11084
  115. RY ( 7) C  4             0.00001     2.09695
  116. RY ( 8) C  4             0.00001     2.20457
  117. RY ( 9) C  4             0.00000     1.91330
  118. RY ( 1) C  5             0.00214     0.74960
  119. RY ( 2) C  5             0.00105     0.77224
  120. RY ( 3) C  5             0.00061     0.85272
  121. RY ( 4) C  5             0.00016     1.02620
  122. RY ( 5) C  5             0.00009     1.85317
  123. RY ( 6) C  5             0.00002     1.71400
  124. RY ( 7) C  5             0.00001     2.13298
  125. RY ( 8) C  5             0.00000     2.15595
  126. RY ( 9) C  5             0.00000     2.09708
  127. RY ( 1) C  6             0.00233     1.09646
  128. RY ( 2) C  6             0.00145     0.99821
  129. RY ( 3) C  6             0.00074     0.86190
  130. RY ( 4) C  6             0.00050     1.11245
  131. RY ( 5) C  6             0.00028     1.80294
  132. RY ( 6) C  6             0.00014     2.12775
  133. RY ( 7) C  6             0.00008     1.10699
  134. RY ( 8) C  6             0.00003     2.02359
  135. RY ( 9) C  6             0.00001     2.04892
  136. RY ( 1) C  7             0.00326     1.06336
  137. RY ( 2) C  7             0.00129     0.63953
  138. RY ( 3) C  7             0.00031     0.56119
  139. RY ( 4) C  7             0.00024     0.56584
  140. RY ( 5) C  7             0.00005     2.18853
  141. RY ( 6) C  7             0.00004     1.76265
  142. RY ( 7) C  7             0.00001     2.19639
  143. RY ( 8) C  7             0.00001     1.80278
  144. RY ( 9) C  7             0.00000     2.11741
  145. RY ( 1) C  8             0.00337     1.00522
  146. RY ( 2) C  8             0.00133     0.62850
  147. RY ( 3) C  8             0.00056     0.69345
  148. RY ( 4) C  8             0.00048     0.50452
  149. RY ( 5) C  8             0.00008     2.21701
  150. RY ( 6) C  8             0.00006     1.64863
  151. RY ( 7) C  8             0.00002     2.20364
  152. RY ( 8) C  8             0.00000     2.08167
  153. RY ( 9) C  8             0.00000     1.67059
  154. RY ( 1) C  9             0.00383     0.65764
  155. RY ( 2) C  9             0.00335     0.99115
  156. RY ( 3) C  9             0.00209     0.82187
  157. RY ( 4) C  9             0.00043     0.48005
  158. RY ( 5) C  9             0.00040     1.77405
  159. RY ( 6) C  9             0.00027     2.15109
  160. RY ( 7) C  9             0.00017     1.93463
  161. RY ( 8) C  9             0.00000     2.05213
  162. RY ( 9) C  9             0.00000     1.33415
  163. RY ( 1)Br 10             0.00063     0.58256
  164. RY ( 2)Br 10             0.00029     0.49544
  165. RY ( 3)Br 10             0.00016     0.46167
  166. RY ( 4)Br 10             0.00005     0.83408
  167. RY ( 5)Br 10             0.00002     0.43243
  168. RY ( 6)Br 10             0.00001     0.70436
  169. RY ( 7)Br 10             0.00000     0.85518
  170. RY ( 8)Br 10             0.00000     0.59699
  171. RY ( 9)Br 10             0.00000     3.37816
  172. RY (10)Br 10             0.00000     3.10795
  173. RY (11)Br 10             0.00000     0.96881
  174. RY (12)Br 10             0.00000     3.30947
  175. RY (13)Br 10             0.00000     3.47522
  176. RY (14)Br 10             0.00000     3.14950
  177. RY ( 1) C 11             0.00364     1.01767
  178. RY ( 2) C 11             0.00187     0.59832
  179. RY ( 3) C 11             0.00050     0.59465
  180. RY ( 4) C 11             0.00046     0.53503
  181. RY ( 5) C 11             0.00006     1.70064
  182. RY ( 6) C 11             0.00004     2.20019
  183. RY ( 7) C 11             0.00001     2.20593
  184. RY ( 8) C 11             0.00001     1.75484
  185. RY ( 9) C 11             0.00000     2.08757
  186. RY ( 1) C 12             0.00277     1.00332
  187. RY ( 2) C 12             0.00137     0.99473
  188. RY ( 3) C 12             0.00119     0.82909
  189. RY ( 4) C 12             0.00073     0.67347
  190. RY ( 5) C 12             0.00012     2.00139
  191. RY ( 6) C 12             0.00010     1.90569
  192. RY ( 7) C 12             0.00008     1.79124
  193. RY ( 8) C 12             0.00005     2.05021
  194. RY ( 9) C 12             0.00001     2.02870
  195. RY ( 1) H 13             0.00091     0.28321
  196. RY ( 2) H 13             0.00003     1.79745
  197. RY ( 3) H 13             0.00002     1.74468
  198. RY ( 4) H 13             0.00001     2.21957
  199. RY ( 1) H 14             0.00043     0.30826
  200. RY ( 2) H 14             0.00004     1.90879
  201. RY ( 3) H 14             0.00002     1.71144
  202. RY ( 4) H 14             0.00000     2.14783
  203. RY ( 1) H 15             0.00085     0.30643
  204. RY ( 2) H 15             0.00004     1.85541
  205. RY ( 3) H 15             0.00003     1.72813
  206. RY ( 4) H 15             0.00000     2.19787
  207. RY ( 1) H 16             0.00059     0.31038
  208. RY ( 2) H 16             0.00005     1.78154
  209. RY ( 3) H 16             0.00003     1.77007
  210. RY ( 4) H 16             0.00000     2.19341
  211. RY ( 1) H 17             0.00054     0.29690
  212. RY ( 2) H 17             0.00005     1.82279
  213. RY ( 3) H 17             0.00002     1.74618
  214. RY ( 4) H 17             0.00001     2.16619
  215. RY ( 1) H 18             0.00057     0.26502
  216. RY ( 2) H 18             0.00005     1.57831
  217. RY ( 3) H 18             0.00003     2.26887
  218. RY ( 4) H 18             0.00001     1.91040
  219. RY ( 1) H 19             0.00067     0.25886
  220. RY ( 2) H 19             0.00005     1.56475
  221. RY ( 3) H 19             0.00003     2.14969
  222. RY ( 4) H 19             0.00001     2.00920
  223. RY ( 1) H 20             0.00063     0.27155
  224. RY ( 2) H 20             0.00006     1.58255
  225. RY ( 3) H 20             0.00003     2.17303
  226. RY ( 4) H 20             0.00002     2.01825
          -------------------------------
                 Total Lewis   53.26920  ( 98.6467%)
           Valence non-Lewis    0.65524  (  1.2134%)
           Rydberg non-Lewis    0.07557  (  0.1399%)
          -------------------------------
               Total unit  1   54.00000  (100.0000%)
              Charge unit  1    1.00000

 $CHOOSE
  ALPHA
   LONE 1 1 10 3 END
   BOND T 1 2 S 2 3 S 3 4 S 3 12 S 3 13 S 4 5 S 4 14 S 4 15 S 5 6 S 5 16 S 5 17
        S 6 7 D 6 12 D 7 8 S 7 18 S 8 9 S 8 19 S 9 10 D 9 11 S 11 12 S 11 20
        END
  END
  BETA
   LONE 1 1 10 2 END
   BOND T 1 2 S 2 3 S 3 4 S 3 12 S 3 13 S 4 5 S 4 14 S 4 15 S 5 6 S 5 16 S 5 17
        S 6 7 S 6 12 D 7 8 S 7 18 S 8 9 S 8 19 D 9 10 S 9 11 D 11 12 S 11 20
        END
  END
 $END

 NBO analysis completed in 2.56 CPU seconds (2 wall seconds)
 Maximum scratch memory used by NBO was 943048 words (7.19 MB)
 Maximum scratch memory used by G16NBO was 111764 words (0.85 MB)

 Opening RunExU unformatted file "/home/rpaton/opt/dzvp/fukui/Gau-1748979.EUF"
 Read unf file /home/rpaton/opt/dzvp/fukui/Gau-1748979.EUF:
 Label Gaussian matrix elements                                         IVers= 2 NLab= 2 Version=ES64L-G16RevC.01
 Title arbr41_wb97xd_popncreated by GaussianPrep                       
 NAtoms=    20 NBasis=   226 NBsUse=   226 ICharg=     1 Multip=     2 NE=   109 Len12L=8 Len4L=8 IOpCl= 1 ICGU=112
 GAUSSIAN SCALARS                    NI= 1 NR= 1 NTot=       1 LenBuf=    2 NRI=1 N=    1000
 NPA CHARGES                         NI= 0 NR= 1 NTot=      20 LenBuf= 2048 NRI=1 N=      20
 Recovered energy= -3013.73460423     dipole=      0.080981273334      2.063174058865      0.831530567298
 Unable to Open any file for archive entry.
 1\1\GINC-DYNAMO\SP\UwB97XD\def2SVP\C10H8Br1N1(1+,2)\RPATON\27-Sep-2024
 \0\\# pop=(nbo6,hirshfeld) wb97xd/def2svp\\arbr41_wb97xd_popncreated b
 y GaussianPrep\\1,2\N,0,-3.132648,-2.434104,-1.165197\C,0,-2.802096,-1
 .690892,-0.344087\C,0,-2.392863,-0.736541,0.697516\C,0,-3.375022,0.459
 516,0.820714\C,0,-2.811426,1.542957,-0.115546\C,0,-1.332616,1.245148,-
 0.128902\C,0,-0.270116,2.047802,-0.534307\C,0,1.030676,1.54718,-0.4745
 62\C,0,1.256022,0.246974,-0.017448\Br,0,3.026668,-0.41516,0.062877\C,0
 ,0.201316,-0.572828,0.38558\C,0,-1.08552,-0.050989,0.328351\H,0,-2.315
 391,-1.299529,1.640548\H,0,-4.412505,0.178807,0.597179\H,0,-3.338537,0
 .815815,1.860987\H,0,-3.223869,1.441736,-1.134017\H,0,-3.044483,2.5609
 42,0.22846\H,0,-0.44306,3.064597,-0.893895\H,0,1.874405,2.167115,-0.78
 1325\H,0,0.38845,-1.590133,0.733887\\Version=ES64L-G16RevC.01\State=2-
 A\HF=-3013.7346042\S2=0.764783\S2-1=0.\S2A=0.750071\RMSD=3.873e-09\Dip
 ole=0.0809815,2.063174,0.8315306\Quadrupole=11.6574641,-3.0795253,-8.5
 779388,-9.3978226,-6.1721218,-6.8259135\PG=C01 [X(C10H8Br1N1)]\\@
 The archive entry for this job was punched.


 REFRAIN FROM ILLUSIONS, INSIST ON WORK AND NOT WORDS,
 PATIENTLY SEEK DIVINE AND SCIENTIFIC TRUTH.
 LAST WORDS OF MARIA MENDELEEVA TO HER SON DMITRI, C. 1850
 Job cpu time:       0 days  0 hours 18 minutes  3.7 seconds.
 Elapsed time:       0 days  0 hours  0 minutes 45.6 seconds.
 File lengths (MBytes):  RWF=     53 Int=      0 D2E=      0 Chk=      5 Scr=      1
 Normal termination of Gaussian 16 at Fri Sep 27 18:40:14 2024.
