Job Start Time: Mon Jan 29 15:30:37 MST 2024
SLURM Job ID: 229851
SLURM Job Name: Ac7_rdkit_conf_3_SP_charge_n
 Entering Gaussian System, Link 0=/opt/apps/Gaussian/G16C/g16/g16
 Initial command:
 /opt/apps/Gaussian/G16C/g16/l1.exe "/tmp/Gau-1605848.inp" -scrdir="/tmp/"
 Entering Link 1 = /opt/apps/Gaussian/G16C/g16/l1.exe PID=   1605849.
  
 Copyright (c) 1988-2019, Gaussian, Inc.  All Rights Reserved.
  
 This is part of the Gaussian(R) 16 program.  It is based on
 the Gaussian(R) 09 system (copyright 2009, Gaussian, Inc.),
 the Gaussian(R) 03 system (copyright 2003, Gaussian, Inc.),
 the Gaussian(R) 98 system (copyright 1998, Gaussian, Inc.),
 the Gaussian(R) 94 system (copyright 1995, Gaussian, Inc.),
 the Gaussian 92(TM) system (copyright 1992, Gaussian, Inc.),
 the Gaussian 90(TM) system (copyright 1990, Gaussian, Inc.),
 the Gaussian 88(TM) system (copyright 1988, Gaussian, Inc.),
 the Gaussian 86(TM) system (copyright 1986, Carnegie Mellon
 University), and the Gaussian 82(TM) system (copyright 1983,
 Carnegie Mellon University). Gaussian is a federally registered
 trademark of Gaussian, Inc.
  
 This software contains proprietary and confidential information,
 including trade secrets, belonging to Gaussian, Inc.
  
 This software is provided under written license and may be
 used, copied, transmitted, or stored only in accord with that
 written license.
  
 The following legend is applicable only to US Government
 contracts under FAR:
  
                    RESTRICTED RIGHTS LEGEND
  
 Use, reproduction and disclosure by the US Government is
 subject to restrictions as set forth in subparagraphs (a)
 and (c) of the Commercial Computer Software - Restricted
 Rights clause in FAR 52.227-19.
  
 Gaussian, Inc.
 340 Quinnipiac St., Bldg. 40, Wallingford CT 06492
  
  
 ---------------------------------------------------------------
 Warning -- This program may not be used in any manner that
 competes with the business of Gaussian, Inc. or will provide
 assistance to any competitor of Gaussian, Inc.  The licensee
 of this program is prohibited from giving any competitor of
 Gaussian, Inc. access to this program.  By using this program,
 the user acknowledges that Gaussian, Inc. is engaged in the
 business of creating and licensing software in the field of
 computational chemistry and represents and warrants to the
 licensee that it is not a competitor of Gaussian, Inc. and that
 it will not use this program in any manner prohibited above.
 ---------------------------------------------------------------
  

 Cite this work as:
 Gaussian 16, Revision C.01,
 M. J. Frisch, G. W. Trucks, H. B. Schlegel, G. E. Scuseria, 
 M. A. Robb, J. R. Cheeseman, G. Scalmani, V. Barone, 
 G. A. Petersson, H. Nakatsuji, X. Li, M. Caricato, A. V. Marenich, 
 J. Bloino, B. G. Janesko, R. Gomperts, B. Mennucci, H. P. Hratchian, 
 J. V. Ortiz, A. F. Izmaylov, J. L. Sonnenberg, D. Williams-Young, 
 F. Ding, F. Lipparini, F. Egidi, J. Goings, B. Peng, A. Petrone, 
 T. Henderson, D. Ranasinghe, V. G. Zakrzewski, J. Gao, N. Rega, 
 G. Zheng, W. Liang, M. Hada, M. Ehara, K. Toyota, R. Fukuda, 
 J. Hasegawa, M. Ishida, T. Nakajima, Y. Honda, O. Kitao, H. Nakai, 
 T. Vreven, K. Throssell, J. A. Montgomery, Jr., J. E. Peralta, 
 F. Ogliaro, M. J. Bearpark, J. J. Heyd, E. N. Brothers, K. N. Kudin, 
 V. N. Staroverov, T. A. Keith, R. Kobayashi, J. Normand, 
 K. Raghavachari, A. P. Rendell, J. C. Burant, S. S. Iyengar, 
 J. Tomasi, M. Cossi, J. M. Millam, M. Klene, C. Adamo, R. Cammi, 
 J. W. Ochterski, R. L. Martin, K. Morokuma, O. Farkas, 
 J. B. Foresman, and D. J. Fox, Gaussian, Inc., Wallingford CT, 2019.
 
 ******************************************
 Gaussian 16:  AS64L-G16RevC.01  3-Jul-2019
                29-Jan-2024 
 ******************************************
 %nprocshared=8
 Will use up to    8 processors via shared memory.
 %mem=16GB
 --------------------------------------
 # pop=(nbo6, hirshfeld) m062x/def2tzvp
 --------------------------------------
 1/38=1,172=1/1;
 2/12=2,17=6,18=5,40=1/2;
 3/5=44,7=101,11=2,25=1,30=1,74=-55/1,2,3;
 4//1;
 5/5=2,38=5/2;
 6/7=2,8=2,9=2,10=2,28=1,40=1,79=1,113=1,114=1,124=3103,126=1/1,12;
 99/5=1,9=1/99;
 ----------------------------
 Ac7_rdkit_conf_3_SP_charge_n
 ----------------------------
 Symbolic Z-matrix:
 Charge = -1 Multiplicity = 2
 O                    -2.71523  -0.00006  -0.9502 
 C                    -1.83475  0.        -0.13537 
 O                    -2.09007   0.00007   1.19 
 C                    -0.35921  -0.00001  -0.43399 
 C                     0.31895   1.26089   0.11817 
 C                     1.80813   1.25892  -0.21739 
 C                     2.49185   0.        0.31086 
 C                     1.80812  -1.25893  -0.21733 
 C                     0.31895  -1.26088   0.11823 
 H                    -3.05252   0.00006   1.2918 
 H                    -0.28208  -0.00003  -1.52377 
 H                    -0.1644    2.15178  -0.28855 
 H                     0.18496   1.28503   1.20325 
 H                     2.28181   2.15134   0.19555 
 H                     1.93251   1.30819  -1.30426 
 H                     2.44654   0.00003   1.40508 
 H                     3.54849  -0.00001   0.03714 
 H                     2.2818   -2.15134   0.19565 
 H                     1.9325   -1.30826  -1.30419 
 H                    -0.16442  -2.15179  -0.28845 
 H                     0.18495  -1.28497   1.20331 
 
                          Input orientation:                          
 ---------------------------------------------------------------------
 Center     Atomic      Atomic             Coordinates (Angstroms)
 Number     Number       Type             X           Y           Z
 ---------------------------------------------------------------------
      1          8           0       -2.715225   -0.000060   -0.950203
      2          6           0       -1.834752   -0.000003   -0.135369
      3          8           0       -2.090070    0.000068    1.189998
      4          6           0       -0.359209   -0.000007   -0.433988
      5          6           0        0.318953    1.260888    0.118166
      6          6           0        1.808129    1.258915   -0.217387
      7          6           0        2.491849    0.000002    0.310861
      8          6           0        1.808122   -1.258931   -0.217327
      9          6           0        0.318946   -1.260881    0.118225
     10          1           0       -3.052518    0.000060    1.291799
     11          1           0       -0.282084   -0.000034   -1.523767
     12          1           0       -0.164403    2.151779   -0.288548
     13          1           0        0.184960    1.285033    1.203245
     14          1           0        2.281808    2.151338    0.195546
     15          1           0        1.932505    1.308187   -1.304255
     16          1           0        2.446541    0.000028    1.405084
     17          1           0        3.548489   -0.000007    0.037143
     18          1           0        2.281796   -2.151337    0.195647
     19          1           0        1.932498   -1.308255   -1.304193
     20          1           0       -0.164415   -2.151787   -0.288449
     21          1           0        0.184953   -1.284974    1.203305
 ---------------------------------------------------------------------
                    Distance matrix (angstroms):
                    1          2          3          4          5
     1  O    0.000000
     2  C    1.199661   0.000000
     3  O    2.229637   1.349735   0.000000
     4  C    2.411906   1.505457   2.373439   0.000000
     5  C    3.455089   2.508500   2.922650   1.534482   0.000000
     6  C    4.752133   3.855150   4.331441   2.515781   1.526514
     7  C    5.357602   4.349551   4.665497   2.946749   2.519611
     8  C    4.752108   3.855146   4.331460   2.515781   2.946128
     9  C    3.455055   2.508493   2.922678   1.534483   2.521769
    10  H    2.267232   1.876103   0.967817   3.198789   3.786016
    11  H    2.499830   2.082889   3.260879   1.092505   2.155717
    12  H    3.402189   2.728314   3.244095   2.165476   1.092125
    13  H    3.834042   2.742707   2.612867   2.151274   1.093587
    14  H    5.559820   4.656591   4.972948   3.464039   2.156777
    15  H    4.841307   4.155705   4.910558   2.778613   2.151527
    16  H    5.673729   4.549996   4.541707   3.354761   2.787931
    17  H    6.341054   5.386004   5.755208   3.935996   3.467899
    18  H    5.559783   4.656584   4.972976   3.464039   3.937262
    19  H    4.841282   4.155700   4.910575   2.778613   3.350691
    20  H    3.402129   2.728302   3.244138   2.165475   3.470638
    21  H    3.834010   2.742701   2.612899   2.151274   2.770721
                    6          7          8          9         10
     6  C    0.000000
     7  C    1.526886   0.000000
     8  C    2.517846   1.526885   0.000000
     9  C    2.946129   2.519611   1.526514   0.000000
    10  H    5.242924   5.630475   5.242932   3.786029   0.000000
    11  H    2.767774   3.325743   2.767773   2.155716   3.950027
    12  H    2.166369   3.470607   3.940669   3.470640   3.933014
    13  H    2.157210   2.787363   3.335331   2.770722   3.484288
    14  H    1.091469   2.164639   3.467676   3.937264   5.855322
    15  H    1.095070   2.152397   2.790516   3.350691   5.770715
    16  H    2.150530   1.095161   2.150529   2.787931   5.500226
    17  H    2.162989   1.091517   2.162989   3.467899   6.719186
    18  H    3.467676   2.164638   1.091468   2.156777   5.855336
    19  H    2.790515   2.152396   1.095071   2.151527   5.770723
    20  H    3.940668   3.470606   2.166368   1.092124   3.933035
    21  H    3.335332   2.787362   2.157209   1.093587   3.484302
                   11         12         13         14         15
    11  H    0.000000
    12  H    2.483931   0.000000
    13  H    3.050594   1.760327   0.000000
    14  H    3.762709   2.493651   2.482481   0.000000
    15  H    2.581479   2.477969   3.056470   1.755654   0.000000
    16  H    4.002944   3.783576   2.608970   2.473510   3.052217
    17  H    4.136391   4.303699   3.784765   2.501571   2.474293
    18  H    3.762708   4.973444   4.149773   4.302675   3.786821
    19  H    2.581478   4.171374   4.008276   3.786822   2.616442
    20  H    2.483928   4.303566   3.762837   4.973444   4.171373
    21  H    3.050593   3.762838   2.570007   4.149773   4.008276
                   16         17         18         19         20
    16  H    0.000000
    17  H    1.756574   0.000000
    18  H    2.473510   2.501571   0.000000
    19  H    3.052217   2.474292   1.755653   0.000000
    20  H    3.783577   4.303699   2.493651   2.477968   0.000000
    21  H    2.608970   3.784765   2.482481   3.056469   1.760327
                   21
    21  H    0.000000
 Stoichiometry    C7H12O2(1-,2)
 Framework group  C1[X(C7H12O2)]
 Deg. of freedom    57
 Full point group                 C1      NOp   1
 Largest Abelian subgroup         C1      NOp   1
 Largest concise Abelian subgroup C1      NOp   1
                         Standard orientation:                         
 ---------------------------------------------------------------------
 Center     Atomic      Atomic             Coordinates (Angstroms)
 Number     Number       Type             X           Y           Z
 ---------------------------------------------------------------------
      1          8           0        2.715225    0.000060   -0.950203
      2          6           0        1.834752    0.000003   -0.135369
      3          8           0        2.090070   -0.000068    1.189998
      4          6           0        0.359209    0.000007   -0.433988
      5          6           0       -0.318953   -1.260888    0.118166
      6          6           0       -1.808129   -1.258915   -0.217387
      7          6           0       -2.491849   -0.000002    0.310861
      8          6           0       -1.808122    1.258931   -0.217327
      9          6           0       -0.318946    1.260881    0.118225
     10          1           0        3.052518   -0.000060    1.291799
     11          1           0        0.282084    0.000034   -1.523767
     12          1           0        0.164403   -2.151779   -0.288548
     13          1           0       -0.184960   -1.285033    1.203245
     14          1           0       -2.281808   -2.151338    0.195546
     15          1           0       -1.932505   -1.308187   -1.304255
     16          1           0       -2.446541   -0.000028    1.405084
     17          1           0       -3.548489    0.000007    0.037143
     18          1           0       -2.281796    2.151337    0.195647
     19          1           0       -1.932498    1.308255   -1.304193
     20          1           0        0.164415    2.151787   -0.288449
     21          1           0       -0.184953    1.284974    1.203305
 ---------------------------------------------------------------------
 Rotational constants (GHZ):           3.2312924           1.0412745           0.9495841
 Standard basis: def2TZVP (5D, 7F)
 There are   396 symmetry adapted cartesian basis functions of A   symmetry.
 There are   351 symmetry adapted basis functions of A   symmetry.
   351 basis functions,   555 primitive gaussians,   396 cartesian basis functions
    36 alpha electrons       35 beta electrons
       nuclear repulsion energy       476.8310901325 Hartrees.
 NAtoms=   21 NActive=   21 NUniq=   21 SFac= 1.00D+00 NAtFMM=   60 NAOKFM=F Big=F
 Integral buffers will be    131072 words long.
 Raffenetti 2 integral format.
 Two-electron integral symmetry is turned on.
 One-electron integrals computed using PRISM.
   1 Symmetry operations used in ECPInt.
 ECPInt:  NShTT=   10878 NPrTT=   32112 LenC2=   10591 LenP2D=   25008.
 LDataN:  DoStor=T MaxTD1= 6 Len=  172
 NBasis=   351 RedAO= T EigKep=  8.19D-05  NBF=   351
 NBsUse=   351 1.00D-06 EigRej= -1.00D+00 NBFU=   351
 ExpMin= 9.52D-02 ExpMax= 2.70D+04 ExpMxC= 9.22D+02 IAcc=3 IRadAn=         5 AccDes= 0.00D+00
 Harris functional with IExCor= 1009 and IRadAn=       5 diagonalized for initial guess.
 HarFok:  IExCor= 1009 AccDes= 0.00D+00 IRadAn=         5 IDoV= 1 UseB2=F ITyADJ=14
 ICtDFT=  3500011 ScaDFX=  1.000000  1.000000  1.000000  1.000000
 FoFCou: FMM=F IPFlag=           0 FMFlag=      100000 FMFlg1=           0
         NFxFlg=           0 DoJE=T BraDBF=F KetDBF=T FulRan=T
         wScrn=  0.000000 ICntrl=       500 IOpCl=  0 I1Cent=   200000004 NGrid=           0
         NMat0=    1 NMatS0=      1 NMatT0=    0 NMatD0=    1 NMtDS0=    0 NMtDT0=    0
 Petite list used in FoFCou.
 Initial guess <Sx>= 0.0000 <Sy>= 0.0000 <Sz>= 0.5000 <S**2>= 0.7500 S= 0.5000
 Requested convergence on RMS density matrix=1.00D-08 within 128 cycles.
 Requested convergence on MAX density matrix=1.00D-06.
 Requested convergence on             energy=1.00D-06.
 No special actions if energy rises.
 Integral accuracy reduced to 1.0D-05 until final iterations.
 Initial convergence to 1.0D-05 achieved.  Increase integral accuracy.
 Restarting incremental Fock formation.
 SCF Done:  E(UM062X) =  -424.342512387     A.U. after   37 cycles
            NFock= 37  Conv=0.11D-08     -V/T= 2.0032
 <Sx>= 0.0000 <Sy>= 0.0000 <Sz>= 0.5000 <S**2>= 0.7543 S= 0.5021
 <L.S>=  0.00000000000    
 Annihilation of the first spin contaminant:
 S**2 before annihilation     0.7543,   after     0.7500

 **********************************************************************

            Population analysis using the SCF Density.

 **********************************************************************

 Orbital symmetries:
 Alpha Orbitals:
       Occupied  (A) (A) (A) (A) (A) (A) (A) (A) (A) (A) (A) (A)
                 (A) (A) (A) (A) (A) (A) (A) (A) (A) (A) (A) (A)
                 (A) (A) (A) (A) (A) (A) (A) (A) (A) (A) (A) (A)
       Virtual   (A) (A) (A) (A) (A) (A) (A) (A) (A) (A) (A) (A)
                 (A) (A) (A) (A) (A) (A) (A) (A) (A) (A) (A) (A)
                 (A) (A) (A) (A) (A) (A) (A) (A) (A) (A) (A) (A)
                 (A) (A) (A) (A) (A) (A) (A) (A) (A) (A) (A) (A)
                 (A) (A) (A) (A) (A) (A) (A) (A) (A) (A) (A) (A)
                 (A) (A) (A) (A) (A) (A) (A) (A) (A) (A) (A) (A)
                 (A) (A) (A) (A) (A) (A) (A) (A) (A) (A) (A) (A)
                 (A) (A) (A) (A) (A) (A) (A) (A) (A) (A) (A) (A)
                 (A) (A) (A) (A) (A) (A) (A) (A) (A) (A) (A) (A)
                 (A) (A) (A) (A) (A) (A) (A) (A) (A) (A) (A) (A)
                 (A) (A) (A) (A) (A) (A) (A) (A) (A) (A) (A) (A)
                 (A) (A) (A) (A) (A) (A) (A) (A) (A) (A) (A) (A)
                 (A) (A) (A) (A) (A) (A) (A) (A) (A) (A) (A) (A)
                 (A) (A) (A) (A) (A) (A) (A) (A) (A) (A) (A) (A)
                 (A) (A) (A) (A) (A) (A) (A) (A) (A) (A) (A) (A)
                 (A) (A) (A) (A) (A) (A) (A) (A) (A) (A) (A) (A)
                 (A) (A) (A) (A) (A) (A) (A) (A) (A) (A) (A) (A)
                 (A) (A) (A) (A) (A) (A) (A) (A) (A) (A) (A) (A)
                 (A) (A) (A) (A) (A) (A) (A) (A) (A) (A) (A) (A)
                 (A) (A) (A) (A) (A) (A) (A) (A) (A) (A) (A) (A)
                 (A) (A) (A) (A) (A) (A) (A) (A) (A) (A) (A) (A)
                 (A) (A) (A) (A) (A) (A) (A) (A) (A) (A) (A) (A)
                 (A) (A) (A) (A) (A) (A) (A) (A) (A) (A) (A) (A)
                 (A) (A) (A) (A) (A) (A) (A) (A) (A) (A) (A) (A)
                 (A) (A) (A) (A) (A) (A) (A) (A) (A) (A) (A) (A)
                 (A) (A) (A) (A) (A) (A) (A) (A) (A) (A) (A) (A)
                 (A) (A) (A)
 Beta  Orbitals:
       Occupied  (A) (A) (A) (A) (A) (A) (A) (A) (A) (A) (A) (A)
                 (A) (A) (A) (A) (A) (A) (A) (A) (A) (A) (A) (A)
                 (A) (A) (A) (A) (A) (A) (A) (A) (A) (A) (A)
       Virtual   (A) (A) (A) (A) (A) (A) (A) (A) (A) (A) (A) (A)
                 (A) (A) (A) (A) (A) (A) (A) (A) (A) (A) (A) (A)
                 (A) (A) (A) (A) (A) (A) (A) (A) (A) (A) (A) (A)
                 (A) (A) (A) (A) (A) (A) (A) (A) (A) (A) (A) (A)
                 (A) (A) (A) (A) (A) (A) (A) (A) (A) (A) (A) (A)
                 (A) (A) (A) (A) (A) (A) (A) (A) (A) (A) (A) (A)
                 (A) (A) (A) (A) (A) (A) (A) (A) (A) (A) (A) (A)
                 (A) (A) (A) (A) (A) (A) (A) (A) (A) (A) (A) (A)
                 (A) (A) (A) (A) (A) (A) (A) (A) (A) (A) (A) (A)
                 (A) (A) (A) (A) (A) (A) (A) (A) (A) (A) (A) (A)
                 (A) (A) (A) (A) (A) (A) (A) (A) (A) (A) (A) (A)
                 (A) (A) (A) (A) (A) (A) (A) (A) (A) (A) (A) (A)
                 (A) (A) (A) (A) (A) (A) (A) (A) (A) (A) (A) (A)
                 (A) (A) (A) (A) (A) (A) (A) (A) (A) (A) (A) (A)
                 (A) (A) (A) (A) (A) (A) (A) (A) (A) (A) (A) (A)
                 (A) (A) (A) (A) (A) (A) (A) (A) (A) (A) (A) (A)
                 (A) (A) (A) (A) (A) (A) (A) (A) (A) (A) (A) (A)
                 (A) (A) (A) (A) (A) (A) (A) (A) (A) (A) (A) (A)
                 (A) (A) (A) (A) (A) (A) (A) (A) (A) (A) (A) (A)
                 (A) (A) (A) (A) (A) (A) (A) (A) (A) (A) (A) (A)
                 (A) (A) (A) (A) (A) (A) (A) (A) (A) (A) (A) (A)
                 (A) (A) (A) (A) (A) (A) (A) (A) (A) (A) (A) (A)
                 (A) (A) (A) (A) (A) (A) (A) (A) (A) (A) (A) (A)
                 (A) (A) (A) (A) (A) (A) (A) (A) (A) (A) (A) (A)
                 (A) (A) (A) (A) (A) (A) (A) (A) (A) (A) (A) (A)
                 (A) (A) (A) (A) (A) (A) (A) (A) (A) (A) (A) (A)
                 (A) (A) (A) (A)
 The electronic state is 2-A.
 Alpha  occ. eigenvalues --  -19.42547 -19.32551 -10.39814 -10.38858 -10.38857
 Alpha  occ. eigenvalues --  -10.36353 -10.36352 -10.35113 -10.34871  -0.98465
 Alpha  occ. eigenvalues --   -0.87832  -0.78721  -0.69036  -0.68852  -0.55803
 Alpha  occ. eigenvalues --   -0.54423  -0.49178  -0.46741  -0.40436  -0.37526
 Alpha  occ. eigenvalues --   -0.36184  -0.34671  -0.31937  -0.31531  -0.31080
 Alpha  occ. eigenvalues --   -0.29693  -0.26498  -0.25786  -0.25567  -0.25059
 Alpha  occ. eigenvalues --   -0.21990  -0.20423  -0.20198  -0.17519  -0.09790
 Alpha  occ. eigenvalues --    0.12190
 Alpha virt. eigenvalues --    0.18909   0.21251   0.22231   0.23196   0.24914
 Alpha virt. eigenvalues --    0.25889   0.27146   0.27661   0.28147   0.28361
 Alpha virt. eigenvalues --    0.30102   0.30912   0.31912   0.34517   0.36065
 Alpha virt. eigenvalues --    0.37635   0.38262   0.38935   0.39375   0.41724
 Alpha virt. eigenvalues --    0.42085   0.42413   0.42535   0.46958   0.48527
 Alpha virt. eigenvalues --    0.49529   0.50602   0.51859   0.52168   0.53696
 Alpha virt. eigenvalues --    0.54017   0.55324   0.56218   0.57183   0.58925
 Alpha virt. eigenvalues --    0.59657   0.59842   0.60162   0.60781   0.61317
 Alpha virt. eigenvalues --    0.62096   0.62529   0.63355   0.63544   0.65681
 Alpha virt. eigenvalues --    0.65771   0.66793   0.67676   0.68119   0.68506
 Alpha virt. eigenvalues --    0.70539   0.72368   0.74767   0.74870   0.75757
 Alpha virt. eigenvalues --    0.79089   0.79559   0.82384   0.83010   0.85248
 Alpha virt. eigenvalues --    0.85760   0.88423   0.88512   0.91182   0.91843
 Alpha virt. eigenvalues --    0.94725   0.95180   0.99573   1.00100   1.02885
 Alpha virt. eigenvalues --    1.03321   1.04713   1.06723   1.07278   1.08733
 Alpha virt. eigenvalues --    1.11395   1.12532   1.14960   1.15695   1.17395
 Alpha virt. eigenvalues --    1.19759   1.21980   1.24775   1.25076   1.27369
 Alpha virt. eigenvalues --    1.30020   1.30253   1.32267   1.32550   1.34311
 Alpha virt. eigenvalues --    1.35191   1.37290   1.39749   1.43162   1.43997
 Alpha virt. eigenvalues --    1.44173   1.46081   1.47222   1.49133   1.54267
 Alpha virt. eigenvalues --    1.55848   1.58770   1.62254   1.64345   1.65531
 Alpha virt. eigenvalues --    1.67249   1.70913   1.71377   1.73776   1.74652
 Alpha virt. eigenvalues --    1.74965   1.77345   1.78654   1.80220   1.83098
 Alpha virt. eigenvalues --    1.83827   1.84522   1.85709   1.87092   1.88519
 Alpha virt. eigenvalues --    1.89722   1.92210   1.93101   1.95670   1.96586
 Alpha virt. eigenvalues --    1.98914   2.00243   2.00437   2.04607   2.06820
 Alpha virt. eigenvalues --    2.09976   2.11745   2.13480   2.15738   2.17193
 Alpha virt. eigenvalues --    2.18612   2.20878   2.21925   2.24870   2.25324
 Alpha virt. eigenvalues --    2.27782   2.29600   2.31106   2.32578   2.34029
 Alpha virt. eigenvalues --    2.36962   2.38904   2.42183   2.42337   2.44076
 Alpha virt. eigenvalues --    2.46369   2.47282   2.51110   2.53203   2.55890
 Alpha virt. eigenvalues --    2.57182   2.57382   2.59439   2.62792   2.63579
 Alpha virt. eigenvalues --    2.65953   2.67137   2.68648   2.69093   2.70085
 Alpha virt. eigenvalues --    2.70593   2.72759   2.73406   2.74452   2.76009
 Alpha virt. eigenvalues --    2.76118   2.76968   2.79154   2.79580   2.83853
 Alpha virt. eigenvalues --    2.83990   2.84116   2.85662   2.89158   2.90406
 Alpha virt. eigenvalues --    2.92665   2.94699   2.96310   2.98177   2.98752
 Alpha virt. eigenvalues --    3.00409   3.05259   3.06538   3.07337   3.08653
 Alpha virt. eigenvalues --    3.11559   3.14197   3.15210   3.16959   3.18976
 Alpha virt. eigenvalues --    3.19198   3.21495   3.21609   3.25155   3.28099
 Alpha virt. eigenvalues --    3.28209   3.30736   3.30751   3.34150   3.34673
 Alpha virt. eigenvalues --    3.35326   3.37138   3.38958   3.40607   3.41791
 Alpha virt. eigenvalues --    3.43540   3.46001   3.48187   3.50662   3.50748
 Alpha virt. eigenvalues --    3.52273   3.53515   3.54485   3.57343   3.57409
 Alpha virt. eigenvalues --    3.58913   3.59033   3.60904   3.63401   3.64028
 Alpha virt. eigenvalues --    3.65700   3.67658   3.68627   3.69550   3.71036
 Alpha virt. eigenvalues --    3.73277   3.74133   3.77957   3.79399   3.80114
 Alpha virt. eigenvalues --    3.80262   3.86027   3.86360   3.87410   3.91175
 Alpha virt. eigenvalues --    3.95080   3.96825   4.04875   4.06489   4.07642
 Alpha virt. eigenvalues --    4.11936   4.13098   4.13432   4.16139   4.17546
 Alpha virt. eigenvalues --    4.20416   4.20997   4.22362   4.23376   4.28241
 Alpha virt. eigenvalues --    4.30466   4.32894   4.35354   4.41895   4.43283
 Alpha virt. eigenvalues --    4.44535   4.47293   4.49162   4.54783   4.59502
 Alpha virt. eigenvalues --    4.64928   4.68446   4.71020   4.74099   4.78753
 Alpha virt. eigenvalues --    4.81455   4.81548   4.83935   4.88744   4.91007
 Alpha virt. eigenvalues --    4.92773   4.94583   5.00785   5.05802   5.16467
 Alpha virt. eigenvalues --    5.19722   5.29900   5.43350   5.48346   5.49805
 Alpha virt. eigenvalues --    5.64561   5.66233   5.79952   5.89045   6.01211
 Alpha virt. eigenvalues --    6.14149   6.15557   6.47294   6.48317   6.59200
 Alpha virt. eigenvalues --    6.65746   6.71762   6.76313   6.93244   6.94287
 Alpha virt. eigenvalues --    7.03353   7.08721   7.15366   7.35720   7.37486
 Alpha virt. eigenvalues --    7.54980  22.70045  22.74146  22.74923  22.78306
 Alpha virt. eigenvalues --   22.88091  23.00196  23.71088  44.22156  44.30682
  Beta  occ. eigenvalues --  -19.42367 -19.31909 -10.39815 -10.38834 -10.38833
  Beta  occ. eigenvalues --  -10.36251 -10.36251 -10.35178 -10.34346  -0.97505
  Beta  occ. eigenvalues --   -0.86196  -0.78605  -0.68896  -0.68568  -0.55324
  Beta  occ. eigenvalues --   -0.54182  -0.48830  -0.46066  -0.40278  -0.37381
  Beta  occ. eigenvalues --   -0.36062  -0.34208  -0.31244  -0.30300  -0.29746
  Beta  occ. eigenvalues --   -0.29590  -0.25741  -0.25552  -0.24755  -0.24479
  Beta  occ. eigenvalues --   -0.21856  -0.19849  -0.19781  -0.12580  -0.09018
  Beta virt. eigenvalues --    0.18348   0.21175   0.21441   0.22733   0.24788
  Beta virt. eigenvalues --    0.25554   0.26184   0.26601   0.27402   0.28066
  Beta virt. eigenvalues --    0.29462   0.30544   0.31657   0.33536   0.34453
  Beta virt. eigenvalues --    0.36157   0.37455   0.37895   0.38912   0.39267
  Beta virt. eigenvalues --    0.41715   0.42032   0.42315   0.42407   0.47246
  Beta virt. eigenvalues --    0.48910   0.50217   0.50344   0.50818   0.51819
  Beta virt. eigenvalues --    0.53685   0.54729   0.55159   0.56190   0.57124
  Beta virt. eigenvalues --    0.58398   0.59466   0.59636   0.60365   0.60804
  Beta virt. eigenvalues --    0.61097   0.61798   0.62431   0.63358   0.63483
  Beta virt. eigenvalues --    0.65518   0.65677   0.66809   0.67681   0.67900
  Beta virt. eigenvalues --    0.68326   0.70463   0.72862   0.74979   0.74997
  Beta virt. eigenvalues --    0.75770   0.79374   0.79628   0.82544   0.83100
  Beta virt. eigenvalues --    0.85460   0.86245   0.88866   0.89676   0.91518
  Beta virt. eigenvalues --    0.91950   0.94898   0.95191   0.99585   1.00136
  Beta virt. eigenvalues --    1.02875   1.03262   1.05257   1.06928   1.07332
  Beta virt. eigenvalues --    1.08779   1.11453   1.12584   1.14853   1.16633
  Beta virt. eigenvalues --    1.17767   1.19877   1.22213   1.25014   1.25380
  Beta virt. eigenvalues --    1.27778   1.30130   1.30368   1.32160   1.32755
  Beta virt. eigenvalues --    1.34478   1.35358   1.37581   1.40165   1.43347
  Beta virt. eigenvalues --    1.44040   1.44341   1.46166   1.47340   1.49315
  Beta virt. eigenvalues --    1.54620   1.56558   1.59053   1.62701   1.65379
  Beta virt. eigenvalues --    1.65928   1.67570   1.71368   1.71614   1.74070
  Beta virt. eigenvalues --    1.74912   1.76492   1.78675   1.78729   1.80398
  Beta virt. eigenvalues --    1.83353   1.83937   1.85046   1.86324   1.87152
  Beta virt. eigenvalues --    1.88916   1.90470   1.92317   1.93329   1.95812
  Beta virt. eigenvalues --    1.96567   1.99086   2.00588   2.00944   2.04900
  Beta virt. eigenvalues --    2.07251   2.10343   2.11934   2.13711   2.16085
  Beta virt. eigenvalues --    2.17511   2.18854   2.21541   2.22553   2.25498
  Beta virt. eigenvalues --    2.26218   2.28112   2.29887   2.31691   2.32936
  Beta virt. eigenvalues --    2.34564   2.37313   2.39323   2.42460   2.42467
  Beta virt. eigenvalues --    2.44429   2.47368   2.47813   2.51542   2.53757
  Beta virt. eigenvalues --    2.56552   2.57327   2.57711   2.59969   2.63215
  Beta virt. eigenvalues --    2.64036   2.66378   2.67283   2.68918   2.69275
  Beta virt. eigenvalues --    2.70254   2.70791   2.73401   2.73488   2.74885
  Beta virt. eigenvalues --    2.76083   2.76319   2.77206   2.79315   2.79687
  Beta virt. eigenvalues --    2.84137   2.84202   2.84249   2.85850   2.89340
  Beta virt. eigenvalues --    2.90716   2.92835   2.94755   2.96581   2.99069
  Beta virt. eigenvalues --    2.99402   3.01225   3.05802   3.07146   3.07532
  Beta virt. eigenvalues --    3.09221   3.12379   3.14925   3.15490   3.17859
  Beta virt. eigenvalues --    3.19342   3.20667   3.22042   3.23690   3.25545
  Beta virt. eigenvalues --    3.29077   3.29965   3.32039   3.32162   3.34751
  Beta virt. eigenvalues --    3.35269   3.36289   3.37764   3.39844   3.41868
  Beta virt. eigenvalues --    3.42645   3.44072   3.46731   3.49599   3.51418
  Beta virt. eigenvalues --    3.51447   3.52633   3.54142   3.55451   3.57973
  Beta virt. eigenvalues --    3.58736   3.59719   3.60292   3.61496   3.63587
  Beta virt. eigenvalues --    3.64609   3.66556   3.68171   3.69580   3.70273
  Beta virt. eigenvalues --    3.72051   3.74195   3.75254   3.78979   3.79624
  Beta virt. eigenvalues --    3.81102   3.81123   3.87020   3.87348   3.87895
  Beta virt. eigenvalues --    3.92368   3.95468   3.98390   4.05226   4.07017
  Beta virt. eigenvalues --    4.08080   4.12771   4.13279   4.14624   4.16719
  Beta virt. eigenvalues --    4.18358   4.20640   4.21688   4.23072   4.24468
  Beta virt. eigenvalues --    4.28721   4.31088   4.33251   4.35649   4.42455
  Beta virt. eigenvalues --    4.43772   4.45079   4.47827   4.49966   4.55579
  Beta virt. eigenvalues --    4.59691   4.65584   4.68770   4.72319   4.74972
  Beta virt. eigenvalues --    4.80000   4.81851   4.82238   4.85471   4.89340
  Beta virt. eigenvalues --    4.91660   4.93363   4.95168   5.02345   5.06531
  Beta virt. eigenvalues --    5.17429   5.20877   5.33941   5.43747   5.49286
  Beta virt. eigenvalues --    5.50549   5.64945   5.66831   5.80532   5.89895
  Beta virt. eigenvalues --    6.01613   6.15105   6.16655   6.48901   6.48909
  Beta virt. eigenvalues --    6.61007   6.66437   6.73355   6.78779   6.93484
  Beta virt. eigenvalues --    6.95127   7.04165   7.11029   7.15732   7.36224
  Beta virt. eigenvalues --    7.38089   7.55579  22.70062  22.74221  22.74966
  Beta virt. eigenvalues --   22.78362  22.88184  23.00314  23.72033  44.22127
  Beta virt. eigenvalues --   44.30573
          Condensed to atoms (all electrons):
               1          2          3          4          5          6
     1  O    8.219043   0.587731  -0.118676  -0.221446   0.021991  -0.005284
     2  C    0.587731   5.103700   0.175817   0.329069  -0.160548   0.041623
     3  O   -0.118676   0.175817   8.336499  -0.209707   0.012003  -0.004880
     4  C   -0.221446   0.329069  -0.209707   6.161967  -0.254572   0.144696
     5  C    0.021991  -0.160548   0.012003  -0.254572   7.371433  -1.200570
     6  C   -0.005284   0.041623  -0.004880   0.144696  -1.200570   6.646241
     7  C    0.000111  -0.005202   0.000522   0.002903  -0.004142   0.164955
     8  C   -0.005290   0.041896  -0.004877   0.144481   0.531434  -0.566957
     9  C    0.022049  -0.161514   0.012040  -0.254023  -0.757251   0.532063
    10  H    0.012150  -0.043630   0.276531   0.030713  -0.000051   0.000332
    11  H    0.020274   0.010849   0.010513   0.364451  -0.043081  -0.017432
    12  H   -0.003249   0.042939  -0.007685   0.001122   0.195911   0.085833
    13  H    0.001374  -0.009539   0.019413  -0.054474   0.503285  -0.129200
    14  H    0.000118  -0.002563   0.000284  -0.007995   0.104791   0.204282
    15  H   -0.000021  -0.000331  -0.000031  -0.001042  -0.031683   0.400589
    16  H   -0.000004   0.000022  -0.000169  -0.003654   0.004686  -0.054539
    17  H   -0.000003   0.000103  -0.000002  -0.001682   0.010063  -0.046532
    18  H    0.000118  -0.002570   0.000284  -0.007972  -0.027722   0.044388
    19  H   -0.000021  -0.000326  -0.000031  -0.000989  -0.007718   0.007273
    20  H   -0.003272   0.043131  -0.007700   0.001115   0.054945  -0.024480
    21  H    0.001371  -0.009527   0.019393  -0.054386  -0.042985   0.021666
               7          8          9         10         11         12
     1  O    0.000111  -0.005290   0.022049   0.012150   0.020274  -0.003249
     2  C   -0.005202   0.041896  -0.161514  -0.043630   0.010849   0.042939
     3  O    0.000522  -0.004877   0.012040   0.276531   0.010513  -0.007685
     4  C    0.002903   0.144481  -0.254023   0.030713   0.364451   0.001122
     5  C   -0.004142   0.531434  -0.757251  -0.000051  -0.043081   0.195911
     6  C    0.164955  -0.566957   0.532063   0.000332  -0.017432   0.085833
     7  C    5.243819   0.165049  -0.004184  -0.000004   0.001519   0.005384
     8  C    0.165049   6.644286  -1.200512   0.000341  -0.017168  -0.024422
     9  C   -0.004184  -1.200512   7.373637  -0.000085  -0.043606   0.054886
    10  H   -0.000004   0.000341  -0.000085   0.460282  -0.001705  -0.000652
    11  H    0.001519  -0.017168  -0.043606  -0.001705   0.599746  -0.000408
    12  H    0.005384  -0.024422   0.054886  -0.000652  -0.000408   0.620314
    13  H    0.000759   0.021764  -0.043169  -0.001035   0.007629  -0.031875
    14  H   -0.020730   0.044418  -0.027781  -0.000019   0.000552  -0.023781
    15  H   -0.059053   0.007425  -0.007874   0.000007   0.002568  -0.005984
    16  H    0.419359  -0.054356   0.004563   0.000002   0.000164  -0.000180
    17  H    0.418637  -0.046360   0.009969   0.000001  -0.000429  -0.000583
    18  H   -0.020751   0.204798   0.104639  -0.000019   0.000539   0.000841
    19  H   -0.059091   0.401082  -0.032117   0.000007   0.002562   0.000024
    20  H    0.005376   0.086029   0.195317  -0.000644  -0.000357  -0.002460
    21  H    0.000743  -0.128853   0.502977  -0.001042   0.007616   0.001653
              13         14         15         16         17         18
     1  O    0.001374   0.000118  -0.000021  -0.000004  -0.000003   0.000118
     2  C   -0.009539  -0.002563  -0.000331   0.000022   0.000103  -0.002570
     3  O    0.019413   0.000284  -0.000031  -0.000169  -0.000002   0.000284
     4  C   -0.054474  -0.007995  -0.001042  -0.003654  -0.001682  -0.007972
     5  C    0.503285   0.104791  -0.031683   0.004686   0.010063  -0.027722
     6  C   -0.129200   0.204282   0.400589  -0.054539  -0.046532   0.044388
     7  C    0.000759  -0.020730  -0.059053   0.419359   0.418637  -0.020751
     8  C    0.021764   0.044418   0.007425  -0.054356  -0.046360   0.204798
     9  C   -0.043169  -0.027781  -0.007874   0.004563   0.009969   0.104639
    10  H   -0.001035  -0.000019   0.000007   0.000002   0.000001  -0.000019
    11  H    0.007629   0.000552   0.002568   0.000164  -0.000429   0.000539
    12  H   -0.031875  -0.023781  -0.005984  -0.000180  -0.000583   0.000841
    13  H    0.560625   0.004084   0.008870   0.002128  -0.000157  -0.001131
    14  H    0.004084   0.680692  -0.026914  -0.004735  -0.007392  -0.002496
    15  H    0.008870  -0.026914   0.594668   0.009194  -0.003966  -0.000789
    16  H    0.002128  -0.004735   0.009194   0.588801  -0.030051  -0.004764
    17  H   -0.000157  -0.007392  -0.003966  -0.030051   0.608956  -0.007429
    18  H   -0.001131  -0.002496  -0.000789  -0.004764  -0.007429   0.680499
    19  H    0.000036  -0.000780   0.002870   0.009192  -0.003971  -0.027002
    20  H    0.001665   0.000843   0.000031  -0.000174  -0.000579  -0.023787
    21  H    0.001421  -0.001128   0.000033   0.002117  -0.000161   0.004033
              19         20         21
     1  O   -0.000021  -0.003272   0.001371
     2  C   -0.000326   0.043131  -0.009527
     3  O   -0.000031  -0.007700   0.019393
     4  C   -0.000989   0.001115  -0.054386
     5  C   -0.007718   0.054945  -0.042985
     6  C    0.007273  -0.024480   0.021666
     7  C   -0.059091   0.005376   0.000743
     8  C    0.401082   0.086029  -0.128853
     9  C   -0.032117   0.195317   0.502977
    10  H    0.000007  -0.000644  -0.001042
    11  H    0.002562  -0.000357   0.007616
    12  H    0.000024  -0.002460   0.001653
    13  H    0.000036   0.001665   0.001421
    14  H   -0.000780   0.000843  -0.001128
    15  H    0.002870   0.000031   0.000033
    16  H    0.009192  -0.000174   0.002117
    17  H   -0.003971  -0.000579  -0.000161
    18  H   -0.027002  -0.023787   0.004033
    19  H    0.594641  -0.005946   0.008856
    20  H   -0.005946   0.620496  -0.031841
    21  H    0.008856  -0.031841   0.560526
          Atomic-Atomic Spin Densities.
               1          2          3          4          5          6
     1  O    0.569313  -0.327874   0.034822  -0.045661   0.023911  -0.003242
     2  C   -0.327874   0.992639  -0.156120   0.258359  -0.147306   0.047151
     3  O    0.034822  -0.156120   0.143838  -0.020454   0.013097  -0.005925
     4  C   -0.045661   0.258359  -0.020454   0.066379  -0.290390   0.166507
     5  C    0.023911  -0.147306   0.013097  -0.290390   1.978853  -1.423023
     6  C   -0.003242   0.047151  -0.005925   0.166507  -1.423023   1.427393
     7  C    0.000087  -0.002077   0.000368  -0.019610   0.071820  -0.105004
     8  C   -0.003248   0.047420  -0.005922   0.166302   0.536690  -0.508926
     9  C    0.023971  -0.148250   0.013140  -0.289913  -0.771394   0.537321
    10  H    0.000674  -0.002357   0.003286  -0.001496   0.000078  -0.000009
    11  H   -0.000794  -0.009591  -0.000249   0.015091  -0.002442   0.000057
    12  H   -0.009220   0.039910  -0.006375   0.054925  -0.211987   0.142234
    13  H    0.000856  -0.012959   0.004286  -0.017076   0.093352  -0.071570
    14  H    0.000079  -0.002650   0.000239  -0.015699   0.147037  -0.203993
    15  H    0.000040  -0.000469   0.000027  -0.003546   0.022276  -0.024289
    16  H   -0.000000  -0.000018  -0.000001   0.000128   0.000143  -0.000402
    17  H   -0.000000   0.000002  -0.000000  -0.000023  -0.000623  -0.000838
    18  H    0.000079  -0.002657   0.000238  -0.015678  -0.025699   0.032606
    19  H    0.000040  -0.000463   0.000026  -0.003493  -0.008275   0.008758
    20  H   -0.009245   0.040099  -0.006391   0.054927   0.039689  -0.022961
    21  H    0.000854  -0.012946   0.004266  -0.016989  -0.033590   0.023094
               7          8          9         10         11         12
     1  O    0.000087  -0.003248   0.023971   0.000674  -0.000794  -0.009220
     2  C   -0.002077   0.047420  -0.148250  -0.002357  -0.009591   0.039910
     3  O    0.000368  -0.005922   0.013140   0.003286  -0.000249  -0.006375
     4  C   -0.019610   0.166302  -0.289913  -0.001496   0.015091   0.054925
     5  C    0.071820   0.536690  -0.771394   0.000078  -0.002442  -0.211987
     6  C   -0.105004  -0.508926   0.537321  -0.000009   0.000057   0.142234
     7  C    0.037853  -0.104912   0.071772  -0.000007   0.000555  -0.006690
     8  C   -0.104912   1.425507  -1.422993   0.000000   0.000319  -0.022904
     9  C    0.071772  -1.422993   1.981093   0.000043  -0.002956   0.039635
    10  H   -0.000007   0.000000   0.000043  -0.002571   0.000010   0.000043
    11  H    0.000555   0.000319  -0.002956   0.000010  -0.002688  -0.000142
    12  H   -0.006690  -0.022904   0.039635   0.000043  -0.000142   0.024827
    13  H    0.003201   0.023191  -0.033771   0.000022   0.000052  -0.012526
    14  H    0.028402   0.032635  -0.025758   0.000001  -0.000049  -0.017712
    15  H    0.002321   0.008910  -0.008431   0.000000   0.000182  -0.001963
    16  H   -0.000535  -0.000221   0.000021   0.000001  -0.000006  -0.000028
    17  H    0.004386  -0.000671  -0.000717   0.000000  -0.000019   0.000065
    18  H    0.028378  -0.203493   0.146895   0.000001  -0.000062   0.000599
    19  H    0.002281  -0.023797   0.021846   0.000000   0.000176   0.000335
    20  H   -0.006697   0.142430  -0.212565   0.000051  -0.000091  -0.001738
    21  H    0.003183  -0.071224   0.093047   0.000016   0.000039   0.001798
              13         14         15         16         17         18
     1  O    0.000856   0.000079   0.000040  -0.000000  -0.000000   0.000079
     2  C   -0.012959  -0.002650  -0.000469  -0.000018   0.000002  -0.002657
     3  O    0.004286   0.000239   0.000027  -0.000001  -0.000000   0.000238
     4  C   -0.017076  -0.015699  -0.003546   0.000128  -0.000023  -0.015678
     5  C    0.093352   0.147037   0.022276   0.000143  -0.000623  -0.025699
     6  C   -0.071570  -0.203993  -0.024289  -0.000402  -0.000838   0.032606
     7  C    0.003201   0.028402   0.002321  -0.000535   0.004386   0.028378
     8  C    0.023191   0.032635   0.008910  -0.000221  -0.000671  -0.203493
     9  C   -0.033771  -0.025758  -0.008431   0.000021  -0.000717   0.146895
    10  H    0.000022   0.000001   0.000000   0.000001   0.000000   0.000001
    11  H    0.000052  -0.000049   0.000182  -0.000006  -0.000019  -0.000062
    12  H   -0.012526  -0.017712  -0.001963  -0.000028   0.000065   0.000599
    13  H    0.008208   0.008344   0.000604   0.000129  -0.000018  -0.001036
    14  H    0.008344   0.056580   0.004113  -0.000034  -0.000159  -0.001941
    15  H    0.000604   0.004113   0.001811   0.000012   0.000061  -0.000568
    16  H    0.000129  -0.000034   0.000012   0.000570   0.000729  -0.000063
    17  H   -0.000018  -0.000159   0.000061   0.000729  -0.004003  -0.000196
    18  H   -0.001036  -0.001941  -0.000568  -0.000063  -0.000196   0.056398
    19  H   -0.000174  -0.000558  -0.000252   0.000010   0.000057   0.004025
    20  H    0.001810   0.000601   0.000341  -0.000022   0.000068  -0.017717
    21  H   -0.003087  -0.001033  -0.000177   0.000118  -0.000022   0.008292
              19         20         21
     1  O    0.000040  -0.009245   0.000854
     2  C   -0.000463   0.040099  -0.012946
     3  O    0.000026  -0.006391   0.004266
     4  C   -0.003493   0.054927  -0.016989
     5  C   -0.008275   0.039689  -0.033590
     6  C    0.008758  -0.022961   0.023094
     7  C    0.002281  -0.006697   0.003183
     8  C   -0.023797   0.142430  -0.071224
     9  C    0.021846  -0.212565   0.093047
    10  H    0.000000   0.000051   0.000016
    11  H    0.000176  -0.000091   0.000039
    12  H    0.000335  -0.001738   0.001798
    13  H   -0.000174   0.001810  -0.003087
    14  H   -0.000558   0.000601  -0.001033
    15  H   -0.000252   0.000341  -0.000177
    16  H    0.000010  -0.000022   0.000118
    17  H    0.000057   0.000068  -0.000022
    18  H    0.004025  -0.017717   0.008292
    19  H    0.001783  -0.001924   0.000591
    20  H   -0.001924   0.024982  -0.012491
    21  H    0.000591  -0.012491   0.008107
 Mulliken charges and spin densities:
               1          2
     1  O   -0.529064   0.255442
     2  C    0.018869   0.599845
     3  O   -0.509542   0.016195
     4  C   -0.108575   0.042591
     5  C   -0.280217   0.012217
     6  C   -0.244069   0.014941
     7  C   -0.255981   0.009077
     8  C   -0.244210   0.015093
     9  C   -0.280024   0.012035
    10  H    0.268520  -0.002211
    11  H    0.095203  -0.002607
    12  H    0.092373   0.013085
    13  H    0.137525  -0.008161
    14  H    0.086248   0.008447
    15  H    0.111433   0.001005
    16  H    0.112397   0.000531
    17  H    0.101568  -0.001920
    18  H    0.086293   0.008401
    19  H    0.111449   0.000989
    20  H    0.092290   0.013159
    21  H    0.137516  -0.008154
 Sum of Mulliken charges =  -1.00000   1.00000
 Mulliken charges and spin densities with hydrogens summed into heavy atoms:
               1          2
     1  O   -0.529064   0.255442
     2  C    0.018869   0.599845
     3  O   -0.241023   0.013984
     4  C   -0.013372   0.039984
     5  C   -0.050319   0.017142
     6  C   -0.046388   0.024392
     7  C   -0.042016   0.007688
     8  C   -0.046469   0.024484
     9  C   -0.050218   0.017039
 Electronic spatial extent (au):  <R**2>=           1358.0068
 Charge=             -1.0000 electrons
 Dipole moment (field-independent basis, Debye):
    X=             -6.7858    Y=             -0.0003    Z=              1.8769  Tot=              7.0406
 Quadrupole moment (field-independent basis, Debye-Ang):
   XX=            -86.3435   YY=            -63.7341   ZZ=            -64.8263
   XY=             -0.0018   XZ=              8.4358   YZ=              0.0005
 Traceless Quadrupole moment (field-independent basis, Debye-Ang):
   XX=            -14.7089   YY=              7.9005   ZZ=              6.8083
   XY=             -0.0018   XZ=              8.4358   YZ=              0.0005
 Octapole moment (field-independent basis, Debye-Ang**2):
  XXX=            -15.9838  YYY=             -0.0019  ZZZ=              3.5674  XYY=              8.6719
  XXY=              0.0008  XXZ=             31.8616  XZZ=             -6.5595  YZZ=             -0.0000
  YYZ=              0.8179  XYZ=              0.0009
 Hexadecapole moment (field-independent basis, Debye-Ang**3):
 XXXX=          -1412.7982 YYYY=           -416.7116 ZZZZ=           -230.6516 XXXY=             -0.0163
 XXXZ=            116.1951 YYYX=             -0.0112 YYYZ=              0.0012 ZZZX=             14.8171
 ZZZY=              0.0010 XXYY=           -295.3384 XXZZ=           -269.7692 YYZZ=           -106.3416
 XXYZ=              0.0022 YYXZ=             -0.7401 ZZXY=             -0.0011
 N-N= 4.768310901325D+02 E-N=-1.957578801900D+03  KE= 4.229679212787D+02
 There are a total of      473310 grid points.
 ElSum from          density=       71.0000501640
 ElSum from atomic densities=       70.0000971136

 Hirshfeld populations at iteration   1 (CX, CA, CB, DipXYZ):
               1          2          3          4          5          6
     1  O    0.000000   4.398029   4.120983  -0.218419  -0.000003   0.184491
     2  C    0.000000   3.219829   2.797174  -0.035671  -0.000055   0.109926
     3  O    0.000000   4.185976   4.098431   0.071677   0.000013  -0.173753
     4  C    0.000000   3.048851   3.000014  -0.049280  -0.000005   0.022773
     5  C    0.000000   3.055910   3.015675  -0.026422   0.017687  -0.011931
     6  C    0.000000   3.040209   3.028117   0.021311   0.031665   0.010423
     7  C    0.000000   3.033532   3.029308   0.037902   0.000004  -0.016463
     8  C    0.000000   3.040208   3.028117   0.021303  -0.031658   0.010420
     9  C    0.000000   3.055920   3.015670  -0.026443  -0.017700  -0.011930
    10  H    0.000000   0.442103   0.438652   0.189356   0.000010   0.048063
    11  H    0.000000   0.495807   0.492967  -0.014665  -0.000002  -0.117373
    12  H    0.000000   0.503005   0.489780   0.035023  -0.096330  -0.053611
    13  H    0.000000   0.495207   0.493169   0.002072  -0.004821   0.116604
    14  H    0.000000   0.503062   0.496547  -0.035379  -0.094573   0.052764
    15  H    0.000000   0.494614   0.493658  -0.006237  -0.004620  -0.122657
    16  H    0.000000   0.492721   0.492129   0.010812  -0.000001   0.125050
    17  H    0.000000   0.499146   0.496479  -0.114341   0.000010  -0.038308
    18  H    0.000000   0.503049   0.496547  -0.035401   0.094589   0.052775
    19  H    0.000000   0.494614   0.493658  -0.006241   0.004628  -0.122655
    20  H    0.000000   0.503025   0.489778   0.034983   0.096305  -0.053601
    21  H    0.000000   0.495209   0.493169   0.002071   0.004809   0.116607
       Tot   0.000000  36.000027  35.000023  -0.141989  -0.000048   0.127614

 Dip from Atomic Chgs             -2.527660  -0.000077   0.610833
         Total Dipole             -2.669649  -0.000125   0.738448

 Hirshfeld charges, spin densities, dipoles, and CM5 charges using IRadAn=      5:
              Q-H        S-H        Dx         Dy         Dz        Q-CM5   
     1  O   -0.519012   0.277046  -0.218419  -0.000003   0.184491  -0.570030
     2  C   -0.017004   0.422655  -0.035671  -0.000055   0.109926   0.032058
     3  O   -0.284406   0.087545   0.071677   0.000013  -0.173753  -0.484702
     4  C   -0.048866   0.048837  -0.049280  -0.000005   0.022773  -0.108234
     5  C   -0.071585   0.040234  -0.026422   0.017687  -0.011931  -0.178095
     6  C   -0.068326   0.012093   0.021311   0.031665   0.010423  -0.178479
     7  C   -0.062840   0.004224   0.037902   0.000004  -0.016463  -0.173080
     8  C   -0.068325   0.012091   0.021303  -0.031658   0.010420  -0.178478
     9  C   -0.071591   0.040250  -0.026443  -0.017700  -0.011930  -0.178101
    10  H    0.119245   0.003450   0.189356   0.000010   0.048063   0.296944
    11  H    0.011225   0.002840  -0.014665  -0.000002  -0.117373   0.075606
    12  H    0.007215   0.013226   0.035023  -0.096330  -0.053611   0.063533
    13  H    0.011624   0.002037   0.002072  -0.004821   0.116604   0.071231
    14  H    0.000392   0.006515  -0.035379  -0.094573   0.052764   0.055080
    15  H    0.011728   0.000957  -0.006237  -0.004620  -0.122657   0.067482
    16  H    0.015150   0.000592   0.010812  -0.000001   0.125050   0.070894
    17  H    0.004375   0.002666  -0.114341   0.000010  -0.038308   0.059003
    18  H    0.000404   0.006502  -0.035401   0.094589   0.052775   0.055092
    19  H    0.011729   0.000956  -0.006241   0.004628  -0.122655   0.067483
    20  H    0.007196   0.013247   0.034983   0.096305  -0.053601   0.063514
    21  H    0.011622   0.002040   0.002071   0.004809   0.116607   0.071229
       Tot  -1.000050   1.000003  -0.141989  -0.000048   0.127614  -1.000050
 Hirshfeld charges and spin densities with hydrogens summed into heavy atoms:
              Q-H        S-H       Q-CM5   
     1  O   -0.519012   0.277046  -0.570030
     2  C   -0.017004   0.422655   0.032058
     3  O   -0.165162   0.090995  -0.187758
     4  C   -0.037640   0.051677  -0.032628
     5  C   -0.052747   0.055497  -0.043332
     6  C   -0.056206   0.019565  -0.055917
     7  C   -0.043315   0.007483  -0.043183
     8  C   -0.056193   0.019549  -0.055904
     9  C   -0.052772   0.055536  -0.043358
 
 EQQ= 0.109743412359     EQD=-0.254130657654E-02 EDD=-0.208826214672E-02
 EQQ+QD+DD= 0.105113843636    
 
                          Isotropic Fermi Contact Couplings
        Atom                 a.u.       MegaHertz       Gauss      10(-4) cm-1
     1  O(17)              0.05840     -35.40170     -12.63221     -11.80874
     2  C(13)              0.07209      81.04848      28.92011      27.03486
     3  O(17)              0.00705      -4.27396      -1.52506      -1.42564
     4  C(13)             -0.03277     -36.84203     -13.14615     -12.28918
     5  C(13)              0.09718     109.25052      38.98330      36.44205
     6  C(13)              0.02262      25.43338       9.07526       8.48366
     7  C(13)             -0.00075      -0.84127      -0.30019      -0.28062
     8  C(13)              0.02258      25.38796       9.05906       8.46851
     9  C(13)              0.09729     109.37481      39.02765      36.48351
    10  H(1)              -0.00135      -6.04437      -2.15678      -2.01618
    11  H(1)              -0.00046      -2.04659      -0.73027      -0.68267
    12  H(1)              -0.00030      -1.35030      -0.48182      -0.45041
    13  H(1)              -0.00039      -1.75213      -0.62520      -0.58445
    14  H(1)               0.00019       0.85811       0.30619       0.28623
    15  H(1)               0.00029       1.29899       0.46351       0.43329
    16  H(1)               0.00000       0.00718       0.00256       0.00239
    17  H(1)               0.00000       0.01183       0.00422       0.00395
    18  H(1)               0.00019       0.85223       0.30410       0.28427
    19  H(1)               0.00029       1.29415       0.46178       0.43168
    20  H(1)              -0.00030      -1.35539      -0.48364      -0.45211
    21  H(1)              -0.00039      -1.74874      -0.62399      -0.58332
 --------------------------------------------------------
       Center         ----  Spin Dipole Couplings  ----
                      3XX-RR        3YY-RR        3ZZ-RR
 --------------------------------------------------------
     1   Atom       -0.665262      1.325197     -0.659935
     2   Atom       -0.379094      0.777187     -0.398094
     3   Atom       -0.190092      0.407905     -0.217814
     4   Atom        0.006162      0.001536     -0.007698
     5   Atom       -0.002841      0.002125      0.000716
     6   Atom        0.009539     -0.005772     -0.003767
     7   Atom        0.004139     -0.001300     -0.002840
     8   Atom        0.009549     -0.005781     -0.003769
     9   Atom       -0.002820      0.002112      0.000708
    10   Atom        0.013670     -0.010828     -0.002842
    11   Atom        0.007057     -0.005914     -0.001143
    12   Atom        0.001582      0.009047     -0.010628
    13   Atom        0.001868     -0.003955      0.002087
    14   Atom        0.003521     -0.000608     -0.002913
    15   Atom        0.002474     -0.002143     -0.000331
    16   Atom        0.001940     -0.001147     -0.000792
    17   Atom        0.001570      0.000187     -0.001757
    18   Atom        0.003520     -0.000607     -0.002912
    19   Atom        0.002475     -0.002142     -0.000333
    20   Atom        0.001582      0.009050     -0.010632
    21   Atom        0.001867     -0.003958      0.002091
 --------------------------------------------------------
                        XY            XZ            YZ
 --------------------------------------------------------
     1   Atom        0.000041      0.030589      0.000131
     2   Atom       -0.000040     -0.008852      0.000093
     3   Atom        0.000112      0.003511      0.000063
     4   Atom       -0.000005      0.001724      0.000004
     5   Atom        0.016938     -0.018726     -0.018385
     6   Atom        0.000336      0.006529     -0.000362
     7   Atom       -0.000001     -0.000370      0.000001
     8   Atom       -0.000345      0.006543      0.000358
     9   Atom       -0.016934     -0.018730      0.018364
    10   Atom       -0.000009      0.014030     -0.000003
    11   Atom       -0.000000      0.013171     -0.000001
    12   Atom        0.004511      0.000536      0.001197
    13   Atom        0.004509     -0.005827     -0.004557
    14   Atom        0.002886     -0.000260     -0.000483
    15   Atom        0.001420      0.002314      0.000465
    16   Atom        0.000000     -0.001643     -0.000000
    17   Atom        0.000001      0.000015      0.000000
    18   Atom       -0.002885     -0.000259      0.000483
    19   Atom       -0.001420      0.002313     -0.000466
    20   Atom       -0.004508      0.000535     -0.001199
    21   Atom       -0.004508     -0.005831      0.004558
 --------------------------------------------------------


 ---------------------------------------------------------------------------------
              Anisotropic Spin Dipole Couplings in Principal Axis System
 ---------------------------------------------------------------------------------

       Atom             a.u.   MegaHertz   Gauss  10(-4) cm-1        Axes

              Baa    -0.6933    50.167    17.901    16.734  0.7371  0.0000 -0.6757
     1 O(17)  Bbb    -0.6319    45.723    16.315    15.252  0.6757 -0.0001  0.7371
              Bcc     1.3252   -95.890   -34.216   -31.986  0.0000  1.0000  0.0001
 
              Baa    -0.4016   -53.888   -19.229   -17.975  0.3663 -0.0001  0.9305
     2 C(13)  Bbb    -0.3756   -50.403   -17.985   -16.813  0.9305  0.0001 -0.3663
              Bcc     0.7772   104.291    37.214    34.788 -0.0000  1.0000  0.0001
 
              Baa    -0.2183    15.793     5.635     5.268 -0.1237 -0.0001  0.9923
     3 O(17)  Bbb    -0.1897    13.723     4.897     4.578  0.9923 -0.0002  0.1237
              Bcc     0.4079   -29.516   -10.532    -9.845  0.0002  1.0000  0.0001
 
              Baa    -0.0079    -1.061    -0.379    -0.354 -0.1216 -0.0004  0.9926
     4 C(13)  Bbb     0.0015     0.206     0.074     0.069  0.0008  1.0000  0.0005
              Bcc     0.0064     0.855     0.305     0.285  0.9926 -0.0009  0.1216
 
              Baa    -0.0199    -2.667    -0.952    -0.890  0.7525 -0.0296  0.6579
     5 C(13)  Bbb    -0.0162    -2.180    -0.778    -0.727 -0.3721  0.8051  0.4618
              Bcc     0.0361     4.848     1.730     1.617 -0.5434 -0.5923  0.5949
 
              Baa    -0.0067    -0.895    -0.320    -0.299 -0.3404  0.4570  0.8218
     6 C(13)  Bbb    -0.0055    -0.743    -0.265    -0.248  0.1648  0.8894 -0.4263
              Bcc     0.0122     1.638     0.585     0.546  0.9257  0.0097  0.3781
 
              Baa    -0.0029    -0.384    -0.137    -0.128  0.0528 -0.0004  0.9986
     7 C(13)  Bbb    -0.0013    -0.174    -0.062    -0.058  0.0002  1.0000  0.0004
              Bcc     0.0042     0.558     0.199     0.186  0.9986 -0.0001 -0.0528
 
              Baa    -0.0067    -0.897    -0.320    -0.299 -0.3409 -0.4568  0.8216
     8 C(13)  Bbb    -0.0055    -0.744    -0.266    -0.248 -0.1645  0.8895  0.4263
              Bcc     0.0122     1.641     0.586     0.547  0.9256 -0.0102  0.3784
 
              Baa    -0.0199    -2.667    -0.952    -0.890  0.7524  0.0298  0.6581
     9 C(13)  Bbb    -0.0162    -2.179    -0.777    -0.727  0.3719  0.8053 -0.4617
              Bcc     0.0361     4.846     1.729     1.616 -0.5437  0.5921  0.5948
 
              Baa    -0.0109    -5.797    -2.068    -1.934 -0.4954 -0.0632  0.8663
    10 H(1)   Bbb    -0.0108    -5.777    -2.062    -1.927 -0.0311  0.9980  0.0550
              Bcc     0.0217    11.574     4.130     3.861  0.8681 -0.0003  0.4964
 
              Baa    -0.0108    -5.782    -2.063    -1.929 -0.5928  0.0001  0.8054
    11 H(1)   Bbb    -0.0059    -3.156    -1.126    -1.053  0.0001  1.0000 -0.0000
              Bcc     0.0168     8.938     3.189     2.981  0.8054 -0.0000  0.5928
 
              Baa    -0.0107    -5.713    -2.038    -1.906 -0.0233 -0.0551  0.9982
    12 H(1)   Bbb    -0.0005    -0.288    -0.103    -0.096  0.9050 -0.4255 -0.0024
              Bcc     0.0112     6.001     2.141     2.002  0.4248  0.9033  0.0598
 
              Baa    -0.0068    -3.614    -1.290    -1.206 -0.2879  0.9154  0.2814
    13 H(1)   Bbb    -0.0039    -2.055    -0.733    -0.685  0.7109  0.0074  0.7033
              Bcc     0.0106     5.669     2.023     1.891 -0.6417 -0.4025  0.6528
 
              Baa    -0.0030    -1.622    -0.579    -0.541 -0.0947  0.3009  0.9490
    14 H(1)   Bbb    -0.0020    -1.062    -0.379    -0.354 -0.4525  0.8361 -0.3102
              Bcc     0.0050     2.684     0.958     0.895  0.8867  0.4587 -0.0570
 
              Baa    -0.0026    -1.372    -0.490    -0.458 -0.3300  0.9324  0.1474
    15 H(1)   Bbb    -0.0015    -0.827    -0.295    -0.276 -0.4024 -0.2802  0.8715
              Bcc     0.0041     2.199     0.785     0.733  0.8539  0.2283  0.4676
 
              Baa    -0.0016    -0.834    -0.298    -0.278  0.4247  0.0001  0.9054
    16 H(1)   Bbb    -0.0011    -0.612    -0.218    -0.204 -0.0001  1.0000 -0.0000
              Bcc     0.0027     1.446     0.516     0.482  0.9054  0.0001 -0.4247
 
              Baa    -0.0018    -0.937    -0.334    -0.313 -0.0044 -0.0002  1.0000
    17 H(1)   Bbb     0.0002     0.100     0.036     0.033 -0.0006  1.0000  0.0002
              Bcc     0.0016     0.838     0.299     0.279  1.0000  0.0006  0.0044
 
              Baa    -0.0030    -1.622    -0.579    -0.541 -0.0950 -0.3013  0.9488
    18 H(1)   Bbb    -0.0020    -1.061    -0.379    -0.354  0.4524  0.8359  0.3107
              Bcc     0.0050     2.683     0.957     0.895  0.8868 -0.4587 -0.0568
 
              Baa    -0.0026    -1.372    -0.490    -0.458  0.3297  0.9326 -0.1467
    19 H(1)   Bbb    -0.0015    -0.827    -0.295    -0.276 -0.4024  0.2793  0.8718
              Bcc     0.0041     2.199     0.785     0.733  0.8540 -0.2284  0.4674
 
              Baa    -0.0107    -5.715    -2.039    -1.906 -0.0231  0.0553  0.9982
    20 H(1)   Bbb    -0.0005    -0.287    -0.102    -0.096  0.9051  0.4252 -0.0026
              Bcc     0.0112     6.002     2.142     2.002 -0.4246  0.9034 -0.0599
 
              Baa    -0.0068    -3.615    -1.290    -1.206  0.2877  0.9155 -0.2814
    21 H(1)   Bbb    -0.0039    -2.056    -0.733    -0.686  0.7110 -0.0073  0.7031
              Bcc     0.0106     5.671     2.023     1.892 -0.6416  0.4023  0.6530
 

 ---------------------------------------------------------------------------------

 Running external command "gaunbo6 R"
         input file       "/tmp/Gau-1605849.EIn"
         output file      "/tmp/Gau-1605849.EOu"
         message file     "/tmp/Gau-1605849.EMs"
         fchk file        "/tmp/Gau-1605849.EFC"
         mat. el file     "/tmp/Gau-1605849.EUF"

 Writing WrtUnf unformatted file "/tmp/Gau-1605849.EUF"
 Gaussian matrix elements                                         Version   2 NLab=11 Len12L=8 Len4L=8
 Write SHELL TO ATOM MAP                   from file      0 offset           0 length                 147 to matrix element file.
 Write SHELL TYPES                         from file      0 offset           0 length                 147 to matrix element file.
 Write NUMBER OF PRIMITIVES PER SHELL      from file      0 offset           0 length                 147 to matrix element file.
 Write PRIMITIVE EXPONENTS                 from file      0 offset           0 length                 252 to matrix element file.
 Write CONTRACTION COEFFICIENTS            from file      0 offset           0 length                 252 to matrix element file.
 Write P(S=P) CONTRACTION COEFFICIENTS     from file      0 offset           0 length                 252 to matrix element file.
 Write COORDINATES OF EACH SHELL           from file      0 offset           0 length                 441 to matrix element file.
 Write BONDS PER ATOM                      from file      0 offset           0 length                  21 to matrix element file.
 Write BONDED ATOMS                        from file      0 offset           0 length                  42 to matrix element file.
 Write BOND TYPES                          from file      0 offset           0 length                  42 to matrix element file.
 Write ONIOM CHARGE/MULT                   from file      0 offset           0 length                  32 to matrix element file.
 Write ONIOM ATOM LAYERS                   from file      0 offset           0 length                  21 to matrix element file.
 Write ONIOM ATOM MODIFIERS                from file      0 offset           0 length                  21 to matrix element file.
 Write ONIOM ATOM TYPES                    from file      0 offset           0 length                  21 to matrix element file.
 Write ONIOM LINK ATOMS                    from file      0 offset           0 length                  21 to matrix element file.
 Write ONIOM LINK CHARGES                  from file      0 offset           0 length                  21 to matrix element file.
 Write ONIOM LINK DISTANCES                from file      0 offset           0 length                  84 to matrix element file.
 Write SYMINF INTS                         from file      0 offset           0 length                  26 to matrix element file.
 Write ROTTR TO SO                         from file      0 offset           0 length                  12 to matrix element file.
 Write GAUSSIAN SCALARS                    from file    501 offset           0 to matrix element file.
 Write OPTIMIZATION FLAGS                  from file      0 offset           0 length                  21 to matrix element file.
 Write INTEGER ISO                         from file      0 offset           0 length                  21 to matrix element file.
 Write INTEGER SPIN                        from file      0 offset           0 length                  21 to matrix element file.
 Write REAL ZEFFECTIVE                     from file      0 offset           0 length                  21 to matrix element file.
 Write REAL GFACTOR                        from file      0 offset           0 length                  21 to matrix element file.
 Write REAL ZNUCLEAR                       from file      0 offset           0 length                  21 to matrix element file.
 Write MULLIKEN CHARGES                    from file      0 offset           0 length                  21 to matrix element file.
 Write TYPE 6 CHARGES                      from file      0 offset           0 length                  21 to matrix element file.
 Write TYPE 7 CHARGES                      from file      0 offset           0 length                  21 to matrix element file.
 Write NUCLEAR GRADIENT                    from file  10584 offset           0 length                  63 to matrix element file.
 Array NUCLEAR FORCE CONSTANTS              on  file  10585 does not exist.
 Write ELECTRIC DIPOLE MOMENT              from file      0 offset           0 length                   3 to matrix element file.
 Write NON-ADIABATIC COUPLING              from file  10810 offset           0 length                  63 to matrix element file.
 Write FINITE EM FIELD                     from file  10521 offset           0 length                  35 to matrix element file.
 Write OVERLAP                             from file  10514 offset           0 length               61776 to matrix element file.
 Write CORE HAMILTONIAN ALPHA              from file  10515 offset           0 length               61776 to matrix element file.
 Write CORE HAMILTONIAN BETA               from file  10515 offset       61776 length               61776 to matrix element file.
 Write KINETIC ENERGY                      from file  10516 offset           0 length               61776 to matrix element file.
 Write ORTHOGONAL BASIS                    from file  10685 offset           0 length              123201 to matrix element file.
 Write DIPOLE INTEGRALS                    from file  10518 offset           0 length              185328 to matrix element file.
 Array DIP VEL INTEGRALS                    on  file  10572 does not exist.
 Array R X DEL INTEGRALS                    on  file  10572 does not exist.
 Write ALPHA ORBITAL ENERGIES              from file      0 offset           0 length                 351 to matrix element file.
 Write BETA ORBITAL ENERGIES               from file      0 offset           0 length                 351 to matrix element file.
 Write ALPHA MO COEFFICIENTS               from file  10524 offset           0 length              123201 to matrix element file.
 Write BETA MO COEFFICIENTS                from file  10526 offset           0 length              123201 to matrix element file.
 Write ALPHA DENSITY MATRIX                from file      0 offset           0 length               61776 to matrix element file.
 Write BETA DENSITY MATRIX                 from file      0 offset           0 length               61776 to matrix element file.
 Write ALPHA FOCK MATRIX                   from file  10536 offset           0 length               61776 to matrix element file.
 Write BETA FOCK MATRIX                    from file  10538 offset           0 length               61776 to matrix element file.
 Write ENERGY-WEIGHTED DENSITY             from file  10571 offset           0 length               61776 to matrix element file.
 Write ALPHA SCF DENSITY MATRIX            from file      0 offset           0 length               61776 to matrix element file.
 Write BETA SCF DENSITY MATRIX             from file      0 offset           0 length               61776 to matrix element file.
 No 2e integrals to process.
 Perform NBO analysis...

 *********************************** NBO 7.0 ***********************************
             N A T U R A L   A T O M I C   O R B I T A L   A N D
          N A T U R A L   B O N D   O R B I T A L   A N A L Y S I S
 **************************** Robert Paton (I101709) ***************************
  (c) Copyright 1996-2019 Board of Regents of the University of Wisconsin System
      on behalf of the Theoretical Chemistry Institute.  All rights reserved.

          Cite this program [NBO 7.0.5 (4-Jun-2019)] as:

          NBO 7.0.  E. D. Glendening, J. K. Badenhoop, A. E. Reed,
          J. E. Carpenter, J. A. Bohmann, C. M. Morales, P. Karafiloglou,
          C. R. Landis, and F. Weinhold, Theoretical Chemistry Institute,
          University of Wisconsin, Madison, WI (2018)

 Filename set to /tmp/Gau-1605849

 Job title:  Ac7_rdkit_conf_3_SP_charge_n


 NATURAL POPULATIONS:  Natural atomic orbital occupancies

  NAO Atom No lang   Type(AO)    Occupancy     Spin
 -----------------------------------------------------
   1    O  1  s      Cor( 1s)     2.00000     0.00000
   2    O  1  s      Val( 2s)     1.68139     0.00460
   3    O  1  s      Ryd( 3s)     0.00044     0.00003
   4    O  1  s      Ryd( 4s)     0.00002     0.00000
   5    O  1  s      Ryd( 5s)     0.00000     0.00000
   6    O  1  px     Val( 2p)     1.68954    -0.00417
   7    O  1  px     Ryd( 3p)     0.00158     0.00001
   8    O  1  px     Ryd( 4p)     0.00012     0.00001
   9    O  1  py     Val( 2p)     1.69673     0.24458
  10    O  1  py     Ryd( 3p)     0.00441     0.00393
  11    O  1  py     Ryd( 4p)     0.00001     0.00001
  12    O  1  pz     Val( 2p)     1.72626    -0.00313
  13    O  1  pz     Ryd( 3p)     0.00199     0.00001
  14    O  1  pz     Ryd( 4p)     0.00012     0.00001
  15    O  1  dxy    Ryd( 3d)     0.00233    -0.00040
  16    O  1  dxy    Ryd( 4d)     0.00003     0.00002
  17    O  1  dxz    Ryd( 3d)     0.00697     0.00000
  18    O  1  dxz    Ryd( 4d)     0.00000     0.00000
  19    O  1  dyz    Ryd( 3d)     0.00225    -0.00008
  20    O  1  dyz    Ryd( 4d)     0.00004     0.00003
  21    O  1  dx2y2  Ryd( 3d)     0.00284     0.00004
  22    O  1  dx2y2  Ryd( 4d)     0.00001     0.00000
  23    O  1  dz2    Ryd( 3d)     0.00345     0.00000
  24    O  1  dz2    Ryd( 4d)     0.00001     0.00000
  25    O  1  f(0)   Ryd( 4f)     0.00009     0.00000
  26    O  1  f(c1)  Ryd( 4f)     0.00016     0.00000
  27    O  1  f(s1)  Ryd( 4f)     0.00002     0.00000
  28    O  1  f(c2)  Ryd( 4f)     0.00010    -0.00001
  29    O  1  f(s2)  Ryd( 4f)     0.00014     0.00000
  30    O  1  f(c3)  Ryd( 4f)     0.00004    -0.00001
  31    O  1  f(s3)  Ryd( 4f)     0.00005    -0.00001

  32    C  2  s      Cor( 1s)     1.99999     0.00000
  33    C  2  s      Val( 2s)     0.74457     0.01823
  34    C  2  s      Ryd( 3s)     0.00625     0.00013
  35    C  2  s      Ryd( 4s)     0.00037     0.00007
  36    C  2  s      Ryd( 5s)     0.00000     0.00000
  37    C  2  px     Val( 2p)     0.87007     0.01107
  38    C  2  px     Ryd( 3p)     0.01228    -0.00040
  39    C  2  px     Ryd( 4p)     0.00133     0.00002
  40    C  2  py     Val( 2p)     1.20194     0.53933
  41    C  2  py     Ryd( 3p)     0.01435     0.01178
  42    C  2  py     Ryd( 4p)     0.00106     0.00094
  43    C  2  pz     Val( 2p)     0.70675     0.00890
  44    C  2  pz     Ryd( 3p)     0.01384    -0.00026
  45    C  2  pz     Ryd( 4p)     0.00118     0.00005
  46    C  2  dxy    Ryd( 4d)     0.00122     0.00039
  47    C  2  dxy    Ryd( 3d)     0.00054     0.00040
  48    C  2  dxz    Ryd( 4d)     0.00054    -0.00001
  49    C  2  dxz    Ryd( 3d)     0.00071    -0.00002
  50    C  2  dyz    Ryd( 4d)     0.00134    -0.00014
  51    C  2  dyz    Ryd( 3d)     0.00012    -0.00008
  52    C  2  dx2y2  Ryd( 4d)     0.00053    -0.00006
  53    C  2  dx2y2  Ryd( 3d)     0.00027     0.00003
  54    C  2  dz2    Ryd( 4d)     0.00162     0.00008
  55    C  2  dz2    Ryd( 3d)     0.00024     0.00004
  56    C  2  f(0)   Ryd( 4f)     0.00013    -0.00001
  57    C  2  f(c1)  Ryd( 4f)     0.00013    -0.00001
  58    C  2  f(s1)  Ryd( 4f)     0.00013     0.00003
  59    C  2  f(c2)  Ryd( 4f)     0.00014     0.00000
  60    C  2  f(s2)  Ryd( 4f)     0.00001     0.00000
  61    C  2  f(c3)  Ryd( 4f)     0.00031    -0.00003
  62    C  2  f(s3)  Ryd( 4f)     0.00024     0.00008

  63    O  3  s      Cor( 1s)     2.00000     0.00000
  64    O  3  s      Val( 2s)     1.66977     0.00077
  65    O  3  s      Ryd( 3s)     0.00075    -0.00003
  66    O  3  s      Ryd( 4s)     0.00025     0.00000
  67    O  3  s      Ryd( 5s)     0.00000     0.00000
  68    O  3  px     Val( 2p)     1.55883     0.00047
  69    O  3  px     Ryd( 3p)     0.00142     0.00006
  70    O  3  px     Ryd( 4p)     0.00004     0.00000
  71    O  3  py     Val( 2p)     1.92533     0.05002
  72    O  3  py     Ryd( 3p)     0.00379     0.00177
  73    O  3  py     Ryd( 4p)     0.00003     0.00002
  74    O  3  pz     Val( 2p)     1.60861    -0.01068
  75    O  3  pz     Ryd( 3p)     0.00172    -0.00002
  76    O  3  pz     Ryd( 4p)     0.00023     0.00000
  77    O  3  dxy    Ryd( 3d)     0.00149     0.00042
  78    O  3  dxy    Ryd( 4d)     0.00001     0.00000
  79    O  3  dxz    Ryd( 3d)     0.00190     0.00000
  80    O  3  dxz    Ryd( 4d)     0.00002     0.00000
  81    O  3  dyz    Ryd( 3d)     0.00178    -0.00005
  82    O  3  dyz    Ryd( 4d)     0.00003     0.00001
  83    O  3  dx2y2  Ryd( 3d)     0.00348    -0.00002
  84    O  3  dx2y2  Ryd( 4d)     0.00001     0.00000
  85    O  3  dz2    Ryd( 3d)     0.00551    -0.00002
  86    O  3  dz2    Ryd( 4d)     0.00001     0.00000
  87    O  3  f(0)   Ryd( 4f)     0.00007     0.00000
  88    O  3  f(c1)  Ryd( 4f)     0.00006     0.00000
  89    O  3  f(s1)  Ryd( 4f)     0.00006     0.00000
  90    O  3  f(c2)  Ryd( 4f)     0.00005     0.00000
  91    O  3  f(s2)  Ryd( 4f)     0.00002     0.00000
  92    O  3  f(c3)  Ryd( 4f)     0.00013     0.00000
  93    O  3  f(s3)  Ryd( 4f)     0.00009     0.00000

  94    C  4  s      Cor( 1s)     1.99999     0.00000
  95    C  4  s      Val( 2s)     1.01545    -0.00605
  96    C  4  s      Ryd( 3s)     0.00148     0.00004
  97    C  4  s      Ryd( 4s)     0.00007     0.00000
  98    C  4  s      Ryd( 5s)     0.00000     0.00000
  99    C  4  px     Val( 2p)     1.09679    -0.01810
 100    C  4  px     Ryd( 3p)     0.00390    -0.00001
 101    C  4  px     Ryd( 4p)     0.00035    -0.00002
 102    C  4  py     Val( 2p)     1.00597     0.00669
 103    C  4  py     Ryd( 3p)     0.00949     0.00765
 104    C  4  py     Ryd( 4p)     0.00029    -0.00002
 105    C  4  pz     Val( 2p)     1.15095    -0.00086
 106    C  4  pz     Ryd( 3p)     0.00611    -0.00004
 107    C  4  pz     Ryd( 4p)     0.00020     0.00000
 108    C  4  dxy    Ryd( 3d)     0.00061     0.00022
 109    C  4  dxy    Ryd( 4d)     0.00047     0.00013
 110    C  4  dxz    Ryd( 3d)     0.00139    -0.00003
 111    C  4  dxz    Ryd( 4d)     0.00022     0.00000
 112    C  4  dyz    Ryd( 3d)     0.00067     0.00020
 113    C  4  dyz    Ryd( 4d)     0.00028     0.00000
 114    C  4  dx2y2  Ryd( 3d)     0.00107    -0.00002
 115    C  4  dx2y2  Ryd( 4d)     0.00035    -0.00001
 116    C  4  dz2    Ryd( 3d)     0.00107     0.00000
 117    C  4  dz2    Ryd( 4d)     0.00027     0.00000
 118    C  4  f(0)   Ryd( 4f)     0.00035    -0.00001
 119    C  4  f(c1)  Ryd( 4f)     0.00008     0.00000
 120    C  4  f(s1)  Ryd( 4f)     0.00005     0.00003
 121    C  4  f(c2)  Ryd( 4f)     0.00004     0.00000
 122    C  4  f(s2)  Ryd( 4f)     0.00004     0.00000
 123    C  4  f(c3)  Ryd( 4f)     0.00030    -0.00001
 124    C  4  f(s3)  Ryd( 4f)     0.00005     0.00004

 125    C  5  s      Cor( 1s)     1.99999     0.00000
 126    C  5  s      Val( 2s)     1.05948     0.01992
 127    C  5  s      Ryd( 3s)     0.00099     0.00011
 128    C  5  s      Ryd( 4s)     0.00007     0.00000
 129    C  5  s      Ryd( 5s)     0.00000     0.00000
 130    C  5  px     Val( 2p)     1.01304    -0.00071
 131    C  5  px     Ryd( 3p)     0.00523     0.00366
 132    C  5  px     Ryd( 4p)     0.00005     0.00000
 133    C  5  py     Val( 2p)     1.13435     0.01034
 134    C  5  py     Ryd( 3p)     0.00251     0.00043
 135    C  5  py     Ryd( 4p)     0.00020     0.00001
 136    C  5  pz     Val( 2p)     1.18034     0.01139
 137    C  5  pz     Ryd( 3p)     0.00215     0.00070
 138    C  5  pz     Ryd( 4p)     0.00007     0.00001
 139    C  5  dxy    Ryd( 3d)     0.00048     0.00002
 140    C  5  dxy    Ryd( 4d)     0.00038     0.00000
 141    C  5  dxz    Ryd( 3d)     0.00030     0.00006
 142    C  5  dxz    Ryd( 4d)     0.00029     0.00002
 143    C  5  dyz    Ryd( 3d)     0.00093     0.00008
 144    C  5  dyz    Ryd( 4d)     0.00014     0.00001
 145    C  5  dx2y2  Ryd( 3d)     0.00118     0.00015
 146    C  5  dx2y2  Ryd( 4d)     0.00014     0.00001
 147    C  5  dz2    Ryd( 3d)     0.00146     0.00001
 148    C  5  dz2    Ryd( 4d)     0.00009     0.00000
 149    C  5  f(0)   Ryd( 4f)     0.00036     0.00001
 150    C  5  f(c1)  Ryd( 4f)     0.00006     0.00001
 151    C  5  f(s1)  Ryd( 4f)     0.00003     0.00000
 152    C  5  f(c2)  Ryd( 4f)     0.00005     0.00001
 153    C  5  f(s2)  Ryd( 4f)     0.00004     0.00000
 154    C  5  f(c3)  Ryd( 4f)     0.00040     0.00007
 155    C  5  f(s3)  Ryd( 4f)     0.00002     0.00000

 156    C  6  s      Cor( 1s)     1.99999     0.00000
 157    C  6  s      Val( 2s)     1.04871     0.00513
 158    C  6  s      Ryd( 3s)     0.00084     0.00011
 159    C  6  s      Ryd( 4s)     0.00006     0.00001
 160    C  6  s      Ryd( 5s)     0.00001     0.00000
 161    C  6  px     Val( 2p)     1.07876     0.00588
 162    C  6  px     Ryd( 3p)     0.00254     0.00138
 163    C  6  px     Ryd( 4p)     0.00013     0.00002
 164    C  6  py     Val( 2p)     1.09933     0.00053
 165    C  6  py     Ryd( 3p)     0.00190     0.00012
 166    C  6  py     Ryd( 4p)     0.00013     0.00000
 167    C  6  pz     Val( 2p)     1.16372     0.00231
 168    C  6  pz     Ryd( 3p)     0.00131     0.00027
 169    C  6  pz     Ryd( 4p)     0.00004     0.00000
 170    C  6  dxy    Ryd( 3d)     0.00070     0.00002
 171    C  6  dxy    Ryd( 4d)     0.00024     0.00000
 172    C  6  dxz    Ryd( 3d)     0.00051     0.00008
 173    C  6  dxz    Ryd( 4d)     0.00018     0.00001
 174    C  6  dyz    Ryd( 3d)     0.00063     0.00000
 175    C  6  dyz    Ryd( 4d)     0.00014     0.00000
 176    C  6  dx2y2  Ryd( 3d)     0.00078     0.00003
 177    C  6  dx2y2  Ryd( 4d)     0.00016     0.00000
 178    C  6  dz2    Ryd( 3d)     0.00143     0.00006
 179    C  6  dz2    Ryd( 4d)     0.00010     0.00002
 180    C  6  f(0)   Ryd( 4f)     0.00035     0.00000
 181    C  6  f(c1)  Ryd( 4f)     0.00007     0.00002
 182    C  6  f(s1)  Ryd( 4f)     0.00002     0.00000
 183    C  6  f(c2)  Ryd( 4f)     0.00004     0.00000
 184    C  6  f(s2)  Ryd( 4f)     0.00003     0.00000
 185    C  6  f(c3)  Ryd( 4f)     0.00036     0.00003
 186    C  6  f(s3)  Ryd( 4f)     0.00002     0.00000

 187    C  7  s      Cor( 1s)     1.99999     0.00000
 188    C  7  s      Val( 2s)     1.04484    -0.00010
 189    C  7  s      Ryd( 3s)     0.00078     0.00000
 190    C  7  s      Ryd( 4s)     0.00002     0.00000
 191    C  7  s      Ryd( 5s)     0.00000     0.00000
 192    C  7  px     Val( 2p)     1.14425     0.00020
 193    C  7  px     Ryd( 3p)     0.00249    -0.00003
 194    C  7  px     Ryd( 4p)     0.00020     0.00000
 195    C  7  py     Val( 2p)     1.03246     0.00078
 196    C  7  py     Ryd( 3p)     0.00287     0.00209
 197    C  7  py     Ryd( 4p)     0.00014     0.00005
 198    C  7  pz     Val( 2p)     1.15942     0.00000
 199    C  7  pz     Ryd( 3p)     0.00099     0.00001
 200    C  7  pz     Ryd( 4p)     0.00004     0.00000
 201    C  7  dxy    Ryd( 3d)     0.00063     0.00000
 202    C  7  dxy    Ryd( 4d)     0.00014     0.00000
 203    C  7  dxz    Ryd( 3d)     0.00060     0.00000
 204    C  7  dxz    Ryd( 4d)     0.00015     0.00000
 205    C  7  dyz    Ryd( 3d)     0.00050     0.00003
 206    C  7  dyz    Ryd( 4d)     0.00014     0.00000
 207    C  7  dx2y2  Ryd( 3d)     0.00087    -0.00001
 208    C  7  dx2y2  Ryd( 4d)     0.00024     0.00000
 209    C  7  dz2    Ryd( 3d)     0.00133     0.00000
[...]
   33. BD ( 1) C  8- H 19       0.99033    -0.38772  51(v),57(v)
   34. BD ( 1) C  9- H 20       0.98998    -0.36248  50(v),41(v)
   35. BD ( 1) C  9- H 21       0.98922    -0.36299  55(v),43(v),136(v)
 ------ non-Lewis ----------------------------------
   36. BD*( 1) O  1- C  2       0.00888     0.98457
   37. BD*( 2) O  1- C  2       0.06589     0.36767
   38. BD*( 1) C  2- O  3       0.04993     0.67929
   39. BD*( 1) C  2- C  4       0.03692     0.66429
   40. BD*( 1) O  3- H 10       0.00638     0.66572
   41. BD*( 1) C  4- C  5       0.00932     0.57656
   42. BD*( 1) C  4- C  9       0.00932     0.57656
   43. BD*( 1) C  4- H 11       0.00968     0.60723
   44. BD*( 1) C  5- C  6       0.00730     0.56563
   45. BD*( 1) C  5- H 12       0.00633     0.60234
   46. BD*( 1) C  5- H 13       0.00883     0.59181
   47. BD*( 1) C  6- C  7       0.00790     0.54329
   48. BD*( 1) C  6- H 14       0.00693     0.57228
   49. BD*( 1) C  6- H 15       0.00968     0.56167
   50. BD*( 1) C  7- C  8       0.00790     0.54329
   51. BD*( 1) C  7- H 16       0.00944     0.55425
   52. BD*( 1) C  7- H 17       0.00666     0.56385
   53. BD*( 1) C  8- C  9       0.00730     0.56564
   54. BD*( 1) C  8- H 18       0.00693     0.57228
   55. BD*( 1) C  8- H 19       0.00968     0.56167
   56. BD*( 1) C  9- H 20       0.00633     0.60235
   57. BD*( 1) C  9- H 21       0.00883     0.59181
   58. RY ( 1) O  1             0.00123     1.12816
   59. RY ( 2) O  1             0.00025     1.14479
   60. RY ( 3) O  1             0.00009     1.94652
   61. RY ( 4) O  1             0.00008     2.38465
   62. RY ( 5) O  1             0.00003     2.36260
   63. RY ( 6) O  1             0.00002     1.99458
   64. RY ( 7) O  1             0.00001     2.77122
   65. RY ( 8) O  1             0.00000     4.09085
   66. RY ( 9) O  1             0.00000     5.30281
   67. RY (10) O  1             0.00000     3.15821
   68. RY (11) O  1             0.00000     6.10029
   69. RY (12) O  1             0.00000    12.32365
   70. RY (13) O  1             0.00000    15.09073
   71. RY (14) O  1             0.00000     2.62618
   72. RY (15) O  1             0.00000     6.65470
   73. RY (16) O  1             0.00000     3.28306
   74. RY (17) O  1             0.00000     9.64285
   75. RY (18) O  1             0.00000     3.18084
   76. RY (19) O  1             0.00000     7.50729
   77. RY (20) O  1             0.00000    17.64497
   78. RY (21) O  1             0.00000     5.86683
   79. RY (22) O  1             0.00000     5.96275
   80. RY (23) O  1             0.00000    10.10983
   81. RY (24) O  1             0.00000     5.75998
   82. RY (25) O  1             0.00000     5.88391
   83. RY (26) O  1             0.00000     5.71843
   84. RY ( 1) C  2             0.00886     1.49483
   85. RY ( 2) C  2             0.00455     1.77089
   86. RY ( 3) C  2             0.00156     1.58565
   87. RY ( 4) C  2             0.00120     2.41343
   88. RY ( 5) C  2             0.00059     2.21102
   89. RY ( 6) C  2             0.00033     3.79318
   90. RY ( 7) C  2             0.00012     2.70812
   91. RY ( 8) C  2             0.00005     2.54756
   92. RY ( 9) C  2             0.00003     2.83721
   93. RY (10) C  2             0.00002     2.77803
   94. RY (11) C  2             0.00001     2.64923
   95. RY (12) C  2             0.00001     2.34921
   96. RY (13) C  2             0.00001     1.45990
   97. RY (14) C  2             0.00000     2.05152
   98. RY (15) C  2             0.00000     7.18695
   99. RY (16) C  2             0.00000     2.83349
  100. RY (17) C  2             0.00000     4.35090
  101. RY (18) C  2             0.00000     2.27096
  102. RY (19) C  2             0.00000     4.78790
  103. RY (20) C  2             0.00000     3.63043
  104. RY (21) C  2             0.00000    14.75120
  105. RY (22) C  2             0.00000     3.56563
  106. RY (23) C  2             0.00000     4.70099
  107. RY (24) C  2             0.00000     3.20796
  108. RY (25) C  2             0.00000     3.55311
  109. RY (26) C  2             0.00000     3.34594
  110. RY ( 1) O  3             0.00065     0.92925
  111. RY ( 2) O  3             0.00062     1.80364
  112. RY ( 3) O  3             0.00054     2.05304
  113. RY ( 4) O  3             0.00007     1.80994
  114. RY ( 5) O  3             0.00005     1.89250
  115. RY ( 6) O  3             0.00003     4.32528
  116. RY ( 7) O  3             0.00002     2.60043
  117. RY ( 8) O  3             0.00000     2.96295
  118. RY ( 9) O  3             0.00000     2.27153
  119. RY (10) O  3             0.00000     3.96549
  120. RY (11) O  3             0.00000     3.64574
  121. RY (12) O  3             0.00000     3.37318
  122. RY (13) O  3             0.00000    31.42022
  123. RY (14) O  3             0.00000     6.11816
  124. RY (15) O  3             0.00000     5.28042
  125. RY (16) O  3             0.00000     6.83871
  126. RY (17) O  3             0.00000     4.29731
  127. RY (18) O  3             0.00000     7.99171
  128. RY (19) O  3             0.00000     6.74895
  129. RY (20) O  3             0.00000     6.34880
  130. RY (21) O  3             0.00000     4.95877
  131. RY (22) O  3             0.00000     5.75004
  132. RY (23) O  3             0.00000     7.18967
  133. RY (24) O  3             0.00000     5.94854
  134. RY (25) O  3             0.00000    11.38241
  135. RY (26) O  3             0.00000     5.71006
  136. RY ( 1) C  4             0.00320     1.17971
  137. RY ( 2) C  4             0.00186     1.18909
  138. RY ( 3) C  4             0.00071     2.04210
  139. RY ( 4) C  4             0.00066     1.18509
  140. RY ( 5) C  4             0.00027     2.89467
  141. RY ( 6) C  4             0.00023     2.63758
  142. RY ( 7) C  4             0.00015     2.65060
  143. RY ( 8) C  4             0.00013     3.12622
  144. RY ( 9) C  4             0.00009     2.34639
  145. RY (10) C  4             0.00007     1.99060
  146. RY (11) C  4             0.00005     3.90595
  147. RY (12) C  4             0.00003     3.09625
  148. RY (13) C  4             0.00001     3.04945
  149. RY (14) C  4             0.00001     5.19301
  150. RY (15) C  4             0.00001     3.90803
  151. RY (16) C  4             0.00001     2.24338
  152. RY (17) C  4             0.00000     3.97189
  153. RY (18) C  4             0.00000     2.81356
  154. RY (19) C  4             0.00000     3.93547
  155. RY (20) C  4             0.00000    12.70090
  156. RY (21) C  4             0.00000     6.56787
  157. RY (22) C  4             0.00000     2.89376
  158. RY (23) C  4             0.00000     3.68070
  159. RY (24) C  4             0.00000     3.54718
  160. RY (25) C  4             0.00000     3.26141
  161. RY (26) C  4             0.00000     4.59207
  162. RY ( 1) C  5             0.00148     1.38456
  163. RY ( 2) C  5             0.00070     1.74250
  164. RY ( 3) C  5             0.00039     1.45681
  165. RY ( 4) C  5             0.00014     2.21896
  166. RY ( 5) C  5             0.00012     2.50473
  167. RY ( 6) C  5             0.00007     2.53854
  168. RY ( 7) C  5             0.00006     2.17577
  169. RY ( 8) C  5             0.00004     3.56633
  170. RY ( 9) C  5             0.00003     2.24240
  171. RY (10) C  5             0.00001     2.68824
  172. RY (11) C  5             0.00001     2.56534
  173. RY (12) C  5             0.00001     2.48254
  174. RY (13) C  5             0.00001     2.55892
  175. RY (14) C  5             0.00001     2.45992
  176. RY (15) C  5             0.00000     3.12076
  177. RY (16) C  5             0.00000     7.13130
  178. RY (17) C  5             0.00000    11.01912
  179. RY (18) C  5             0.00000     2.80545
  180. RY (19) C  5             0.00000     3.95861
  181. RY (20) C  5             0.00000     4.43386
  182. RY (21) C  5             0.00000     2.76540
  183. RY (22) C  5             0.00000     3.30020
  184. RY (23) C  5             0.00000     3.00112
  185. RY (24) C  5             0.00000     5.25186
  186. RY (25) C  5             0.00000     5.52172
  187. RY (26) C  5             0.00000     3.52290
  188. RY ( 1) C  6             0.00127     1.35581
  189. RY ( 2) C  6             0.00054     1.77470
  190. RY ( 3) C  6             0.00024     1.76264
  191. RY ( 4) C  6             0.00013     1.48250
  192. RY ( 5) C  6             0.00008     3.97073
  193. RY ( 6) C  6             0.00008     2.84425
  194. RY ( 7) C  6             0.00005     3.25906
  195. RY ( 8) C  6             0.00003     2.25019
  196. RY ( 9) C  6             0.00002     1.69256
  197. RY (10) C  6             0.00001     2.23528
  198. RY (11) C  6             0.00001     2.13977
  199. RY (12) C  6             0.00001     2.28589
  200. RY (13) C  6             0.00001     2.07429
  201. RY (14) C  6             0.00000     2.16702
  202. RY (15) C  6             0.00000     2.77400
  203. RY (16) C  6             0.00000    11.96255
  204. RY (17) C  6             0.00000     3.01306
  205. RY (18) C  6             0.00000     6.13368
  206. RY (19) C  6             0.00000     3.41384
  207. RY (20) C  6             0.00000     3.89577
  208. RY (21) C  6             0.00000     6.17712
  209. RY (22) C  6             0.00000     4.17119
  210. RY (23) C  6             0.00000     3.18125
  211. RY (24) C  6             0.00000     3.50843
  212. RY (25) C  6             0.00000     3.14553
  213. RY (26) C  6             0.00000     3.99661
  214. RY ( 1) C  7             0.00145     1.31888
  215. RY ( 2) C  7             0.00051     1.72803
  216. RY ( 3) C  7             0.00024     1.79030
  217. RY ( 4) C  7             0.00013     1.47022
  218. RY ( 5) C  7             0.00008     2.62974
  219. RY ( 6) C  7             0.00007     3.58635
  220. RY ( 7) C  7             0.00004     3.83055
  221. RY ( 8) C  7             0.00003     2.14233
  222. RY ( 9) C  7             0.00002     1.88778
  223. RY (10) C  7             0.00001     2.19409
  224. RY (11) C  7             0.00001     1.95274
  225. RY (12) C  7             0.00001     2.04312
  226. RY (13) C  7             0.00000     1.96121
  227. RY (14) C  7             0.00000     2.70768
  228. RY (15) C  7             0.00000     2.88379
  229. RY (16) C  7             0.00000     7.84852
  230. RY (17) C  7             0.00000     3.20882
  231. RY (18) C  7             0.00000     7.85552
  232. RY (19) C  7             0.00000     4.50796
  233. RY (20) C  7             0.00000     6.53090
  234. RY (21) C  7             0.00000     3.38560
  235. RY (22) C  7             0.00000     3.59335
  236. RY (23) C  7             0.00000     6.12978
  237. RY (24) C  7             0.00000     3.29958
  238. RY (25) C  7             0.00000     3.15831
  239. RY (26) C  7             0.00000     3.09426
  240. RY ( 1) C  8             0.00127     1.35575
  241. RY ( 2) C  8             0.00054     1.77461
  242. RY ( 3) C  8             0.00024     1.76273
  243. RY ( 4) C  8             0.00013     1.48353
  244. RY ( 5) C  8             0.00008     3.96247
  245. RY ( 6) C  8             0.00008     2.84525
  246. RY ( 7) C  8             0.00005     3.25941
  247. RY ( 8) C  8             0.00003     2.25032
  248. RY ( 9) C  8             0.00002     1.69388
  249. RY (10) C  8             0.00001     2.23381
  250. RY (11) C  8             0.00001     2.14018
  251. RY (12) C  8             0.00001     2.28802
  252. RY (13) C  8             0.00001     2.07594
  253. RY (14) C  8             0.00000     2.16622
  254. RY (15) C  8             0.00000     2.77279
  255. RY (16) C  8             0.00000    11.96538
  256. RY (17) C  8             0.00000     3.01346
  257. RY (18) C  8             0.00000     6.12775
  258. RY (19) C  8             0.00000     3.41464
  259. RY (20) C  8             0.00000     3.88658
  260. RY (21) C  8             0.00000     6.20277
  261. RY (22) C  8             0.00000     4.17549
  262. RY (23) C  8             0.00000     3.18089
  263. RY (24) C  8             0.00000     3.50557
  264. RY (25) C  8             0.00000     3.14595
  265. RY (26) C  8             0.00000     3.98863
  266. RY ( 1) C  9             0.00148     1.38452
  267. RY ( 2) C  9             0.00070     1.74238
  268. RY ( 3) C  9             0.00039     1.45680
  269. RY ( 4) C  9             0.00014     2.21911
  270. RY ( 5) C  9             0.00012     2.50619
  271. RY ( 6) C  9             0.00007     2.54228
  272. RY ( 7) C  9             0.00006     2.17349
  273. RY ( 8) C  9             0.00004     3.56710
  274. RY ( 9) C  9             0.00003     2.24293
  275. RY (10) C  9             0.00001     2.69274
  276. RY (11) C  9             0.00001     2.56250
  277. RY (12) C  9             0.00001     2.48359
  278. RY (13) C  9             0.00001     2.55959
  279. RY (14) C  9             0.00001     2.45919
  280. RY (15) C  9             0.00000     3.11678
  281. RY (16) C  9             0.00000     7.23919
  282. RY (17) C  9             0.00000    10.91538
  283. RY (18) C  9             0.00000     2.80667
  284. RY (19) C  9             0.00000     3.96156
  285. RY (20) C  9             0.00000     5.54184
  286. RY (21) C  9             0.00000     2.76535
  287. RY (22) C  9             0.00000     3.30048
  288. RY (23) C  9             0.00000     3.00134
  289. RY (24) C  9             0.00000     5.22994
  290. RY (25) C  9             0.00000     4.42290
  291. RY (26) C  9             0.00000     3.52070
  292. RY ( 1) H 10             0.00278     0.61759
  293. RY ( 2) H 10             0.00036     2.17315
  294. RY ( 3) H 10             0.00025     2.19140
  295. RY ( 4) H 10             0.00006     2.43105
  296. RY ( 5) H 10             0.00000     3.60685
  297. RY ( 1) H 11             0.00075     0.83439
  298. RY ( 2) H 11             0.00005     2.58651
  299. RY ( 3) H 11             0.00003     2.55354
  300. RY ( 4) H 11             0.00002     2.57245
  301. RY ( 5) H 11             0.00001     2.89086
  302. RY ( 1) H 12             0.00049     0.75587
  303. RY ( 2) H 12             0.00004     2.56281
  304. RY ( 3) H 12             0.00003     2.56350
  305. RY ( 4) H 12             0.00001     2.40574
  306. RY ( 5) H 12             0.00000     2.64364
  307. RY ( 1) H 13             0.00065     0.94356
  308. RY ( 2) H 13             0.00004     2.55256
  309. RY ( 3) H 13             0.00002     2.51926
  310. RY ( 4) H 13             0.00002     2.32877
  311. RY ( 5) H 13             0.00001     2.66385
  312. RY ( 1) H 14             0.00052     0.69931
  313. RY ( 2) H 14             0.00005     2.53205
  314. RY ( 3) H 14             0.00003     2.65302
  315. RY ( 4) H 14             0.00001     2.37933
  316. RY ( 5) H 14             0.00000     2.59306
  317. RY ( 1) H 15             0.00070     0.88351
  318. RY ( 2) H 15             0.00004     2.50026
  319. RY ( 3) H 15             0.00002     2.56863
  320. RY ( 4) H 15             0.00002     2.36920
  321. RY ( 5) H 15             0.00000     2.51242
  322. RY ( 1) H 16             0.00072     0.86574
  323. RY ( 2) H 16             0.00004     2.48880
  324. RY ( 3) H 16             0.00002     2.56143
  325. RY ( 4) H 16             0.00001     2.42780
  326. RY ( 5) H 16             0.00000     2.45552
  327. RY ( 1) H 17             0.00043     0.78617
  328. RY ( 2) H 17             0.00004     2.51195
  329. RY ( 3) H 17             0.00003     2.63881
  330. RY ( 4) H 17             0.00001     2.39749
  331. RY ( 5) H 17             0.00000     2.46905
  332. RY ( 1) H 18             0.00052     0.69965
  333. RY ( 2) H 18             0.00005     2.53206
  334. RY ( 3) H 18             0.00003     2.65303
  335. RY ( 4) H 18             0.00001     2.37935
  336. RY ( 5) H 18             0.00000     2.59273
  337. RY ( 1) H 19             0.00070     0.88365
  338. RY ( 2) H 19             0.00004     2.50027
  339. RY ( 3) H 19             0.00002     2.56869
  340. RY ( 4) H 19             0.00002     2.36929
  341. RY ( 5) H 19             0.00000     2.51215
  342. RY ( 1) H 20             0.00049     0.75541
  343. RY ( 2) H 20             0.00004     2.56282
  344. RY ( 3) H 20             0.00003     2.56349
  345. RY ( 4) H 20             0.00001     2.40577
  346. RY ( 5) H 20             0.00000     2.64404
  347. RY ( 1) H 21             0.00065     0.94354
  348. RY ( 2) H 21             0.00004     2.55256
  349. RY ( 3) H 21             0.00002     2.51874
  350. RY ( 4) H 21             0.00002     2.32923
  351. RY ( 5) H 21             0.00001     2.66393
          -------------------------------
                 Total Lewis   34.64035  ( 98.9724%)
           Valence non-Lewis    0.30636  (  0.8753%)
           Rydberg non-Lewis    0.05329  (  0.1523%)
          -------------------------------
               Total unit  1   35.00000  (100.0000%)
              Charge unit  1    0.00000

 $CHOOSE
  ALPHA
   LONE 1 3 2 1 3 2 END
   BOND S 1 2 S 2 3 S 2 4 S 3 10 S 4 5 S 4 9 S 4 11 S 5 6 S 5 12 S 5 13 S 6 7
        S 6 14 S 6 15 S 7 8 S 7 16 S 7 17 S 8 9 S 8 18 S 8 19 S 9 20 S 9 21 END
  END
  BETA
   LONE 1 2 3 2 END
   BOND D 1 2 S 2 3 S 2 4 S 3 10 S 4 5 S 4 9 S 4 11 S 5 6 S 5 12 S 5 13 S 6 7
        S 6 14 S 6 15 S 7 8 S 7 16 S 7 17 S 8 9 S 8 18 S 8 19 S 9 20 S 9 21 END
  END
 $END

 NBO analysis completed in 3.67 CPU seconds (4 wall seconds)
 Maximum scratch memory used by NBO was 1509413 words (11.52 MB)
 Maximum scratch memory used by G16NBO was 256709 words (1.96 MB)

 Opening RunExU unformatted file "/tmp/Gau-1605849.EUF"
 Read unf file /tmp/Gau-1605849.EUF:
 Label Gaussian matrix elements                                         IVers= 2 NLab= 2 Version=AS64L-G16RevC.01
 Title Ac7_rdkit_conf_3_SP_charge_n                                    
 NAtoms=    21 NBasis=   351 NBsUse=   351 ICharg=    -1 Multip=     2 NE=    71 Len12L=8 Len4L=8 IOpCl= 1 ICGU=112
 GAUSSIAN SCALARS                    NI= 1 NR= 1 NTot=       1 LenBuf=    2 NRI=1 N=    1000
 NPA CHARGES                         NI= 0 NR= 1 NTot=      21 LenBuf= 2048 NRI=1 N=      21
 Recovered energy= -424.342512387     dipole=     -2.669755076989     -0.000124870353      0.738445641896
 Unable to Open any file for archive entry.
 1\1\GINC-NODE16\SP\UM062X\def2TZVP\C7H12O2(1-,2)\SVSS\29-Jan-2024\0\\#
  pop=(nbo6, hirshfeld) m062x/def2tzvp\\Ac7_rdkit_conf_3_SP_charge_n\\-
 1,2\O,0,-2.715225,-0.00006,-0.950203\C,0,-1.834752,-0.000003,-0.135369
 \O,0,-2.09007,0.000068,1.189998\C,0,-0.359209,-0.000007,-0.433988\C,0,
 0.318953,1.260888,0.118166\C,0,1.808129,1.258915,-0.217387\C,0,2.49184
 9,0.000002,0.310861\C,0,1.808122,-1.258931,-0.217327\C,0,0.318946,-1.2
 60881,0.118225\H,0,-3.052518,0.00006,1.291799\H,0,-0.282084,-0.000034,
 -1.523767\H,0,-0.164403,2.151779,-0.288548\H,0,0.18496,1.285033,1.2032
 45\H,0,2.281808,2.151338,0.195546\H,0,1.932505,1.308187,-1.304255\H,0,
 2.446541,0.000028,1.405084\H,0,3.548489,-0.000007,0.037143\H,0,2.28179
 6,-2.151337,0.195647\H,0,1.932498,-1.308255,-1.304193\H,0,-0.164415,-2
 .151787,-0.288449\H,0,0.184953,-1.284974,1.203305\\Version=AS64L-G16Re
 vC.01\State=2-A\HF=-424.3425124\S2=0.754258\S2-1=0.\S2A=0.750014\RMSD=
 1.104e-09\Dipole=2.6697551,0.0001251,0.7384456\Quadrupole=-10.9356703,
 5.8738534,5.0618169,-0.001334,-6.2718159,-0.0003871\PG=C01 [X(C7H12O2)
 ]\\@
 The archive entry for this job was punched.


      LET US REMEMBER, PLEASE, THAT THE SEARCH FOR THE CONSTITUTION
      OF THE WORLD IS ONE OF THE GREATEST AND NOBLEST PROBLEMS PRESENTED 
      BY NATURE.

                                                  -- GALILEO
 Job cpu time:       0 days  0 hours 47 minutes 39.8 seconds.
 Elapsed time:       0 days  0 hours  6 minutes 11.4 seconds.
 File lengths (MBytes):  RWF=    119 Int=      0 D2E=      0 Chk=     10 Scr=      1
 Normal termination of Gaussian 16 at Mon Jan 29 15:36:49 2024.
