 Entering Gaussian System, Link 0=/usr/local/Gaussian/G16C/g16/g16
 Input=arbr39_wb97xd.com
 Output=arbr39_wb97xd.log
 Initial command:
 /usr/local/Gaussian/G16C/g16/l1.exe "/home/rpaton/opt/Gau-692850.inp" -scrdir="/home/rpaton/opt/"
 Entering Link 1 = /usr/local/Gaussian/G16C/g16/l1.exe PID=    692851.
  
 Copyright (c) 1988-2019, Gaussian, Inc.  All Rights Reserved.
  
 This is part of the Gaussian(R) 16 program.  It is based on
 the Gaussian(R) 09 system (copyright 2009, Gaussian, Inc.),
 the Gaussian(R) 03 system (copyright 2003, Gaussian, Inc.),
 the Gaussian(R) 98 system (copyright 1998, Gaussian, Inc.),
 the Gaussian(R) 94 system (copyright 1995, Gaussian, Inc.),
 the Gaussian 92(TM) system (copyright 1992, Gaussian, Inc.),
 the Gaussian 90(TM) system (copyright 1990, Gaussian, Inc.),
 the Gaussian 88(TM) system (copyright 1988, Gaussian, Inc.),
 the Gaussian 86(TM) system (copyright 1986, Carnegie Mellon
 University), and the Gaussian 82(TM) system (copyright 1983,
 Carnegie Mellon University). Gaussian is a federally registered
 trademark of Gaussian, Inc.
  
 This software contains proprietary and confidential information,
 including trade secrets, belonging to Gaussian, Inc.
  
 This software is provided under written license and may be
 used, copied, transmitted, or stored only in accord with that
 written license.
  
 The following legend is applicable only to US Government
 contracts under FAR:
  
                    RESTRICTED RIGHTS LEGEND
  
 Use, reproduction and disclosure by the US Government is
 subject to restrictions as set forth in subparagraphs (a)
 and (c) of the Commercial Computer Software - Restricted
 Rights clause in FAR 52.227-19.
  
 Gaussian, Inc.
 340 Quinnipiac St., Bldg. 40, Wallingford CT 06492
  
  
 ---------------------------------------------------------------
 Warning -- This program may not be used in any manner that
 competes with the business of Gaussian, Inc. or will provide
 assistance to any competitor of Gaussian, Inc.  The licensee
 of this program is prohibited from giving any competitor of
 Gaussian, Inc. access to this program.  By using this program,
 the user acknowledges that Gaussian, Inc. is engaged in the
 business of creating and licensing software in the field of
 computational chemistry and represents and warrants to the
 licensee that it is not a competitor of Gaussian, Inc. and that
 it will not use this program in any manner prohibited above.
 ---------------------------------------------------------------
  

 Cite this work as:
 Gaussian 16, Revision C.01,
 M. J. Frisch, G. W. Trucks, H. B. Schlegel, G. E. Scuseria, 
 M. A. Robb, J. R. Cheeseman, G. Scalmani, V. Barone, 
 G. A. Petersson, H. Nakatsuji, X. Li, M. Caricato, A. V. Marenich, 
 J. Bloino, B. G. Janesko, R. Gomperts, B. Mennucci, H. P. Hratchian, 
 J. V. Ortiz, A. F. Izmaylov, J. L. Sonnenberg, D. Williams-Young, 
 F. Ding, F. Lipparini, F. Egidi, J. Goings, B. Peng, A. Petrone, 
 T. Henderson, D. Ranasinghe, V. G. Zakrzewski, J. Gao, N. Rega, 
 G. Zheng, W. Liang, M. Hada, M. Ehara, K. Toyota, R. Fukuda, 
 J. Hasegawa, M. Ishida, T. Nakajima, Y. Honda, O. Kitao, H. Nakai, 
 T. Vreven, K. Throssell, J. A. Montgomery, Jr., J. E. Peralta, 
 F. Ogliaro, M. J. Bearpark, J. J. Heyd, E. N. Brothers, K. N. Kudin, 
 V. N. Staroverov, T. A. Keith, R. Kobayashi, J. Normand, 
 K. Raghavachari, A. P. Rendell, J. C. Burant, S. S. Iyengar, 
 J. Tomasi, M. Cossi, J. M. Millam, M. Klene, C. Adamo, R. Cammi, 
 J. W. Ochterski, R. L. Martin, K. Morokuma, O. Farkas, 
 J. B. Foresman, and D. J. Fox, Gaussian, Inc., Wallingford CT, 2019.
 
 ******************************************
 Gaussian 16:  ES64L-G16RevC.01  3-Jul-2019
                17-Sep-2024 
 ******************************************
 %nprocshared=24
 Will use up to   24 processors via shared memory.
 %mem=96GB
 --------------------------
 # opt freq wb97xd/def2tzvp
 --------------------------
 1/18=20,19=15,26=3,38=1/1,3;
 2/9=110,12=2,17=6,18=5,40=1/2;
 3/5=44,7=101,11=2,25=1,30=1,71=1,74=-58/1,2,3;
 4//1;
 5/5=2,38=5/2;
 6/7=2,8=2,9=2,10=2,28=1/1;
 7//1,2,3,16;
 1/18=20,19=15,26=3/3(2);
 2/9=110/2;
 99//99;
 2/9=110/2;
 3/5=44,7=101,11=2,25=1,30=1,71=1,74=-58/1,2,3;
 4/5=5,16=3,69=1/1;
 5/5=2,38=5/2;
 7//1,2,3,16;
 1/18=20,19=15,26=3/3(-5);
 2/9=110/2;
 6/7=2,8=2,9=2,10=2,19=2,28=1/1;
 99/9=1/99;
 --------------------------
 arbr39_rdkit_conf_1_wb97xd
 --------------------------
 Symbolic Z-matrix:
 Charge =  0 Multiplicity = 1
 O                    -0.3359   -2.5369   -0.4527 
 C                    -0.1563   -1.3406   -0.2872 
 C                     1.1788   -0.7779   -0.0967 
 C                     2.3867   -1.4523   -0.0721 
 C                     3.5343   -0.6897    0.1264 
 Br                    5.2229   -1.5404    0.1724 
 C                     3.4589    0.7034    0.2935 
 C                     2.2218    1.3589    0.2638 
 C                     1.0736    0.6054    0.0664 
 C                    -0.3348    1.1314    0.0051 
 C                    -1.1822   -0.1429   -0.2302 
 C                    -2.2193   -0.0484   -1.3914 
 C                    -3.2629    0.3956   -0.3505 
 C                    -2.4093   -0.3116    0.7177 
 H                     2.4222   -2.5288   -0.2032 
 H                     4.3652    1.2855    0.4477 
 H                     2.1707    2.4365    0.3937 
 H                    -0.4322    1.8432   -0.8209 
 H                    -0.5917    1.6223    0.9493 
 H                    -2.0078    0.6774   -2.1814 
 H                    -2.4528   -1.0122   -1.86 
 H                    -4.2721    0.0003   -0.4907 
 H                    -3.3213    1.4822   -0.2201 
 H                    -2.3561    0.1949    1.6853 
 H                    -2.7004   -1.3551    0.8886 
 

 GradGradGradGradGradGradGradGradGradGradGradGradGradGradGradGradGradGrad
 Berny optimization.
 Initialization pass.
                           ----------------------------
                           !    Initial Parameters    !
                           ! (Angstroms and Degrees)  !
 --------------------------                            --------------------------
 ! Name  Definition              Value          Derivative Info.                !
 --------------------------------------------------------------------------------
 ! R1    R(1,2)                  1.221          estimate D2E/DX2                !
 ! R2    R(2,3)                  1.4613         estimate D2E/DX2                !
 ! R3    R(2,11)                 1.578          estimate D2E/DX2                !
 ! R4    R(3,4)                  1.3836         estimate D2E/DX2                !
 ! R5    R(3,9)                  1.3968         estimate D2E/DX2                !
 ! R6    R(4,5)                  1.3921         estimate D2E/DX2                !
 ! R7    R(4,15)                 1.085          estimate D2E/DX2                !
 ! R8    R(5,6)                  1.8913         estimate D2E/DX2                !
 ! R9    R(5,7)                  1.4051         estimate D2E/DX2                !
 ! R10   R(7,8)                  1.4003         estimate D2E/DX2                !
 ! R11   R(7,16)                 1.0881         estimate D2E/DX2                !
 ! R12   R(8,9)                  1.3875         estimate D2E/DX2                !
 ! R13   R(8,17)                 1.0866         estimate D2E/DX2                !
 ! R14   R(9,10)                 1.5047         estimate D2E/DX2                !
 ! R15   R(10,11)                1.5483         estimate D2E/DX2                !
 ! R16   R(10,18)                1.0947         estimate D2E/DX2                !
 ! R17   R(10,19)                1.0948         estimate D2E/DX2                !
 ! R18   R(11,12)                1.5598         estimate D2E/DX2                !
 ! R19   R(11,14)                1.5597         estimate D2E/DX2                !
 ! R20   R(12,13)                1.5394         estimate D2E/DX2                !
 ! R21   R(12,20)                1.0934         estimate D2E/DX2                !
 ! R22   R(12,21)                1.0968         estimate D2E/DX2                !
 ! R23   R(13,14)                1.5394         estimate D2E/DX2                !
 ! R24   R(13,22)                1.0929         estimate D2E/DX2                !
 ! R25   R(13,23)                1.096          estimate D2E/DX2                !
 ! R26   R(14,24)                1.0934         estimate D2E/DX2                !
 ! R27   R(14,25)                1.0967         estimate D2E/DX2                !
 ! A1    A(1,2,3)              121.9613         estimate D2E/DX2                !
 ! A2    A(1,2,11)             130.7613         estimate D2E/DX2                !
 ! A3    A(3,2,11)             107.2773         estimate D2E/DX2                !
 ! A4    A(2,3,4)              127.7507         estimate D2E/DX2                !
 ! A5    A(2,3,9)              109.132          estimate D2E/DX2                !
 ! A6    A(4,3,9)              123.1173         estimate D2E/DX2                !
 ! A7    A(3,4,5)              117.0773         estimate D2E/DX2                !
 ! A8    A(3,4,15)             120.6633         estimate D2E/DX2                !
 ! A9    A(5,4,15)             122.2594         estimate D2E/DX2                !
 ! A10   A(4,5,6)              119.5426         estimate D2E/DX2                !
 ! A11   A(4,5,7)              121.0538         estimate D2E/DX2                !
 ! A12   A(6,5,7)              119.4036         estimate D2E/DX2                !
 ! A13   A(5,7,8)              120.5959         estimate D2E/DX2                !
 ! A14   A(5,7,16)             120.1686         estimate D2E/DX2                !
 ! A15   A(8,7,16)             119.2355         estimate D2E/DX2                !
 ! A16   A(7,8,9)              118.6775         estimate D2E/DX2                !
 ! A17   A(7,8,17)             120.2138         estimate D2E/DX2                !
 ! A18   A(9,8,17)             121.1087         estimate D2E/DX2                !
 ! A19   A(3,9,8)              119.4782         estimate D2E/DX2                !
 ! A20   A(3,9,10)             114.3258         estimate D2E/DX2                !
 ! A21   A(8,9,10)             126.196          estimate D2E/DX2                !
 ! A22   A(9,10,11)            103.3423         estimate D2E/DX2                !
 ! A23   A(9,10,18)            109.9572         estimate D2E/DX2                !
 ! A24   A(9,10,19)            109.9541         estimate D2E/DX2                !
 ! A25   A(11,10,18)           111.8251         estimate D2E/DX2                !
 ! A26   A(11,10,19)           111.8199         estimate D2E/DX2                !
 ! A27   A(18,10,19)           109.7747         estimate D2E/DX2                !
 ! A28   A(2,11,10)            105.9226         estimate D2E/DX2                !
 ! A29   A(2,11,12)            116.8306         estimate D2E/DX2                !
 ! A30   A(2,11,14)            116.829          estimate D2E/DX2                !
 ! A31   A(10,11,12)           115.2886         estimate D2E/DX2                !
 ! A32   A(10,11,14)           115.2929         estimate D2E/DX2                !
 ! A33   A(12,11,14)            86.3239         estimate D2E/DX2                !
 ! A34   A(11,12,13)            87.9852         estimate D2E/DX2                !
 ! A35   A(11,12,20)           116.71           estimate D2E/DX2                !
 ! A36   A(11,12,21)           113.9773         estimate D2E/DX2                !
 ! A37   A(13,12,20)           115.354          estimate D2E/DX2                !
 ! A38   A(13,12,21)           113.4538         estimate D2E/DX2                !
 ! A39   A(20,12,21)           108.4078         estimate D2E/DX2                !
 ! A40   A(12,13,14)            87.7527         estimate D2E/DX2                !
 ! A41   A(12,13,22)           115.7823         estimate D2E/DX2                !
 ! A42   A(12,13,23)           113.7373         estimate D2E/DX2                !
 ! A43   A(14,13,22)           115.7781         estimate D2E/DX2                !
 ! A44   A(14,13,23)           113.7319         estimate D2E/DX2                !
 ! A45   A(22,13,23)           108.9457         estimate D2E/DX2                !
 ! A46   A(11,14,13)            87.9856         estimate D2E/DX2                !
 ! A47   A(11,14,24)           116.7059         estimate D2E/DX2                !
 ! A48   A(11,14,25)           113.9807         estimate D2E/DX2                !
 ! A49   A(13,14,24)           115.3544         estimate D2E/DX2                !
 ! A50   A(13,14,25)           113.456          estimate D2E/DX2                !
 ! A51   A(24,14,25)           108.4062         estimate D2E/DX2                !
 ! D1    D(1,2,3,4)              0.0014         estimate D2E/DX2                !
 ! D2    D(1,2,3,9)            179.9963         estimate D2E/DX2                !
 ! D3    D(11,2,3,4)          -179.9954         estimate D2E/DX2                !
 ! D4    D(11,2,3,9)            -0.0005         estimate D2E/DX2                !
 ! D5    D(1,2,11,10)         -179.9948         estimate D2E/DX2                !
 ! D6    D(1,2,11,12)          -50.0453         estimate D2E/DX2                !
 ! D7    D(1,2,11,14)           50.0511         estimate D2E/DX2                !
 ! D8    D(3,2,11,10)            0.0016         estimate D2E/DX2                !
 ! D9    D(3,2,11,12)          129.9512         estimate D2E/DX2                !
 ! D10   D(3,2,11,14)         -129.9524         estimate D2E/DX2                !
 ! D11   D(2,3,4,5)            179.9969         estimate D2E/DX2                !
 ! D12   D(2,3,4,15)            -0.0058         estimate D2E/DX2                !
 ! D13   D(9,3,4,5)              0.0027         estimate D2E/DX2                !
 ! D14   D(9,3,4,15)           180.0            estimate D2E/DX2                !
 ! D15   D(2,3,9,8)           -179.997          estimate D2E/DX2                !
 ! D16   D(2,3,9,10)            -0.0008         estimate D2E/DX2                !
 ! D17   D(4,3,9,8)             -0.0019         estimate D2E/DX2                !
 ! D18   D(4,3,9,10)           179.9943         estimate D2E/DX2                !
 ! D19   D(3,4,5,6)            179.9959         estimate D2E/DX2                !
 ! D20   D(3,4,5,7)              0.0018         estimate D2E/DX2                !
 ! D21   D(15,4,5,6)            -0.0013         estimate D2E/DX2                !
 ! D22   D(15,4,5,7)          -179.9955         estimate D2E/DX2                !
 ! D23   D(4,5,7,8)             -0.0071         estimate D2E/DX2                !
 ! D24   D(4,5,7,16)          -179.9972         estimate D2E/DX2                !
 ! D25   D(6,5,7,8)            179.9988         estimate D2E/DX2                !
 ! D26   D(6,5,7,16)             0.0087         estimate D2E/DX2                !
 ! D27   D(5,7,8,9)              0.0078         estimate D2E/DX2                !
 ! D28   D(5,7,8,17)          -179.9995         estimate D2E/DX2                !
 ! D29   D(16,7,8,9)           179.998          estimate D2E/DX2                !
 ! D30   D(16,7,8,17)           -0.0094         estimate D2E/DX2                !
 ! D31   D(7,8,9,3)             -0.0034         estimate D2E/DX2                !
 ! D32   D(7,8,9,10)          -179.9991         estimate D2E/DX2                !
 ! D33   D(17,8,9,3)          -179.996          estimate D2E/DX2                !
 ! D34   D(17,8,9,10)            0.0083         estimate D2E/DX2                !
 ! D35   D(3,9,10,11)            0.0018         estimate D2E/DX2                !
 ! D36   D(3,9,10,18)         -119.5112         estimate D2E/DX2                !
 ! D37   D(3,9,10,19)          119.5072         estimate D2E/DX2                !
 ! D38   D(8,9,10,11)          179.9977         estimate D2E/DX2                !
 ! D39   D(8,9,10,18)           60.4847         estimate D2E/DX2                !
 ! D40   D(8,9,10,19)          -60.4969         estimate D2E/DX2                !
 ! D41   D(9,10,11,2)           -0.002          estimate D2E/DX2                !
 ! D42   D(9,10,11,12)        -130.8378         estimate D2E/DX2                !
 ! D43   D(9,10,11,14)         130.835          estimate D2E/DX2                !
 ! D44   D(18,10,11,2)         118.2177         estimate D2E/DX2                !
 ! D45   D(18,10,11,12)        -12.6182         estimate D2E/DX2                !
 ! D46   D(18,10,11,14)       -110.9454         estimate D2E/DX2                !
 ! D47   D(19,10,11,2)        -118.2154         estimate D2E/DX2                !
 ! D48   D(19,10,11,12)        110.9488         estimate D2E/DX2                !
 ! D49   D(19,10,11,14)         12.6215         estimate D2E/DX2                !
 ! D50   D(2,11,12,13)         141.7079         estimate D2E/DX2                !
 ! D51   D(2,11,12,20)        -100.7787         estimate D2E/DX2                !
 ! D52   D(2,11,12,21)          26.8593         estimate D2E/DX2                !
 ! D53   D(10,11,12,13)        -92.9125         estimate D2E/DX2                !
 ! D54   D(10,11,12,20)         24.601          estimate D2E/DX2                !
 ! D55   D(10,11,12,21)        152.239          estimate D2E/DX2                !
 ! D56   D(14,11,12,13)         23.3925         estimate D2E/DX2                !
 ! D57   D(14,11,12,20)        140.906          estimate D2E/DX2                !
 ! D58   D(14,11,12,21)        -91.4561         estimate D2E/DX2                !
 ! D59   D(2,11,14,13)        -141.7088         estimate D2E/DX2                !
 ! D60   D(2,11,14,24)         100.7779         estimate D2E/DX2                !
 ! D61   D(2,11,14,25)         -26.8571         estimate D2E/DX2                !
 ! D62   D(10,11,14,13)         92.909          estimate D2E/DX2                !
 ! D63   D(10,11,14,24)        -24.6043         estimate D2E/DX2                !
 ! D64   D(10,11,14,25)       -152.2392         estimate D2E/DX2                !
 ! D65   D(12,11,14,13)        -23.392          estimate D2E/DX2                !
 ! D66   D(12,11,14,24)       -140.9052         estimate D2E/DX2                !
 ! D67   D(12,11,14,25)         91.4598         estimate D2E/DX2                !
 ! D68   D(11,12,13,14)        -23.6874         estimate D2E/DX2                !
 ! D69   D(11,12,13,22)       -141.3575         estimate D2E/DX2                !
 ! D70   D(11,12,13,23)         91.3199         estimate D2E/DX2                !
 ! D71   D(20,12,13,14)       -142.4395         estimate D2E/DX2                !
 ! D72   D(20,12,13,22)         99.8904         estimate D2E/DX2                !
 ! D73   D(20,12,13,23)        -27.4322         estimate D2E/DX2                !
 ! D74   D(21,12,13,14)         91.6522         estimate D2E/DX2                !
 ! D75   D(21,12,13,22)        -26.0179         estimate D2E/DX2                !
 ! D76   D(21,12,13,23)       -153.3405         estimate D2E/DX2                !
 ! D77   D(12,13,14,11)         23.6881         estimate D2E/DX2                !
 ! D78   D(12,13,14,24)        142.4359         estimate D2E/DX2                !
 ! D79   D(12,13,14,25)        -91.6558         estimate D2E/DX2                !
 ! D80   D(22,13,14,11)        141.3621         estimate D2E/DX2                !
 ! D81   D(22,13,14,24)        -99.8901         estimate D2E/DX2                !
 ! D82   D(22,13,14,25)         26.0181         estimate D2E/DX2                !
 ! D83   D(23,13,14,11)        -91.3242         estimate D2E/DX2                !
 ! D84   D(23,13,14,24)         27.4236         estimate D2E/DX2                !
 ! D85   D(23,13,14,25)        153.3318         estimate D2E/DX2                !
 --------------------------------------------------------------------------------
 Trust Radius=3.00D-01 FncErr=1.00D-07 GrdErr=1.00D-06 EigMax=2.50D+02 EigMin=1.00D-04
 Number of steps in this run=    150 maximum allowed number of steps=    150.
 GradGradGradGradGradGradGradGradGradGradGradGradGradGradGradGradGradGrad

                          Input orientation:                          
 ---------------------------------------------------------------------
 Center     Atomic      Atomic             Coordinates (Angstroms)
 Number     Number       Type             X           Y           Z
 ---------------------------------------------------------------------
      1          8           0       -0.335900   -2.536900   -0.452700
      2          6           0       -0.156300   -1.340600   -0.287200
      3          6           0        1.178800   -0.777900   -0.096700
      4          6           0        2.386700   -1.452300   -0.072100
      5          6           0        3.534300   -0.689700    0.126400
      6         35           0        5.222900   -1.540400    0.172400
      7          6           0        3.458900    0.703400    0.293500
      8          6           0        2.221800    1.358900    0.263800
      9          6           0        1.073600    0.605400    0.066400
     10          6           0       -0.334800    1.131400    0.005100
     11          6           0       -1.182200   -0.142900   -0.230200
     12          6           0       -2.219300   -0.048400   -1.391400
     13          6           0       -3.262900    0.395600   -0.350500
     14          6           0       -2.409300   -0.311600    0.717700
     15          1           0        2.422200   -2.528800   -0.203200
     16          1           0        4.365200    1.285500    0.447700
     17          1           0        2.170700    2.436500    0.393700
     18          1           0       -0.432200    1.843200   -0.820900
     19          1           0       -0.591700    1.622300    0.949300
     20          1           0       -2.007800    0.677400   -2.181400
     21          1           0       -2.452800   -1.012200   -1.860000
     22          1           0       -4.272100    0.000300   -0.490700
     23          1           0       -3.321300    1.482200   -0.220100
     24          1           0       -2.356100    0.194900    1.685300
     25          1           0       -2.700400   -1.355100    0.888600
 ---------------------------------------------------------------------
                    Distance matrix (angstroms):
                    1          2          3          4          5
     1  O    0.000000
     2  C    1.220975   0.000000
     3  C    2.348432   1.461305   0.000000
     4  C    2.955294   2.554524   1.383634   0.000000
     5  C    4.327349   3.770314   2.367685   1.392102   0.000000
     6  Br   5.681903   5.402494   4.124144   2.848082   1.891342
     7  C    5.045480   4.193426   2.746882   2.435225   1.405110
     8  C    4.715131   3.639541   2.404937   2.835995   2.436862
     9  C    3.482844   2.329078   1.396849   2.444901   2.781354
    10  C    3.696756   2.495613   2.438601   3.753402   4.277973
    11  C    2.548915   1.578038   2.448544   3.804809   4.761463
    12  C    3.258985   2.673015   3.708841   4.992667   5.984889
    13  C    4.144554   3.559405   4.601110   5.950649   6.899800
    14  C    3.258954   2.672952   3.708793   4.992654   5.984896
    15  H    2.769374   2.840341   2.150125   1.085034   2.174326
    16  H    6.125504   5.280193   3.834988   3.417631   2.166805
    17  H    5.633307   4.488322   3.399518   3.922549   3.421108
    18  H    4.396603   3.239991   3.160689   4.400820   4.800633
    19  H    4.396588   3.239951   3.160656   4.400828   4.800665
    20  H    4.014396   3.329920   4.076554   5.319436   6.157091
    21  H    2.964198   2.802759   4.043840   5.177937   6.316261
    22  H    4.683215   4.333501   5.520248   6.828242   7.861094
    23  H    5.011974   4.241453   5.037279   6.419849   7.199754
    24  H    4.014347   3.329810   4.076442   5.319387   6.157069
    25  H    2.964219   2.802706   4.043781   5.177932   6.316264
                    6          7          8          9         10
     6  Br   0.000000
     7  C    2.856746   0.000000
     8  C    4.173835   1.400350   0.000000
     9  C    4.672514   2.398090   1.387477   0.000000
    10  C    6.168836   3.828644   2.579706   1.504667   0.000000
    11  C    6.568135   4.746609   3.753219   2.395111   1.548320
    12  C    7.749702   5.970431   4.944042   3.660031   2.625544
    13  C    8.719537   6.759591   5.602432   4.361543   3.040004
    14  C    7.749695   5.970422   4.944055   3.660010   2.625566
    15  H    2.993648   3.430536   3.920773   3.422662   4.587102
    16  H    2.965999   1.088117   2.152526   3.382685   4.723308
    17  H    5.018031   2.161743   1.086603   2.159556   2.851636
    18  H    6.664499   4.204960   2.907720   2.141701   1.094725
    19  H    6.664519   4.204975   2.907761   2.141687   1.094758
    20  H    7.920987   6.000885   4.932845   3.814815   2.790310
    21  H    7.957764   6.521429   5.655486   4.331644   3.543945
    22  H    9.642017   7.802415   6.677260   5.408606   4.126444
    23  H    9.071578   6.844080   5.565548   4.490658   3.015453
    24  H    7.920945   6.000825   4.932821   3.814733   2.790297
    25  H    7.957761   6.521391   5.655460   4.331587   3.543913
                   11         12         13         14         15
    11  C    0.000000
    12  C    1.559773   0.000000
    13  C    2.152619   1.539386   0.000000
    14  C    1.559727   2.133935   1.539421   0.000000
    15  H    4.322609   5.395158   6.394855   5.395130   0.000000
    16  H    5.768321   6.965430   7.721202   6.965449   4.329873
    17  H    4.276037   5.351020   5.851762   5.351021   5.007369
    18  H    2.203638   2.664085   3.213983   3.304448   5.257712
    19  H    2.203597   3.304421   3.213967   2.664072   5.257707
    20  H    2.271935   1.093443   2.237606   3.089353   5.815315
    21  H    2.241953   1.096822   2.217375   2.671567   5.367559
    22  H    3.104166   2.242235   1.092887   2.242217   7.161889
    23  H    2.686410   2.220154   1.095954   2.220120   7.005441
    24  H    2.271847   3.089335   2.237643   1.093445   5.815249
    25  H    2.241891   2.671577   2.217369   1.096740   5.367553
                   16         17         18         19         20
    16  H    0.000000
    17  H    2.478618   0.000000
    18  H    4.993538   2.932976   0.000000
    19  H    4.993585   2.932996   1.791046   0.000000
    20  H    6.920772   5.213965   2.385910   3.563630   0.000000
    21  H    7.555794   6.192693   3.649091   4.277435   1.776533
    22  H    8.782670   6.944559   4.272019   4.271982   2.905854
    23  H    7.717962   5.607986   2.972908   2.972851   2.493929
    24  H    6.920761   5.213916   3.563611   2.385849   3.912223
    25  H    7.555784   6.192639   4.277411   3.649001   3.746418
                   21         22         23         24         25
    21  H    0.000000
    22  H    2.491985   0.000000
    23  H    3.108954   1.781368   0.000000
    24  H    3.746411   2.905839   2.493853   0.000000
    25  H    2.780951   2.491951   3.108859   1.776450   0.000000
 Stoichiometry    C12H11BrO
 Framework group  C1[X(C12H11BrO)]
 Deg. of freedom    69
 Full point group                 C1      NOp   1
 Largest Abelian subgroup         C1      NOp   1
 Largest concise Abelian subgroup C1      NOp   1
                         Standard orientation:                         
 ---------------------------------------------------------------------
 Center     Atomic      Atomic             Coordinates (Angstroms)
 Number     Number       Type             X           Y           Z
 ---------------------------------------------------------------------
      1          8           0        1.559868   -2.273707    0.000011
      2          6           0        1.575575   -1.052833   -0.000042
      3          6           0        0.345849   -0.263411   -0.000061
      4          6           0       -0.958011   -0.726435    0.000004
      5          6           0       -1.969947    0.229563    0.000036
      6         35           0       -3.777819   -0.326113    0.000007
      7          6           0       -1.670184    1.602326   -0.000033
      8          6           0       -0.340487    2.041512    0.000012
      9          6           0        0.673512    1.094464   -0.000038
     10          6           0        2.151727    1.375363    0.000017
     11          6           0        2.783993   -0.037978   -0.000019
     12          6           0        3.897873   -0.269640    1.066985
     13          6           0        4.929268    0.139689    0.000034
     14          6           0        3.897870   -0.269679   -1.066950
     15          1           0       -1.167135   -1.791126   -0.000017
     16          1           0       -2.472600    2.337259    0.000040
     17          1           0       -0.115758    3.104622   -0.000034
     18          1           0        2.424151    1.943070    0.895515
     19          1           0        2.424179    1.943040   -0.895531
     20          1           0        3.866563    0.366015    1.956131
     21          1           0        3.995105   -1.313149    1.390485
     22          1           0        5.863669   -0.427143   -0.000002
     23          1           0        5.162670    1.210500   -0.000047
     24          1           0        3.866529    0.365983   -1.956092
     25          1           0        3.995109   -1.313097   -1.390466
 ---------------------------------------------------------------------
 Rotational constants (GHZ):           1.6639585           0.2228426           0.2029228
 Standard basis: def2TZVP (5D, 7F)
 There are   589 symmetry adapted cartesian basis functions of A   symmetry.
 There are   517 symmetry adapted basis functions of A   symmetry.
   517 basis functions,   865 primitive gaussians,   589 cartesian basis functions
    63 alpha electrons       63 beta electrons
       nuclear repulsion energy      1111.8505119053 Hartrees.
 NAtoms=   25 NActive=   25 NUniq=   25 SFac= 1.00D+00 NAtFMM=   60 NAOKFM=F Big=F
 Integral buffers will be    131072 words long.
 Raffenetti 2 integral format.
 Two-electron integral symmetry is turned on.
 Nuclear repulsion after empirical dispersion term =     1111.8323334214 Hartrees.
 One-electron integrals computed using PRISM.
   1 Symmetry operations used in ECPInt.
 ECPInt:  NShTT=   20706 NPrTT=   67180 LenC2=   19138 LenP2D=   45725.
 LDataN:  DoStor=T MaxTD1= 6 Len=  172
 NBasis=   517 RedAO= T EigKep=  6.47D-06  NBF=   517
 NBsUse=   517 1.00D-06 EigRej= -1.00D+00 NBFU=   517
 ExpMin= 9.52D-02 ExpMax= 5.65D+05 ExpMxC= 5.46D+03 IAcc=3 IRadAn=         5 AccDes= 0.00D+00
 Harris functional with IExCor= 4639 and IRadAn=       5 diagonalized for initial guess.
 HarFok:  IExCor= 4639 AccDes= 0.00D+00 IRadAn=         5 IDoV= 1 UseB2=F ITyADJ=14
 ICtDFT=  3500011 ScaDFX=  1.000000  1.000000  1.000000  1.000000
 FoFCou: FMM=F IPFlag=           0 FMFlag=      100000 FMFlg1=           0
         NFxFlg=           0 DoJE=T BraDBF=F KetDBF=T FulRan=T
         wScrn=  0.000000 ICntrl=       500 IOpCl=  0 I1Cent=   200000004 NGrid=           0
         NMat0=    1 NMatS0=      1 NMatT0=    0 NMatD0=    1 NMtDS0=    0 NMtDT0=    0
 Petite list used in FoFCou.
 Requested convergence on RMS density matrix=1.00D-08 within 128 cycles.
 Requested convergence on MAX density matrix=1.00D-06.
 Requested convergence on             energy=1.00D-06.
 No special actions if energy rises.
 Integral accuracy reduced to 1.0D-05 until final iterations.
 Initial convergence to 1.0D-05 achieved.  Increase integral accuracy.
 SCF Done:  E(RwB97XD) =  -3113.33570591     A.U. after   20 cycles
            NFock= 20  Conv=0.34D-08     -V/T= 2.0021

 **********************************************************************

            Population analysis using the SCF Density.

 **********************************************************************

 Orbital symmetries:
       Occupied  (A) (A) (A) (A) (A) (A) (A) (A) (A) (A) (A) (A)
                 (A) (A) (A) (A) (A) (A) (A) (A) (A) (A) (A) (A)
                 (A) (A) (A) (A) (A) (A) (A) (A) (A) (A) (A) (A)
                 (A) (A) (A) (A) (A) (A) (A) (A) (A) (A) (A) (A)
                 (A) (A) (A) (A) (A) (A) (A) (A) (A) (A) (A) (A)
                 (A) (A) (A)
       Virtual   (A) (A) (A) (A) (A) (A) (A) (A) (A) (A) (A) (A)
                 (A) (A) (A) (A) (A) (A) (A) (A) (A) (A) (A) (A)
                 (A) (A) (A) (A) (A) (A) (A) (A) (A) (A) (A) (A)
                 (A) (A) (A) (A) (A) (A) (A) (A) (A) (A) (A) (A)
                 (A) (A) (A) (A) (A) (A) (A) (A) (A) (A) (A) (A)
                 (A) (A) (A) (A) (A) (A) (A) (A) (A) (A) (A) (A)
                 (A) (A) (A) (A) (A) (A) (A) (A) (A) (A) (A) (A)
                 (A) (A) (A) (A) (A) (A) (A) (A) (A) (A) (A) (A)
                 (A) (A) (A) (A) (A) (A) (A) (A) (A) (A) (A) (A)
                 (A) (A) (A) (A) (A) (A) (A) (A) (A) (A) (A) (A)
                 (A) (A) (A) (A) (A) (A) (A) (A) (A) (A) (A) (A)
                 (A) (A) (A) (A) (A) (A) (A) (A) (A) (A) (A) (A)
                 (A) (A) (A) (A) (A) (A) (A) (A) (A) (A) (A) (A)
                 (A) (A) (A) (A) (A) (A) (A) (A) (A) (A) (A) (A)
                 (A) (A) (A) (A) (A) (A) (A) (A) (A) (A) (A) (A)
                 (A) (A) (A) (A) (A) (A) (A) (A) (A) (A) (A) (A)
                 (A) (A) (A) (A) (A) (A) (A) (A) (A) (A) (A) (A)
                 (A) (A) (A) (A) (A) (A) (A) (A) (A) (A) (A) (A)
                 (A) (A) (A) (A) (A) (A) (A) (A) (A) (A) (A) (A)
                 (A) (A) (A) (A) (A) (A) (A) (A) (A) (A) (A) (A)
                 (A) (A) (A) (A) (A) (A) (A) (A) (A) (A) (A) (A)
                 (A) (A) (A) (A) (A) (A) (A) (A) (A) (A) (A) (A)
                 (A) (A) (A) (A) (A) (A) (A) (A) (A) (A) (A) (A)
                 (A) (A) (A) (A) (A) (A) (A) (A) (A) (A) (A) (A)
                 (A) (A) (A) (A) (A) (A) (A) (A) (A) (A) (A) (A)
                 (A) (A) (A) (A) (A) (A) (A) (A) (A) (A) (A) (A)
                 (A) (A) (A) (A) (A) (A) (A) (A) (A) (A) (A) (A)
                 (A) (A) (A) (A) (A) (A) (A) (A) (A) (A) (A) (A)
                 (A) (A) (A) (A) (A) (A) (A) (A) (A) (A) (A) (A)
                 (A) (A) (A) (A) (A) (A) (A) (A) (A) (A) (A) (A)
                 (A) (A) (A) (A) (A) (A) (A) (A) (A) (A) (A) (A)
                 (A) (A) (A) (A) (A) (A) (A) (A) (A) (A) (A) (A)
                 (A) (A) (A) (A) (A) (A) (A) (A) (A) (A) (A) (A)
                 (A) (A) (A) (A) (A) (A) (A) (A) (A) (A) (A) (A)
                 (A) (A) (A) (A) (A) (A) (A) (A) (A) (A) (A) (A)
                 (A) (A) (A) (A) (A) (A) (A) (A) (A) (A) (A) (A)
                 (A) (A) (A) (A) (A) (A) (A) (A) (A) (A) (A) (A)
                 (A) (A) (A) (A) (A) (A) (A) (A) (A) (A)
 The electronic state is 1-A.
 Alpha  occ. eigenvalues -- -483.13422 -62.68263 -56.47381 -56.47023 -56.47014
 Alpha  occ. eigenvalues --  -19.24201 -10.37711 -10.35987 -10.32097 -10.31923
 Alpha  occ. eigenvalues --  -10.31861 -10.31572 -10.31205 -10.30892 -10.30293
 Alpha  occ. eigenvalues --  -10.29399 -10.29397 -10.28909  -8.82381  -6.64546
 Alpha  occ. eigenvalues --   -6.63394  -6.63365  -2.74939  -2.74597  -2.74577
 Alpha  occ. eigenvalues --   -2.73645  -2.73644  -1.14166  -1.00294  -0.97261
 Alpha  occ. eigenvalues --   -0.93163  -0.88460  -0.86989  -0.80057  -0.78372
 Alpha  occ. eigenvalues --   -0.76796  -0.72893  -0.69709  -0.66232  -0.63186
 Alpha  occ. eigenvalues --   -0.59259  -0.58708  -0.57826  -0.55964  -0.55390
 Alpha  occ. eigenvalues --   -0.54397  -0.53033  -0.50485  -0.49922  -0.48342
 Alpha  occ. eigenvalues --   -0.48103  -0.46941  -0.46314  -0.44393  -0.43276
 Alpha  occ. eigenvalues --   -0.42640  -0.40257  -0.40076  -0.39271  -0.37859
 Alpha  occ. eigenvalues --   -0.35358  -0.33136  -0.32490
 Alpha virt. eigenvalues --   -0.00791   0.03307   0.07029   0.09528   0.10055
 Alpha virt. eigenvalues --    0.12188   0.13554   0.13586   0.14706   0.14912
 Alpha virt. eigenvalues --    0.15987   0.17029   0.18223   0.18817   0.19795
 Alpha virt. eigenvalues --    0.20826   0.20917   0.22291   0.22824   0.23001
 Alpha virt. eigenvalues --    0.24124   0.24925   0.25236   0.26084   0.26828
 Alpha virt. eigenvalues --    0.27105   0.27264   0.28336   0.28765   0.29543
 Alpha virt. eigenvalues --    0.29633   0.30968   0.31131   0.32302   0.33229
 Alpha virt. eigenvalues --    0.33231   0.34403   0.35184   0.35621   0.35972
 Alpha virt. eigenvalues --    0.37392   0.37709   0.38253   0.39348   0.39457
 Alpha virt. eigenvalues --    0.41114   0.41722   0.42233   0.42485   0.43525
 Alpha virt. eigenvalues --    0.43885   0.44347   0.44413   0.45600   0.45865
 Alpha virt. eigenvalues --    0.47476   0.48028   0.48371   0.48511   0.49409
 Alpha virt. eigenvalues --    0.50156   0.50931   0.51017   0.51105   0.51817
 Alpha virt. eigenvalues --    0.52572   0.52623   0.52799   0.54824   0.56094
 Alpha virt. eigenvalues --    0.56128   0.56661   0.56902   0.57984   0.58483
 Alpha virt. eigenvalues --    0.58667   0.60021   0.61745   0.62419   0.62953
 Alpha virt. eigenvalues --    0.64089   0.64526   0.64930   0.67422   0.68521
 Alpha virt. eigenvalues --    0.69146   0.71819   0.72459   0.73932   0.74148
 Alpha virt. eigenvalues --    0.74800   0.75879   0.76386   0.77638   0.78541
 Alpha virt. eigenvalues --    0.78964   0.79724   0.82383   0.84601   0.84931
 Alpha virt. eigenvalues --    0.85097   0.87618   0.88685   0.88967   0.90196
 Alpha virt. eigenvalues --    0.91095   0.92667   0.94238   0.96267   0.97581
 Alpha virt. eigenvalues --    0.97809   0.99108   1.01003   1.01125   1.02151
 Alpha virt. eigenvalues --    1.02776   1.03121   1.04098   1.04871   1.05574
 Alpha virt. eigenvalues --    1.06700   1.08020   1.09358   1.09781   1.11174
 Alpha virt. eigenvalues --    1.12824   1.14032   1.14946   1.15533   1.17018
 Alpha virt. eigenvalues --    1.18206   1.18881   1.20405   1.21234   1.22323
 Alpha virt. eigenvalues --    1.23147   1.25874   1.25968   1.26486   1.27609
 Alpha virt. eigenvalues --    1.28087   1.29675   1.29750   1.30542   1.33389
 Alpha virt. eigenvalues --    1.33861   1.33869   1.37267   1.37551   1.38938
 Alpha virt. eigenvalues --    1.39904   1.42304   1.43608   1.43631   1.45360
 Alpha virt. eigenvalues --    1.45566   1.46082   1.46368   1.49498   1.51248
 Alpha virt. eigenvalues --    1.51975   1.52210   1.54762   1.54989   1.57106
 Alpha virt. eigenvalues --    1.57512   1.58022   1.60016   1.60511   1.61610
 Alpha virt. eigenvalues --    1.62887   1.63035   1.63522   1.65528   1.66443
 Alpha virt. eigenvalues --    1.68199   1.69188   1.69254   1.70167   1.70756
 Alpha virt. eigenvalues --    1.72183   1.72201   1.73383   1.75036   1.75547
 Alpha virt. eigenvalues --    1.76560   1.76656   1.79126   1.79819   1.80496
 Alpha virt. eigenvalues --    1.80939   1.82403   1.83831   1.85892   1.86673
 Alpha virt. eigenvalues --    1.87155   1.87742   1.88350   1.89078   1.91764
 Alpha virt. eigenvalues --    1.93896   1.94849   1.95312   1.97258   1.98694
 Alpha virt. eigenvalues --    1.98932   1.99500   2.01252   2.03532   2.04230
 Alpha virt. eigenvalues --    2.07850   2.08107   2.10997   2.12703   2.13674
 Alpha virt. eigenvalues --    2.14150   2.15926   2.19594   2.20913   2.21818
 Alpha virt. eigenvalues --    2.22960   2.23891   2.24576   2.26373   2.28492
 Alpha virt. eigenvalues --    2.28763   2.29166   2.34934   2.36852   2.37517
 Alpha virt. eigenvalues --    2.40508   2.40978   2.41407   2.42736   2.43176
 Alpha virt. eigenvalues --    2.44016   2.47780   2.49359   2.50301   2.50489
 Alpha virt. eigenvalues --    2.53064   2.55152   2.56305   2.57821   2.57832
 Alpha virt. eigenvalues --    2.61214   2.61380   2.61638   2.64753   2.65031
 Alpha virt. eigenvalues --    2.66691   2.67086   2.67821   2.69415   2.70282
 Alpha virt. eigenvalues --    2.70888   2.71677   2.72227   2.73042   2.74045
 Alpha virt. eigenvalues --    2.76115   2.76388   2.78056   2.78782   2.80022
 Alpha virt. eigenvalues --    2.81260   2.81400   2.84179   2.84473   2.85332
 Alpha virt. eigenvalues --    2.87093   2.87652   2.88080   2.89674   2.92515
 Alpha virt. eigenvalues --    2.92645   2.93872   2.95714   2.96452   2.97112
 Alpha virt. eigenvalues --    2.98482   2.99761   3.00089   3.01455   3.03251
 Alpha virt. eigenvalues --    3.04049   3.05741   3.06821   3.07360   3.09276
 Alpha virt. eigenvalues --    3.09616   3.09791   3.12743   3.14057   3.14148
 Alpha virt. eigenvalues --    3.16540   3.18118   3.18131   3.21448   3.21902
 Alpha virt. eigenvalues --    3.22108   3.22413   3.23184   3.24041   3.24472
 Alpha virt. eigenvalues --    3.26087   3.28456   3.28719   3.30870   3.32066
 Alpha virt. eigenvalues --    3.33302   3.33631   3.34164   3.35710   3.36941
 Alpha virt. eigenvalues --    3.36943   3.38213   3.40284   3.40874   3.40947
 Alpha virt. eigenvalues --    3.41897   3.43933   3.44451   3.44707   3.47448
 Alpha virt. eigenvalues --    3.49267   3.50488   3.51166   3.51664   3.53198
 Alpha virt. eigenvalues --    3.53655   3.54282   3.54786   3.56603   3.58189
 Alpha virt. eigenvalues --    3.60728   3.61842   3.61887   3.64233   3.64736
 Alpha virt. eigenvalues --    3.65452   3.66869   3.68471   3.71563   3.73232
 Alpha virt. eigenvalues --    3.74828   3.75371   3.76493   3.80342   3.81023
 Alpha virt. eigenvalues --    3.83160   3.84121   3.84712   3.86199   3.87797
 Alpha virt. eigenvalues --    3.89171   3.90694   3.92685   3.94749   3.96015
 Alpha virt. eigenvalues --    3.97992   3.99937   4.05099   4.06798   4.07476
 Alpha virt. eigenvalues --    4.09572   4.10196   4.11331   4.12487   4.14378
 Alpha virt. eigenvalues --    4.14768   4.15963   4.17030   4.18979   4.20631
 Alpha virt. eigenvalues --    4.21634   4.24383   4.25459   4.25572   4.28199
 Alpha virt. eigenvalues --    4.29197   4.29497   4.29833   4.31717   4.31974
 Alpha virt. eigenvalues --    4.32949   4.37304   4.39134   4.39429   4.40017
 Alpha virt. eigenvalues --    4.40653   4.44645   4.44808   4.51485   4.52794
 Alpha virt. eigenvalues --    4.54139   4.55397   4.55673   4.58107   4.59522
 Alpha virt. eigenvalues --    4.64536   4.66543   4.67179   4.70520   4.76425
 Alpha virt. eigenvalues --    4.76698   4.78073   4.80943   4.81207   4.82245
 Alpha virt. eigenvalues --    4.90492   4.93274   4.93632   5.00159   5.01909
 Alpha virt. eigenvalues --    5.03771   5.05428   5.11948   5.13997   5.21183
 Alpha virt. eigenvalues --    5.25158   5.29189   5.29622   5.35637   5.37920
 Alpha virt. eigenvalues --    5.39697   5.49741   5.57646   5.64341   5.69739
 Alpha virt. eigenvalues --    5.78763   5.93864   6.24640   6.47596   6.53712
 Alpha virt. eigenvalues --    6.67391   6.78235   6.91784   7.17527   7.20827
 Alpha virt. eigenvalues --    7.86000  22.22128  22.50152  22.58104  22.66897
 Alpha virt. eigenvalues --   22.71205  22.73239  22.82155  22.87435  23.01553
 Alpha virt. eigenvalues --   23.06641  23.55574  23.69315  44.10181
          Condensed to atoms (all electrons):
               1          2          3          4          5          6
     1  O    7.844385   0.700913  -0.218823   0.057539   0.002606   0.000033
     2  C    0.700913   5.075222  -0.106600  -0.036989   0.006229  -0.000765
     3  C   -0.218823  -0.106600   6.003888   0.132249   0.042966   0.016038
     4  C    0.057539  -0.036989   0.132249   5.483102   0.331793  -0.088658
     5  C    0.002606   0.006229   0.042966   0.331793   4.916397   0.373141
     6  Br   0.000033  -0.000765   0.016038  -0.088658   0.373141  34.829157
     7  C    0.000550   0.002120  -0.114240   0.051643   0.332433  -0.083720
     8  C   -0.000327   0.008830   0.016004  -0.096075   0.092098   0.018673
     9  C    0.004327  -0.002107   0.427986  -0.089654  -0.097905  -0.002532
    10  C    0.005669  -0.066761  -0.087337   0.001004  -0.003433  -0.000025
    11  C   -0.097308   0.326685  -0.175621   0.060935  -0.002297   0.000010
    12  C    0.009280  -0.039749   0.037778  -0.003153   0.000122  -0.000000
    13  C   -0.003701   0.015476  -0.010870   0.000626  -0.000024   0.000000
    14  C    0.009280  -0.039748   0.037775  -0.003154   0.000122  -0.000000
    15  H    0.013007  -0.000713  -0.058228   0.442504  -0.058734  -0.003728
    16  H   -0.000001   0.000096  -0.004536   0.016815  -0.067230  -0.003285
    17  H    0.000009   0.000748   0.015894  -0.003324   0.008974  -0.000221
    18  H   -0.000121   0.004707  -0.001043   0.000717   0.000046  -0.000000
    19  H   -0.000121   0.004704  -0.001047   0.000719   0.000044  -0.000000
    20  H    0.000185  -0.002074   0.003034   0.000081  -0.000004   0.000000
    21  H    0.006640  -0.008220   0.002056  -0.000465  -0.000007  -0.000000
    22  H    0.000168  -0.000036   0.000394  -0.000008   0.000000  -0.000000
    23  H   -0.000024  -0.000568  -0.000446  -0.000001   0.000001   0.000000
    24  H    0.000185  -0.002077   0.003035   0.000081  -0.000004   0.000000
    25  H    0.006639  -0.008217   0.002057  -0.000465  -0.000007  -0.000000
               7          8          9         10         11         12
     1  O    0.000550  -0.000327   0.004327   0.005669  -0.097308   0.009280
     2  C    0.002120   0.008830  -0.002107  -0.066761   0.326685  -0.039749
     3  C   -0.114240   0.016004   0.427986  -0.087337  -0.175621   0.037778
     4  C    0.051643  -0.096075  -0.089654   0.001004   0.060935  -0.003153
     5  C    0.332433   0.092098  -0.097905  -0.003433  -0.002297   0.000122
     6  Br  -0.083720   0.018673  -0.002532  -0.000025   0.000010  -0.000000
     7  C    5.112425   0.347124   0.043973   0.006924   0.002290  -0.000007
     8  C    0.347124   5.202238   0.360345  -0.086841  -0.004490   0.000092
     9  C    0.043973   0.360345   5.180724   0.360342  -0.085058  -0.012575
    10  C    0.006924  -0.086841   0.360342   4.994458   0.313636   0.017303
    11  C    0.002290  -0.004490  -0.085058   0.313636   5.166182   0.235523
    12  C   -0.000007   0.000092  -0.012575   0.017303   0.235523   5.026067
    13  C    0.000008  -0.000175   0.003998  -0.003753  -0.095133   0.314100
    14  C   -0.000007   0.000092  -0.012578   0.017313   0.235514  -0.089498
    15  H    0.014533  -0.004642   0.010886  -0.000609   0.002349  -0.000143
    16  H    0.454623  -0.065725   0.014728  -0.000093   0.000037  -0.000001
    17  H   -0.056605   0.455084  -0.065009  -0.006639   0.000134  -0.000100
    18  H   -0.000129  -0.000662  -0.018203   0.371232  -0.016638  -0.004927
    19  H   -0.000125  -0.000679  -0.018197   0.371226  -0.016636  -0.002552
    20  H   -0.000001  -0.000218  -0.003632  -0.004794  -0.038861   0.412776
    21  H   -0.000001   0.000077   0.001019   0.003420  -0.017309   0.394274
    22  H    0.000000  -0.000003  -0.000184  -0.000079   0.005919  -0.021501
    23  H   -0.000002   0.000039   0.002319  -0.004170   0.012407  -0.030621
    24  H   -0.000001  -0.000219  -0.003634  -0.004793  -0.038867   0.019632
    25  H   -0.000001   0.000077   0.001020   0.003419  -0.017309  -0.001312
              13         14         15         16         17         18
     1  O   -0.003701   0.009280   0.013007  -0.000001   0.000009  -0.000121
     2  C    0.015476  -0.039748  -0.000713   0.000096   0.000748   0.004707
     3  C   -0.010870   0.037775  -0.058228  -0.004536   0.015894  -0.001043
     4  C    0.000626  -0.003154   0.442504   0.016815  -0.003324   0.000717
     5  C   -0.000024   0.000122  -0.058734  -0.067230   0.008974   0.000046
     6  Br   0.000000  -0.000000  -0.003728  -0.003285  -0.000221  -0.000000
     7  C    0.000008  -0.000007   0.014533   0.454623  -0.056605  -0.000129
     8  C   -0.000175   0.000092  -0.004642  -0.065725   0.455084  -0.000662
     9  C    0.003998  -0.012578   0.010886   0.014728  -0.065009  -0.018203
    10  C   -0.003753   0.017313  -0.000609  -0.000093  -0.006639   0.371232
    11  C   -0.095133   0.235514   0.002349   0.000037   0.000134  -0.016638
    12  C    0.314100  -0.089498  -0.000143  -0.000001  -0.000100  -0.004927
    13  C    4.939372   0.314114   0.000019   0.000000   0.000016  -0.000112
    14  C    0.314114   5.026048  -0.000143  -0.000001  -0.000100  -0.002552
    15  H    0.000019  -0.000143   0.482666   0.000096   0.000035   0.000032
    16  H    0.000000  -0.000001   0.000096   0.518257  -0.006534  -0.000010
    17  H    0.000016  -0.000100   0.000035  -0.006534   0.533854   0.001358
    18  H   -0.000112  -0.002552   0.000032  -0.000010   0.001358   0.566984
    19  H   -0.000111  -0.004927   0.000033  -0.000010   0.001356  -0.023752
    20  H   -0.041888   0.019631   0.000001  -0.000000  -0.000001   0.001625
    21  H   -0.019181  -0.001307  -0.000020   0.000000  -0.000001   0.000385
    22  H    0.400203  -0.021511  -0.000000   0.000000  -0.000000  -0.000062
    23  H    0.407147  -0.030621  -0.000000  -0.000000   0.000005  -0.000162
    24  H   -0.041881   0.412773   0.000001  -0.000000  -0.000001   0.000361
    25  H   -0.019180   0.394292  -0.000020   0.000000  -0.000001  -0.000346
              19         20         21         22         23         24
     1  O   -0.000121   0.000185   0.006640   0.000168  -0.000024   0.000185
     2  C    0.004704  -0.002074  -0.008220  -0.000036  -0.000568  -0.002077
     3  C   -0.001047   0.003034   0.002056   0.000394  -0.000446   0.003035
     4  C    0.000719   0.000081  -0.000465  -0.000008  -0.000001   0.000081
     5  C    0.000044  -0.000004  -0.000007   0.000000   0.000001  -0.000004
     6  Br  -0.000000   0.000000  -0.000000  -0.000000   0.000000   0.000000
     7  C   -0.000125  -0.000001  -0.000001   0.000000  -0.000002  -0.000001
     8  C   -0.000679  -0.000218   0.000077  -0.000003   0.000039  -0.000219
     9  C   -0.018197  -0.003632   0.001019  -0.000184   0.002319  -0.003634
    10  C    0.371226  -0.004794   0.003420  -0.000079  -0.004170  -0.004793
    11  C   -0.016636  -0.038861  -0.017309   0.005919   0.012407  -0.038867
    12  C   -0.002552   0.412776   0.394274  -0.021501  -0.030621   0.019632
    13  C   -0.000111  -0.041888  -0.019181   0.400203   0.407147  -0.041881
    14  C   -0.004927   0.019631  -0.001307  -0.021511  -0.030621   0.412773
    15  H    0.000033   0.000001  -0.000020  -0.000000  -0.000000   0.000001
    16  H   -0.000010  -0.000000   0.000000   0.000000  -0.000000  -0.000000
    17  H    0.001356  -0.000001  -0.000001  -0.000000   0.000005  -0.000001
    18  H   -0.023752   0.001625   0.000385  -0.000062  -0.000162   0.000361
    19  H    0.567019   0.000361  -0.000346  -0.000062  -0.000162   0.001627
    20  H    0.000361   0.583739  -0.020483   0.002128  -0.007172  -0.000805
    21  H   -0.000346  -0.020483   0.534332  -0.007221   0.003546  -0.000578
    22  H   -0.000062   0.002128  -0.007221   0.574617  -0.023361   0.002129
    23  H   -0.000162  -0.007172   0.003546  -0.023361   0.574392  -0.007173
    24  H    0.001627  -0.000805  -0.000578   0.002129  -0.007173   0.583757
    25  H    0.000385  -0.000578   0.002283  -0.007220   0.003546  -0.020487
              25
     1  O    0.006639
     2  C   -0.008217
     3  C    0.002057
     4  C   -0.000465
     5  C   -0.000007
     6  Br  -0.000000
     7  C   -0.000001
     8  C    0.000077
     9  C    0.001020
    10  C    0.003419
    11  C   -0.017309
    12  C   -0.001312
    13  C   -0.019180
    14  C    0.394292
    15  H   -0.000020
    16  H    0.000000
    17  H   -0.000001
    18  H   -0.000346
    19  H    0.000385
    20  H   -0.000578
    21  H    0.002283
    22  H   -0.007220
    23  H    0.003546
    24  H   -0.020487
    25  H    0.534317
 Mulliken charges:
               1
     1  O   -0.340986
     2  C    0.168895
     3  C    0.037637
     4  C   -0.257862
     5  C    0.122674
     6  Br  -0.054116
     7  C   -0.113805
     8  C   -0.240717
     9  C   -0.000396
    10  C   -0.196619
    11  C    0.243906
    12  C   -0.260808
    13  C   -0.159071
    14  C   -0.260804
    15  H    0.160819
    16  H    0.142775
    17  H    0.121071
    18  H    0.121274
    19  H    0.121256
    20  H    0.096951
    21  H    0.127106
    22  H    0.095690
    23  H    0.101082
    24  H    0.096940
    25  H    0.127108
 Sum of Mulliken charges =  -0.00000
 Mulliken charges with hydrogens summed into heavy atoms:
               1
     1  O   -0.340986
     2  C    0.168895
     3  C    0.037637
     4  C   -0.097043
     5  C    0.122674
     6  Br  -0.054116
     7  C    0.028970
     8  C   -0.119646
     9  C   -0.000396
    10  C    0.045911
    11  C    0.243906
    12  C   -0.036751
    13  C    0.037701
    14  C   -0.036756
 Electronic spatial extent (au):  <R**2>=           4856.8123
 Charge=             -0.0000 electrons
 Dipole moment (field-independent basis, Debye):
    X=              1.8011    Y=              3.8392    Z=             -0.0001  Tot=              4.2407
 Quadrupole moment (field-independent basis, Debye-Ang):
   XX=            -90.5317   YY=            -95.0180   ZZ=            -95.1009
   XY=              4.0931   XZ=             -0.0002   YZ=              0.0004
 Traceless Quadrupole moment (field-independent basis, Debye-Ang):
   XX=              3.0185   YY=             -1.4678   ZZ=             -1.5507
   XY=              4.0931   XZ=             -0.0002   YZ=              0.0004
 Octapole moment (field-independent basis, Debye-Ang**2):
  XXX=            -83.7128  YYY=             16.6601  ZZZ=              0.0003  XYY=            -51.0096
  XXY=              0.1500  XXZ=             -0.0011  XZZ=            -30.7298  YZZ=             -7.8521
  YYZ=             -0.0000  XYZ=              0.0005
 Hexadecapole moment (field-independent basis, Debye-Ang**3):
 XXXX=          -4667.3991 YYYY=           -783.4205 ZZZZ=           -234.3022 XXXY=             22.6647
 XXXZ=             -0.0058 YYYX=             57.2302 YYYZ=              0.0011 ZZZX=             -0.0009
 ZZZY=              0.0014 XXYY=           -906.9062 XXZZ=           -839.3899 YYZZ=           -169.9804
 XXYZ=              0.0034 YYXZ=             -0.0010 ZZXY=             12.4598
 N-N= 1.111832333421D+03 E-N=-9.629083241125D+03  KE= 3.106827008709D+03
   1 Symmetry operations used in ECPInt.
 ECPInt:  NShTT=   20706 NPrTT=   67180 LenC2=   19138 LenP2D=   45725.
 LDataN:  DoStor=T MaxTD1= 7 Len=  274
 Calling FoFJK, ICntrl=      2127 FMM=F ISym2X=0 I1Cent= 0 IOpClX= 0 NMat=1 NMatS=1 NMatT=0.
 ***** Axes restored to original set *****
 -------------------------------------------------------------------
 Center     Atomic                   Forces (Hartrees/Bohr)
 Number     Number              X              Y              Z
 -------------------------------------------------------------------
      1        8          -0.014981622    0.028275531    0.002182260
      2        6          -0.003288319   -0.015954942   -0.002296159
      3        6          -0.002400585    0.021674433    0.002484206
      4        6           0.009179199    0.005199658    0.001480317
      5        6          -0.008778919    0.005635518   -0.000076960
      6       35           0.000473814    0.000402692    0.000091010
      7        6          -0.005739930    0.000257329   -0.000503474
      8        6           0.009826306   -0.008801784   -0.000198947
      9        6           0.011762043    0.001165503    0.001196270
     10        6           0.001173662   -0.016811243   -0.001959296
     11        6          -0.000337393   -0.027335740   -0.003462175
     12        6           0.002235490    0.012693557   -0.004393252
     13        6          -0.011758405   -0.014432336   -0.002837479
     14        6           0.001148517    0.011247777    0.007679278
     15        1          -0.000130407    0.002403487    0.000286166
     16        1          -0.002568919   -0.003909250   -0.000714336
     17        1           0.001072200   -0.002452752   -0.000213205
     18        1          -0.001719948    0.000088134    0.003551104
     19        1          -0.001064422    0.000986581   -0.003685579
     20        1           0.003375626   -0.002493839    0.000034210
     21        1           0.002241905    0.002154011    0.006799728
     22        1           0.000417738    0.003327031    0.000448316
     23        1           0.003141395   -0.004484925   -0.000282123
     24        1           0.003377216   -0.002481528   -0.000046805
     25        1           0.003343755    0.003647095   -0.005563076
 -------------------------------------------------------------------
 Cartesian Forces:  Max     0.028275531 RMS     0.007642892

 GradGradGradGradGradGradGradGradGradGradGradGradGradGradGradGradGradGrad
 Berny optimization.
 FormGI is forming the generalized inverse of G from B-inverse, IUseBI=4.
 Internal  Forces:  Max     0.025796166 RMS     0.004790470
 Search for a local minimum.
 Step number   1 out of a maximum of  150
 All quantities printed in internal units (Hartrees-Bohrs-Radians)
 Mixed Optimization -- RFO/linear search
 Second derivative matrix not updated -- first step.
 ITU=  0
     Eigenvalues ---    0.00349   0.00374   0.00586   0.01396   0.01490
     Eigenvalues ---    0.01910   0.02051   0.02095   0.02114   0.02176
     Eigenvalues ---    0.02220   0.02250   0.02344   0.02536   0.03128
     Eigenvalues ---    0.03367   0.04264   0.04616   0.04638   0.04648
     Eigenvalues ---    0.05402   0.05671   0.05872   0.06325   0.06423
     Eigenvalues ---    0.07087   0.07960   0.07967   0.08220   0.08513
     Eigenvalues ---    0.10009   0.10479   0.16000   0.16000   0.16000
     Eigenvalues ---    0.18680   0.20087   0.22459   0.23525   0.24156
     Eigenvalues ---    0.24507   0.24785   0.24863   0.25000   0.25000
     Eigenvalues ---    0.25325   0.26619   0.27205   0.27824   0.31128
     Eigenvalues ---    0.34036   0.34045   0.34134   0.34269   0.34272
     Eigenvalues ---    0.34418   0.34418   0.34481   0.35031   0.35208
     Eigenvalues ---    0.35393   0.35657   0.40067   0.42754   0.44372
     Eigenvalues ---    0.45929   0.47389   0.47844   0.94953
 RFO step:  Lambda=-1.42577001D-02 EMin= 3.49147646D-03
 Linear search not attempted -- first point.
 Iteration  1 RMS(Cart)=  0.04291233 RMS(Int)=  0.00116155
 Iteration  2 RMS(Cart)=  0.00135027 RMS(Int)=  0.00029375
 Iteration  3 RMS(Cart)=  0.00000096 RMS(Int)=  0.00029375
 Variable       Old X    -DE/DX   Delta X   Delta X   Delta X     New X
                                 (Linear)    (Quad)   (Total)
    R1        2.30731  -0.02580   0.00000  -0.02677  -0.02677   2.28054
    R2        2.76147   0.01231   0.00000   0.03373   0.03368   2.79515
    R3        2.98206  -0.02574   0.00000  -0.09182  -0.09189   2.89017
    R4        2.61469   0.00069   0.00000   0.00179   0.00180   2.61649
    R5        2.63966  -0.01204   0.00000  -0.02654  -0.02647   2.61319
    R6        2.63069  -0.00879   0.00000  -0.01808  -0.01810   2.61259
    R7        2.05042  -0.00242   0.00000  -0.00658  -0.00658   2.04384
    R8        3.57412   0.00024   0.00000   0.00121   0.00121   3.57533
    R9        2.65527  -0.01142   0.00000  -0.02504  -0.02507   2.63021
   R10        2.64628  -0.01211   0.00000  -0.02619  -0.02620   2.62008
   R11        2.05624  -0.00433   0.00000  -0.01188  -0.01188   2.04436
   R12        2.62195  -0.00099   0.00000  -0.00210  -0.00208   2.61987
   R13        2.05338  -0.00251   0.00000  -0.00685  -0.00685   2.04653
   R14        2.84341   0.00145   0.00000   0.00105   0.00112   2.84453
   R15        2.92590  -0.00386   0.00000  -0.01302  -0.01301   2.91289
   R16        2.06873  -0.00247   0.00000  -0.00692  -0.00692   2.06181
   R17        2.06879  -0.00249   0.00000  -0.00697  -0.00697   2.06183
   R18        2.94754  -0.00411   0.00000  -0.01672  -0.01706   2.93048
   R19        2.94746  -0.00409   0.00000  -0.01665  -0.01699   2.93047
   R20        2.90902   0.00071   0.00000   0.00446   0.00480   2.91382
   R21        2.06631  -0.00103   0.00000  -0.00287  -0.00287   2.06344
   R22        2.07269  -0.00528   0.00000  -0.01488  -0.01488   2.05782
   R23        2.90908   0.00070   0.00000   0.00442   0.00476   2.91384
   R24        2.06526  -0.00165   0.00000  -0.00459  -0.00459   2.06067
   R25        2.07105  -0.00465   0.00000  -0.01307  -0.01307   2.05798
   R26        2.06631  -0.00103   0.00000  -0.00286  -0.00286   2.06345
   R27        2.07254  -0.00522   0.00000  -0.01473  -0.01473   2.05781
    A1        2.12863   0.02171   0.00000   0.07898   0.07898   2.20761
    A2        2.28222  -0.02226   0.00000  -0.08744  -0.08744   2.19478
    A3        1.87234   0.00055   0.00000   0.00846   0.00846   1.88080
    A4        2.22967   0.00106   0.00000   0.00395   0.00387   2.23354
    A5        1.90471   0.00354   0.00000   0.01260   0.01267   1.91739
    A6        2.14880  -0.00461   0.00000  -0.01655  -0.01654   2.13226
    A7        2.04338   0.00160   0.00000   0.00718   0.00719   2.05057
    A8        2.10597  -0.00085   0.00000  -0.00390  -0.00390   2.10207
    A9        2.13383  -0.00075   0.00000  -0.00328  -0.00329   2.13054
   A10        2.08641   0.00037   0.00000   0.00191   0.00193   2.08834
   A11        2.11279   0.00133   0.00000   0.00399   0.00397   2.11675
   A12        2.08399  -0.00170   0.00000  -0.00591  -0.00589   2.07809
   A13        2.10480  -0.00059   0.00000  -0.00482  -0.00483   2.09996
   A14        2.09734  -0.00166   0.00000  -0.00882  -0.00882   2.08852
   A15        2.08105   0.00225   0.00000   0.01365   0.01365   2.09470
   A16        2.07131   0.00142   0.00000   0.00417   0.00421   2.07553
   A17        2.09813  -0.00169   0.00000  -0.00773  -0.00776   2.09037
   A18        2.11375   0.00028   0.00000   0.00357   0.00354   2.11729
   A19        2.08529   0.00085   0.00000   0.00604   0.00601   2.09130
   A20        1.99536  -0.01028   0.00000  -0.04505  -0.04488   1.95048
   A21        2.20254   0.00944   0.00000   0.03902   0.03887   2.24141
   A22        1.80366   0.00681   0.00000   0.03242   0.03245   1.83611
   A23        1.91912  -0.00114   0.00000   0.00647   0.00640   1.92551
   A24        1.91906  -0.00113   0.00000   0.00651   0.00643   1.92549
   A25        1.95172  -0.00177   0.00000  -0.00762  -0.00802   1.94370
   A26        1.95162  -0.00177   0.00000  -0.00756  -0.00796   1.94367
   A27        1.91593  -0.00068   0.00000  -0.02623  -0.02637   1.88956
   A28        1.84870  -0.00062   0.00000  -0.00843  -0.00870   1.84000
   A29        2.03908   0.00008   0.00000  -0.00083  -0.00051   2.03857
   A30        2.03905   0.00009   0.00000  -0.00080  -0.00048   2.03857
   A31        2.01217  -0.00021   0.00000  -0.00241  -0.00239   2.00977
   A32        2.01224  -0.00021   0.00000  -0.00247  -0.00245   2.00979
   A33        1.50664   0.00114   0.00000   0.01897   0.01838   1.52502
   A34        1.53563   0.00205   0.00000   0.01642   0.01487   1.55050
   A35        2.03697  -0.00041   0.00000  -0.00123  -0.00226   2.03471
   A36        1.98928  -0.00376   0.00000  -0.04959  -0.04954   1.93974
   A37        2.01331   0.00338   0.00000   0.05073   0.05125   2.06456
   A38        1.98014  -0.00322   0.00000  -0.03003  -0.03014   1.95000
   A39        1.89207   0.00164   0.00000   0.01144   0.01107   1.90314
   A40        1.53157  -0.00197   0.00000   0.00563   0.00439   1.53596
   A41        2.02078   0.00286   0.00000   0.02798   0.02761   2.04839
   A42        1.98509  -0.00181   0.00000  -0.03046  -0.03032   1.95477
   A43        2.02071   0.00287   0.00000   0.02804   0.02767   2.04838
   A44        1.98500  -0.00180   0.00000  -0.03039  -0.03026   1.95474
   A45        1.90146  -0.00037   0.00000  -0.00117  -0.00081   1.90065
   A46        1.53564   0.00205   0.00000   0.01641   0.01486   1.55050
   A47        2.03690  -0.00040   0.00000  -0.00118  -0.00222   2.03469
   A48        1.98934  -0.00377   0.00000  -0.04962  -0.04957   1.93977
   A49        2.01331   0.00337   0.00000   0.05071   0.05123   2.06454
   A50        1.98018  -0.00322   0.00000  -0.03005  -0.03016   1.95002
   A51        1.89204   0.00164   0.00000   0.01146   0.01109   1.90314
    D1        0.00002  -0.00000   0.00000   0.00002   0.00003   0.00005
    D2        3.14153   0.00000   0.00000   0.00005   0.00006   3.14158
    D3       -3.14151  -0.00000   0.00000  -0.00005  -0.00005  -3.14157
    D4       -0.00001  -0.00000   0.00000  -0.00002  -0.00002  -0.00003
    D5       -3.14150  -0.00000   0.00000  -0.00009  -0.00009  -3.14159
    D6       -0.87345  -0.00078   0.00000  -0.01165  -0.01149  -0.88494
    D7        0.87356   0.00078   0.00000   0.01151   0.01136   0.88492
    D8        0.00003  -0.00000   0.00000  -0.00000  -0.00000   0.00003
    D9        2.26808  -0.00078   0.00000  -0.01155  -0.01140   2.25668
   D10       -2.26810   0.00078   0.00000   0.01161   0.01145  -2.25665
   D11        3.14154  -0.00000   0.00000  -0.00001  -0.00001   3.14153
   D12       -0.00010   0.00000   0.00000   0.00004   0.00004  -0.00007
   D13        0.00005  -0.00000   0.00000  -0.00004  -0.00004   0.00000
   D14        3.14159   0.00000   0.00000   0.00000   0.00000  -3.14159
   D15       -3.14154   0.00000   0.00000   0.00001   0.00001  -3.14153
   D16       -0.00001   0.00000   0.00000   0.00004   0.00004   0.00003
   D17       -0.00003   0.00000   0.00000   0.00004   0.00004   0.00000
   D18        3.14149   0.00000   0.00000   0.00007   0.00007   3.14156
   D19        3.14152   0.00000   0.00000   0.00006   0.00006   3.14158
   D20        0.00003  -0.00000   0.00000  -0.00003  -0.00003   0.00001
   D21       -0.00002   0.00000   0.00000   0.00002   0.00002  -0.00001
   D22       -3.14151  -0.00000   0.00000  -0.00007  -0.00007  -3.14158
   D23       -0.00012   0.00000   0.00000   0.00010   0.00010  -0.00002
   D24       -3.14154  -0.00000   0.00000  -0.00002  -0.00002  -3.14156
   D25        3.14157   0.00000   0.00000   0.00002   0.00002   3.14159
   D26        0.00015  -0.00000   0.00000  -0.00011  -0.00011   0.00004
   D27        0.00014  -0.00000   0.00000  -0.00011  -0.00011   0.00003
   D28       -3.14158  -0.00000   0.00000  -0.00003  -0.00003   3.14157
   D29        3.14156   0.00000   0.00000   0.00001   0.00001   3.14157
   D30       -0.00016   0.00000   0.00000   0.00009   0.00009  -0.00007
   D31       -0.00006   0.00000   0.00000   0.00004   0.00004  -0.00002
   D32       -3.14158   0.00000   0.00000   0.00001   0.00001  -3.14157
   D33       -3.14152  -0.00000   0.00000  -0.00004  -0.00004  -3.14156
   D34        0.00015  -0.00000   0.00000  -0.00007  -0.00008   0.00007
   D35        0.00003  -0.00000   0.00000  -0.00004  -0.00004  -0.00001
   D36       -2.08586  -0.00115   0.00000  -0.01213  -0.01228  -2.09814
   D37        2.08579   0.00115   0.00000   0.01213   0.01228   2.09808
   D38        3.14155  -0.00000   0.00000  -0.00000  -0.00000   3.14155
   D39        1.05566  -0.00115   0.00000  -0.01209  -0.01224   1.04342
   D40       -1.05587   0.00115   0.00000   0.01217   0.01232  -1.04355
   D41       -0.00003   0.00000   0.00000   0.00002   0.00002  -0.00001
   D42       -2.28355   0.00059   0.00000   0.01038   0.01004  -2.27351
   D43        2.28350  -0.00059   0.00000  -0.01035  -0.01000   2.27350
   D44        2.06329   0.00177   0.00000   0.02284   0.02278   2.08606
   D45       -0.22023   0.00235   0.00000   0.03320   0.03279  -0.18744
   D46       -1.93636   0.00118   0.00000   0.01247   0.01276  -1.92360
   D47       -2.06325  -0.00177   0.00000  -0.02286  -0.02280  -2.08605
   D48        1.93642  -0.00118   0.00000  -0.01250  -0.01278   1.92364
   D49        0.22029  -0.00235   0.00000  -0.03323  -0.03282   0.18747
   D50        2.47327  -0.00266   0.00000  -0.05501  -0.05516   2.41811
   D51       -1.75892   0.00222   0.00000   0.01163   0.01138  -1.74754
   D52        0.46878   0.00056   0.00000  -0.02125  -0.02115   0.44764
   D53       -1.62163  -0.00369   0.00000  -0.07042  -0.07055  -1.69217
   D54        0.42937   0.00120   0.00000  -0.00378  -0.00400   0.42537
   D55        2.65707  -0.00046   0.00000  -0.03666  -0.03653   2.62054
   D56        0.40828  -0.00339   0.00000  -0.06418  -0.06453   0.34374
   D57        2.45927   0.00149   0.00000   0.00247   0.00201   2.46128
   D58       -1.59621  -0.00017   0.00000  -0.03042  -0.03052  -1.62673
   D59       -2.47329   0.00266   0.00000   0.05503   0.05518  -2.41811
   D60        1.75891  -0.00222   0.00000  -0.01159  -0.01134   1.74757
   D61       -0.46874  -0.00056   0.00000   0.02124   0.02114  -0.44761
   D62        1.62157   0.00369   0.00000   0.07047   0.07059   1.69216
   D63       -0.42943  -0.00119   0.00000   0.00385   0.00407  -0.42535
   D64       -2.65708   0.00047   0.00000   0.03668   0.03655  -2.62053
   D65       -0.40827   0.00339   0.00000   0.06417   0.06452  -0.34374
   D66       -2.45926  -0.00149   0.00000  -0.00245  -0.00200  -2.46126
   D67        1.59628   0.00017   0.00000   0.03038   0.03048   1.62676
   D68       -0.41342   0.00409   0.00000   0.06779   0.06779  -0.34563
   D69       -2.46715   0.00129   0.00000   0.02731   0.02734  -2.43982
   D70        1.59383   0.00089   0.00000   0.03193   0.03214   1.62598
   D71       -2.48604   0.00274   0.00000   0.04946   0.04910  -2.43694
   D72        1.74342  -0.00006   0.00000   0.00898   0.00864   1.75206
   D73       -0.47878  -0.00046   0.00000   0.01360   0.01345  -0.46533
   D74        1.59963   0.00035   0.00000   0.01572   0.01554   1.61518
   D75       -0.45410  -0.00245   0.00000  -0.02476  -0.02492  -0.47901
   D76       -2.67630  -0.00285   0.00000  -0.02015  -0.02011  -2.69640
   D77        0.41344  -0.00409   0.00000  -0.06780  -0.06780   0.34563
   D78        2.48598  -0.00274   0.00000  -0.04943  -0.04907   2.43691
   D79       -1.59970  -0.00035   0.00000  -0.01569  -0.01551  -1.61521
   D80        2.46723  -0.00130   0.00000  -0.02738  -0.02740   2.43983
   D81       -1.74341   0.00006   0.00000  -0.00900  -0.00866  -1.75207
   D82        0.45410   0.00245   0.00000   0.02474   0.02489   0.47899
   D83       -1.59391  -0.00088   0.00000  -0.03188  -0.03210  -1.62601
   D84        0.47863   0.00047   0.00000  -0.01351  -0.01336   0.46527
   D85        2.67614   0.00286   0.00000   0.02023   0.02019   2.69634
         Item               Value     Threshold  Converged?
 Maximum Force            0.025796     0.000450     NO 
 RMS     Force            0.004790     0.000300     NO 
 Maximum Displacement     0.264664     0.001800     NO 
 RMS     Displacement     0.042796     0.001200     NO 
 Predicted change in Energy=-7.898707D-03
 GradGradGradGradGradGradGradGradGradGradGradGradGradGradGradGradGradGrad

                          Input orientation:                          
 ---------------------------------------------------------------------
 Center     Atomic      Atomic             Coordinates (Angstroms)
 Number     Number       Type             X           Y           Z
 ---------------------------------------------------------------------
      1          8           0       -0.475954   -2.458898   -0.455581
      2          6           0       -0.191839   -1.298451   -0.285185
      3          6           0        1.166152   -0.744370   -0.093674
      4          6           0        2.369835   -1.428248   -0.070591
      5          6           0        3.520796   -0.687828    0.125448
      6         35           0        5.199142   -1.560165    0.167783
      7          6           0        3.472005    0.692993    0.293340
      8          6           0        2.256108    1.358754    0.266878
      9          6           0        1.095116    0.626792    0.070998
     10          6           0       -0.324196    1.123810    0.005140
     11          6           0       -1.182714   -0.134773   -0.229244
     12          6           0       -2.203548   -0.029138   -1.391806
     13          6           0       -3.292424    0.331047   -0.361197
     14          6           0       -2.394305   -0.293361    0.725574
     15          1           0        2.392901   -2.501488   -0.202414
     16          1           0        4.388981    1.246631    0.444973
     17          1           0        2.228488    2.433352    0.398490
     18          1           0       -0.437534    1.839804   -0.810292
     19          1           0       -0.594991    1.621695    0.937458
     20          1           0       -1.975694    0.693626   -2.177935
     21          1           0       -2.384114   -1.002456   -1.845525
     22          1           0       -4.281928   -0.104165   -0.504643
     23          1           0       -3.395480    1.407953   -0.236074
     24          1           0       -2.324303    0.210786    1.691621
     25          1           0       -2.630499   -1.343704    0.889258
 ---------------------------------------------------------------------
                    Distance matrix (angstroms):
                    1          2          3          4          5
     1  O    0.000000
     2  C    1.206811   0.000000
     3  C    2.401478   1.479129   0.000000
     4  C    3.051060   2.573921   1.384585   0.000000
     5  C    4.410022   3.784857   2.365494   1.382522   0.000000
     6  Br   5.779534   5.416304   4.122971   2.842394   1.891985
     7  C    5.107023   4.210023   2.744586   2.418034   1.391846
     8  C    4.749798   3.654854   2.396066   2.809662   2.409966
     9  C    3.502432   2.343007   1.382841   2.422426   2.759550
    10  C    3.615397   2.443186   2.391861   3.711676   4.252114
    11  C    2.439732   1.529414   2.430464   3.784025   4.749177
    12  C    3.124872   2.623497   3.681246   4.961748   5.958527
    13  C    3.965501   3.503522   4.594234   5.936391   6.906149
    14  C    3.124860   2.623490   3.681227   4.961741   5.958539
    15  H    2.880319   2.852198   2.145741   1.081552   2.160789
    16  H    6.181386   5.290981   3.826337   3.390831   2.144288
    17  H    5.654870   4.500194   3.386547   3.892554   3.389156
    18  H    4.313483   3.191355   3.124629   4.371344   4.788832
    19  H    4.313463   3.191338   3.124598   4.371327   4.788836
    20  H    3.892830   3.276127   4.035240   5.275118   6.117629
    21  H    2.773849   2.707091   3.967363   5.092319   6.233112
    22  H    4.475780   4.266533   5.500939   6.796141   7.849852
    23  H    4.850191   4.194085   5.045914   6.427307   7.235874
    24  H    3.892825   3.276119   4.035204   5.275106   6.117645
    25  H    2.773863   2.707107   3.967356   5.092327   6.233138
                    6          7          8          9         10
     6  Br   0.000000
     7  C    2.841740   0.000000
     8  C    4.146246   1.386486   0.000000
     9  C    4.651363   2.388184   1.386377   0.000000
    10  C    6.143081   3.831424   2.604165   1.505261   0.000000
    11  C    6.551141   4.756542   3.781833   2.420462   1.541435
    12  C    7.718560   5.964318   4.956411   3.667591   2.610117
    13  C    8.715687   6.805654   5.677752   4.418684   3.094035
    14  C    7.718573   5.964337   4.956433   3.667589   2.610125
    15  H    2.982973   3.408071   3.891070   3.397814   4.535249
    16  H    2.934501   1.081828   2.143230   3.372477   4.735248
    17  H    4.982589   2.141551   1.082980   2.157647   2.895828
    18  H    6.654964   4.221099   2.940649   2.144082   1.091065
    19  H    6.654968   4.221117   2.940677   2.144072   1.091071
    20  H    7.877832   5.982025   4.932307   3.806841   2.770978
    21  H    7.865762   6.460914   5.618649   4.293314   3.491307
    22  H    9.615756   7.835542   6.743982   5.456946   4.175098
    23  H    9.101667   6.924868   5.674137   4.568364   3.093817
    24  H    7.877853   5.982048   4.932331   3.806823   2.770967
    25  H    7.865791   6.460945   5.618681   4.293322   3.491322
                   11         12         13         14         15
    11  C    0.000000
    12  C    1.550745   0.000000
    13  C    2.164550   1.541927   0.000000
    14  C    1.550736   2.142311   1.541938   0.000000
    15  H    4.288016   5.352990   6.353848   5.352974   0.000000
    16  H    5.779846   6.961521   7.777672   6.961558   4.295561
    17  H    4.315740   5.376984   5.956281   5.377003   4.974010
    18  H    2.189033   2.636268   3.260127   3.276924   5.218017
    19  H    2.189016   3.276916   3.260126   2.636260   5.217992
    20  H    2.261075   1.091927   2.272835   3.095116   5.761602
    21  H    2.192852   1.088950   2.192370   2.667109   5.269419
    22  H    3.111577   2.261050   1.090460   2.261050   7.098721
    23  H    2.697478   2.195825   1.089038   2.195811   6.984999
    24  H    2.261053   3.095103   2.272836   1.091930   5.761581
    25  H    2.192862   2.667138   2.192390   1.088945   5.269417
                   16         17         18         19         20
    16  H    0.000000
    17  H    2.465400   0.000000
    18  H    5.022230   2.986826   0.000000
    19  H    5.022269   2.986856   1.768332   0.000000
    20  H    6.906123   5.228744   2.355866   3.531760   0.000000
    21  H    7.495304   6.173854   3.597126   4.222810   1.775949
    22  H    8.826725   7.045577   4.318773   4.318768   2.958900
    23  H    7.815860   5.751793   3.043955   3.043945   2.509358
    24  H    6.906177   5.228756   3.531737   2.355832   3.915115
    25  H    7.495354   6.173878   4.222830   3.597111   3.739941
                   21         22         23         24         25
    21  H    0.000000
    22  H    2.491302   0.000000
    23  H    3.069733   1.773251   0.000000
    24  H    3.739911   2.958896   2.509310   0.000000
    25  H    2.766983   2.491312   3.069721   1.775946   0.000000
 Stoichiometry    C12H11BrO
 Framework group  C1[X(C12H11BrO)]
 Deg. of freedom    69
 Full point group                 C1      NOp   1
 Largest Abelian subgroup         C1      NOp   1
 Largest concise Abelian subgroup C1      NOp   1
                         Standard orientation:                         
 ---------------------------------------------------------------------
 Center     Atomic      Atomic             Coordinates (Angstroms)
 Number     Number       Type             X           Y           Z
 ---------------------------------------------------------------------
      1          8           0        1.700010   -2.217612    0.000009
      2          6           0        1.604720   -1.014569    0.000000
      3          6           0        0.349770   -0.231675   -0.000044
      4          6           0       -0.950737   -0.706813   -0.000028
      5          6           0       -1.970994    0.226160   -0.000001
      6         35           0       -3.771340   -0.355530    0.000008
      7          6           0       -1.701597    1.591686    0.000004
      8          6           0       -0.391905    2.046713    0.000004
      9          6           0        0.639632    1.120445   -0.000030
     10          6           0        2.123574    1.372887   -0.000011
     11          6           0        2.771496   -0.025762   -0.000004
     12          6           0        3.871696   -0.242462    1.071169
     13          6           0        4.933563    0.077891    0.000024
     14          6           0        3.871711   -0.242492   -1.071142
     15          1           0       -1.145426   -1.770698   -0.000039
     16          1           0       -2.520245    2.298911    0.000053
     17          1           0       -0.192494    3.111176   -0.000013
     18          1           0        2.410804    1.944024    0.884140
     19          1           0        2.410813    1.943987   -0.884192
     20          1           0        3.822568    0.393292    1.957571
     21          1           0        3.915841   -1.284725    1.383501
     22          1           0        5.842943   -0.523884    0.000030
     23          1           0        5.207982    1.131787   -0.000011
     24          1           0        3.822596    0.393269   -1.957543
     25          1           0        3.915868   -1.284747   -1.383482
 ---------------------------------------------------------------------
 Rotational constants (GHZ):           1.6877111           0.2230648           0.2034806
 Standard basis: def2TZVP (5D, 7F)
[...]
 27297,0.00086029,0.00321070,-0.00142150,-0.03689499,-0.04283716,0.0006
 3027,-0.00444386,0.00323404,0.00046319,0.00050106,-0.00284415,-0.00002
 359,-0.00002217,0.00000035,-0.00002095,-0.00006288,-0.00002382,-0.0000
 0422,-0.00000103,-0.00000108,0.00003215,0.00009640,-0.00001827,0.00011
 189,0.00012486,-0.00109738,0.00049128,0.00059643,-0.00430106,0.0023191
 6,0.04085795,0.03116095,0.00107971,-0.00080623,-0.00019067,-0.00357058
 ,-0.00003605,-0.00064121,-0.00230839,0.00009249,0.00010792,-0.00048545
 ,0.00041155,0.00137307,0.00021367,0.00032891,-0.00014463,-0.00026615,0
 .00010891,-0.00007521,0.00016278,-0.00003704,0.00107346,0.00068382,0.0
 0029983,0.00083622,-0.00432387,0.02236297,-0.02454621,-0.04755948,0.01
 780133,-0.02123820,0.00121119,-0.01216452,0.01327191,0.00066717,-0.000
 69856,0.00129497,0.00013482,-0.00022837,0.00006070,-0.00072193,-0.0024
 5136,-0.00000324,-0.00024249,0.00010301,0.00004196,-0.00001626,-0.0000
 1654,-0.00007929,-0.00009388,-0.00046856,-0.00061484,0.05481692,0.0008
 5502,-0.00126347,-0.00076568,-0.00292985,-0.00167793,0.00090677,0.0018
 1938,0.00000562,0.00034266,-0.00046505,-0.00026163,-0.00056642,0.00010
 143,0.00083103,0.00012644,0.00005794,-0.00004221,0.00005706,0.00088818
 ,-0.00080884,-0.00048741,-0.00177223,0.00037843,-0.00042751,0.00404772
 ,-0.00744430,0.00643421,0.01628721,-0.15867054,0.12932686,0.00162643,-
 0.01518317,0.01586985,0.00142152,0.00105278,0.00169161,0.00004417,0.00
 004112,0.00017102,0.00011829,-0.00229827,-0.00025428,0.00005812,-0.000
 08086,0.00001777,0.00002378,-0.00001892,0.00001453,0.00009705,0.000001
 78,0.00052583,-0.01908282,0.17409137,0.00031967,-0.00024205,-0.0002381
 1,-0.00048970,-0.00103186,-0.00002833,0.00009238,-0.00045630,-0.000182
 03,0.00009805,-0.00009420,-0.00021045,0.00001635,-0.00025593,-0.000083
 83,-0.00008123,0.00003615,-0.00000737,-0.00030239,0.00017174,0.0000951
 3,0.00009945,0.00026791,0.00083930,-0.00007271,-0.00111498,0.00112419,
 -0.02013770,0.13089260,-0.19423817,0.00100179,-0.00475979,0.00377608,-
 0.00069505,-0.00143781,0.00153938,-0.00018060,0.00025234,-0.00001167,-
 0.00028948,-0.00004113,-0.00001230,-0.00000158,-0.00001700,0.00001915,
 -0.00002727,0.00001953,-0.00000808,-0.00025601,-0.00001210,-0.00024411
 ,0.02388940,-0.14061889,0.20849558,0.00106331,-0.00086188,0.00020109,-
 0.00359475,-0.00025664,-0.00004299,-0.00224866,0.00007261,-0.00046492,
 -0.00021779,0.00071565,-0.00124792,0.00017393,0.00020943,0.00025316,-0
 .00028911,0.00009845,0.00005187,0.00027770,0.00027320,-0.00101527,0.00
 088383,0.00054605,-0.00072430,-0.00901811,0.01553737,0.02757394,-0.061
 06575,0.02970244,0.05705898,0.00394476,-0.00887126,-0.01556580,-0.0006
 9877,-0.00227596,-0.00071188,0.00011168,-0.00016508,-0.00007802,0.0007
 8058,-0.00057799,-0.00158312,-0.00023086,0.00011329,-0.00006042,-0.000
 03472,-0.00003107,0.00006939,-0.00024360,-0.00060713,0.00049136,0.0014
 8959,-0.00202058,-0.00329251,0.06982486,0.00075786,-0.00144216,0.00060
 847,-0.00264420,-0.00154285,-0.00181264,0.00185836,-0.00007248,0.00002
 658,-0.00051329,-0.00042179,0.00045809,0.00009750,0.00073584,0.0000957
 6,0.00005199,-0.00002086,-0.00005358,0.00070318,-0.00085015,0.00040886
 ,-0.00173005,0.00039597,0.00002081,0.00535376,-0.00610962,-0.00796568,
 0.02825201,-0.09974908,-0.10261129,0.00493422,-0.01128369,-0.01876513,
 0.00006287,-0.00217702,-0.00028504,0.00002156,0.00014262,-0.00012913,0
 .00150835,0.00112188,-0.00151908,0.00006584,-0.00007854,-0.00002962,0.
 00001921,-0.00000976,-0.00001354,0.00011508,0.00012113,-0.00043424,-0.
 00592299,0.01052962,0.01855834,-0.03177751,0.11018927,0.00009825,-0.00
 021218,-0.00004371,-0.00085203,0.00060448,-0.00014298,-0.00001026,0.00
 050616,-0.00016227,-0.00023745,0.00017637,-0.00031799,0.00005074,0.000
 51019,0.00005012,0.00004592,-0.00002394,-0.00000568,0.00053034,-0.0003
 7421,0.00002422,-0.00053271,-0.00028245,0.00062429,-0.00045421,0.00215
 223,0.00447644,0.05559044,-0.10391365,-0.23964693,0.00014740,-0.000620
 87,-0.00285824,0.00018616,-0.00093834,-0.00015313,0.00022023,-0.000251
 88,-0.00009059,0.00093100,0.00123363,0.00135447,-0.00002808,0.00001324
 ,0.00000491,0.00002860,-0.00002668,0.00000130,0.00029358,-0.00001233,-
 0.00021399,0.00650023,-0.01120635,-0.02120921,-0.06160145,0.11252414,0
 .25739061,-0.00001531,0.00092692,0.00047578,0.00086560,-0.00195294,-0.
 00260263,-0.00060326,0.00033827,0.00045142,0.00007275,-0.00016828,0.00
 008712,-0.00006829,-0.00015658,-0.00007042,-0.00003026,0.00000814,-0.0
 0001346,-0.00011397,0.00013618,0.00001056,0.00023047,-0.00004653,-0.00
 004217,-0.00019805,0.00033733,0.00013837,0.00190168,0.00149787,0.00039
 553,0.00282806,0.01740755,-0.01256428,-0.06172461,-0.03537539,0.037247
 75,-0.00138497,-0.01878343,0.01052487,-0.00068300,0.00059844,0.0011312
 2,0.00002661,0.00000242,0.00001404,0.00000706,-0.00000579,0.00000930,-
 0.00001246,-0.00001708,-0.00000364,0.00002308,-0.00070781,0.00029454,0
 .00003673,-0.00013116,0.00014103,0.05771316,0.00092025,0.00019710,0.00
 026408,-0.00058355,-0.00091033,0.00035728,0.00015132,-0.00002306,0.000
 00749,0.00008038,0.00004164,0.00001858,-0.00006534,-0.00000514,-0.0000
 0409,0.00004215,-0.00001301,-0.00000338,0.00001793,0.00005590,0.000026
 44,0.00010510,0.00000709,-0.00002453,-0.00010948,0.00001595,-0.0001571
 4,-0.00034192,0.00101388,-0.00109862,-0.00206513,-0.00161031,-0.002190
 08,-0.03463543,-0.17621652,0.13073037,0.00176473,0.00686028,-0.0073108
 6,0.00109064,0.00076215,-0.00088834,-0.00002165,-0.00000846,0.00000325
 ,0.00000509,0.,0.00001109,-0.00000173,0.00001055,0.00000559,0.00014452
 ,0.00037707,0.00011720,-0.00003953,0.00007417,-0.00007813,0.03882491,0
 .18449658,0.00004217,0.00086411,0.00052271,0.00187240,-0.00213603,-0.0
 0180413,-0.00047896,0.00010643,0.00013112,0.00012382,-0.00014291,0.000
 00744,-0.00004794,-0.00018161,-0.00005209,-0.00002120,0.00000192,-0.00
 000229,-0.00014450,0.00009678,-0.00000662,0.00017182,0.00003007,-0.000
 07816,-0.00048284,-0.00004794,0.00027993,0.00119679,0.00160022,0.00131
 369,0.00215292,0.01208678,-0.01176797,0.03682213,0.13012650,-0.1798026
 3,0.00058724,0.00952320,-0.00938919,0.00096947,-0.00166036,-0.00547873
 ,0.00003404,0.00000225,0.00000413,0.00000165,-0.00000093,0.00001055,-0
 .00001905,-0.00002292,-0.00000928,-0.00078028,-0.00129950,0.00007715,0
 .00023716,-0.00006786,0.00025178,-0.03970014,-0.14055831,0.19548871,0.
 00078691,0.00147877,0.00111062,-0.00030467,-0.00361145,-0.00027924,0.0
 0061023,0.00007331,-0.00027497,-0.00015862,0.00015409,-0.00004399,0.00
 008554,0.00016744,0.00007393,-0.00001821,0.00002050,0.00000623,0.00005
 957,-0.00018306,-0.00000775,-0.00047758,0.00023155,0.00020440,0.000401
 20,-0.00116484,-0.00036853,-0.00232925,0.00078787,-0.00401325,-0.00662
 643,-0.02259997,-0.00959925,-0.04789650,-0.03316993,-0.01327762,0.0030
 3765,0.02691986,0.01143065,-0.00070818,0.00019755,-0.00006436,-0.00005
 948,0.00001385,-0.00002770,-0.00003002,0.00002141,-0.00003562,0.000041
 06,0.00002533,-0.00000489,0.00000856,0.00041728,-0.00009283,-0.0006997
 9,-0.00054075,-0.00036291,-0.00048428,-0.00502417,-0.00269585,0.055948
 50,0.00037461,0.00122466,0.00025530,0.00127278,-0.00102681,0.00000202,
 -0.00044319,-0.00004096,0.00022515,0.00001137,-0.00006296,0.00004096,0
 .00003076,-0.00003029,-0.00003462,-0.00005531,0.00002536,-0.00000737,-
 0.00001480,0.00002032,0.00001585,-0.00001009,0.00001744,-0.00008145,0.
 00005091,0.00001628,-0.00010950,0.00045378,0.00005972,0.00049892,-0.00
 096188,0.00330576,0.00086059,-0.03404831,-0.27237889,-0.09819000,-0.00
 021042,-0.00585709,-0.00176362,-0.00002985,-0.00021453,0.00005465,0.00
 000932,0.00002041,0.00000894,-0.00000659,-0.00000053,0.00001343,0.0000
 0592,-0.00000617,-0.00000098,0.00018187,0.00033745,-0.00018440,-0.0000
 5277,0.00008636,-0.00017136,-0.00248773,-0.01668776,-0.00893907,0.0352
 4483,0.28885920,0.00164898,0.00129164,0.00062030,-0.00099818,-0.003628
 70,0.00095581,0.00035451,0.00032365,-0.00025688,-0.00009424,0.00004453
 ,-0.00007036,0.00002983,0.00008665,0.00005359,-0.00000887,0.00000643,0
 .00000529,0.00002605,-0.00009017,-0.00001749,-0.00023415,0.00012332,0.
 00013779,0.00023057,-0.00070231,-0.00002022,-0.00029386,0.00113235,-0.
 00279882,-0.00465968,-0.01687884,-0.00803351,-0.01320655,-0.09654602,-
 0.09465885,-0.00194755,-0.01519653,-0.00634276,0.00014508,0.00058107,0
 .00053652,-0.00003707,0.00000451,-0.00001448,-0.00001403,0.00001252,-0
 .00002271,0.00002406,0.00001224,-0.00000257,-0.00011801,-0.00014567,0.
 00010322,-0.00049285,-0.00048898,-0.00002883,0.00319950,0.02120669,0.0
 1127650,0.01519770,0.10818192,0.10004775,0.00014912,0.00094633,0.00014
 473,-0.00016390,-0.00217271,-0.00039633,-0.00058609,0.00042076,0.00003
 380,-0.00006829,-0.00016772,-0.00002229,0.00007765,-0.00008798,-0.0000
 0670,-0.00011022,0.00004245,-0.00000514,-0.00008231,0.00002088,-0.0000
 0475,-0.00002636,0.00005945,0.00000858,-0.00002201,0.00000554,-0.00000
 430,0.00022059,0.00021224,0.00001754,-0.00511533,0.00351017,-0.0000274
 9,-0.01180629,-0.00708468,-0.00415257,-0.26003185,-0.10856726,-0.03219
 978,-0.00926479,-0.00504235,0.00044238,0.00001389,0.00000889,0.0000036
 5,-0.00001285,0.00000092,-0.00000199,-0.00000260,-0.00001424,-0.000001
 18,-0.00002353,-0.00001926,0.00004895,-0.00003625,-0.00001805,-0.00006
 794,-0.00134875,0.00039209,0.00012327,0.00142787,-0.00001620,-0.000024
 04,0.28134668,-0.00022169,-0.00000309,-0.00000098,0.00060070,0.0003165
 3,-0.00006060,0.00009279,-0.00004639,0.00005044,0.00001751,0.00004381,
 0.00001387,0.00003394,-0.00000075,-0.00000086,-0.00001046,0.00000795,-
 0.00000063,0.00001297,-0.00000337,0.00000085,-0.00001363,-0.00000555,0
 .00000303,0.00023562,0.00003604,0.00002185,0.00029802,-0.00010320,-0.0
 0002657,0.00359473,-0.00061346,0.00023294,0.00745091,0.00192892,0.0014
 6722,-0.11044307,-0.10482141,-0.01645626,0.01162225,0.00565508,0.00077
 122,-0.00000218,0.00000115,0.00000175,-0.00000064,-0.00000043,-0.00000
 143,0.00000778,0.00000266,0.00000219,0.00012603,0.00005297,-0.00010863
 ,0.00007310,0.00000587,0.00012154,0.00009230,0.00009714,-0.00004001,-0
 .00013028,0.00108291,-0.00000511,0.11508732,0.10813284,-0.00000035,0.0
 0010344,-0.00014206,-0.00005108,-0.00030830,0.00118995,-0.00000626,0.0
 0007945,-0.00037238,0.00000106,-0.00000278,-0.00005486,0.00000845,-0.0
 0001185,0.00002992,-0.00001169,0.00000414,0.00000483,-0.00000568,0.000
 00160,-0.00000122,-0.00000047,0.00000952,-0.00003820,0.00002469,0.0000
 0118,0.00003424,0.00002811,-0.00003415,0.00032014,-0.00001798,0.000225
 04,0.00012543,0.01625817,0.01389372,0.00479456,-0.03243501,-0.01628824
 ,-0.05741447,-0.01606998,-0.01445600,-0.00147373,0.00000228,0.00000274
 ,-0.00001389,-0.00000218,-0.00000128,0.00001015,0.00000157,0.00000021,
 -0.00000908,-0.00012141,-0.00007456,0.00001979,0.00013200,0.00006610,0
 .00007969,0.00213882,-0.00034561,-0.00108674,-0.00162435,0.00030637,0.
 00167870,0.03545105,0.01801579,0.05206841,-0.00030028,-0.00042759,-0.0
 0012513,0.00030942,0.00041964,0.00008737,0.00002211,-0.00013613,-0.000
 00452,0.00005515,-0.00003987,-0.00000033,-0.00002430,-0.00005100,-0.00
 000918,0.00001533,-0.00000982,0.00000010,-0.00003955,0.00001362,-0.000
 00210,0.00004666,0.00000189,0.00000717,-0.00034525,-0.00010215,-0.0000
 3750,-0.00025715,0.00021431,-0.00004318,0.00025715,-0.00033302,0.00006
 004,-0.00197415,0.01976593,0.00215475,-0.05541164,0.02931392,0.0025635
 9,-0.00157726,0.01458556,0.00207156,0.00001895,-0.00000656,0.00000175,
 0.00000347,0.00000005,-0.00000027,-0.00001454,-0.00000800,-0.00000257,
 -0.00018054,-0.00009894,0.00020110,-0.00013056,-0.00004497,-0.00023774
 ,0.00174561,-0.00036628,-0.00003484,-0.00305486,0.00081828,0.00115220,
 0.00527140,-0.02860235,-0.00311476,0.05615832,0.00022662,0.00026631,-0
 .00000987,-0.00031665,-0.00006809,-0.00002661,0.00019918,0.00000271,0.
 00003298,-0.00003013,0.00006891,0.00000539,-0.00001747,0.00007872,0.00
 000736,0.00002740,-0.00000670,0.00000155,0.00005657,-0.00002506,0.0000
 0167,-0.00004497,-0.00001066,-0.00000162,0.00013682,-0.00000424,0.0000
 2110,0.00002370,-0.00007876,-0.00007366,0.00015837,-0.00046910,0.00006
 628,-0.00034377,-0.00314427,-0.00071607,0.03034639,-0.30982891,-0.0305
 8716,0.00019176,-0.01037840,-0.00063281,-0.00002468,-0.00000014,-0.000
 00106,0.00000080,0.00000092,-0.00000063,0.00001375,0.00001188,0.000002
 37,0.00012007,0.00005910,-0.00009894,0.00011316,0.00002806,0.00014417,
 0.00008340,0.00110594,-0.00023747,0.00089070,0.00105183,0.00006755,0.0
 0211087,-0.01288029,-0.00144053,-0.03551184,0.33237732,-0.00004467,-0.
 00006813,0.00049355,-0.00000496,0.00004027,-0.00007770,0.00003744,0.00
 000268,-0.00011323,0.00000085,0.00000451,0.00000472,-0.00000498,0.0000
 0436,0.00000709,0.00000473,-0.00000180,0.00000089,0.00000328,-0.000002
 22,0.00000255,0.00000132,0.00000259,-0.00002985,-0.00000730,-0.0000005
 6,-0.00007325,-0.00006720,-0.00005617,0.00051147,0.00012250,0.00002251
 ,-0.00087238,0.00243726,-0.02760902,-0.00472769,0.00269299,-0.03068048
 ,-0.04676907,-0.00252131,0.02935794,0.00210835,-0.00000052,0.00000058,
 -0.00000947,-0.00000018,-0.00000070,0.00000648,0.00000015,0.00000041,0
 .00000290,0.00006486,0.00000082,-0.00004253,-0.00005417,0.00001032,-0.
 00006139,-0.00149176,0.00067757,0.00134215,0.00466624,-0.00075742,-0.0
 0255807,0.00072178,-0.00419779,-0.00029153,-0.00380004,0.03220246,0.05
 276248,0.00004626,0.00116334,-0.00027671,0.00071847,-0.00293816,0.0024
 0829,-0.00059497,0.00047003,-0.00048011,0.00010963,-0.00016662,-0.0001
 1335,-0.00008273,-0.00019766,0.00001637,-0.00003647,0.00000581,0.00000
 897,-0.00013747,0.00015031,0.00000391,0.00024171,-0.00005839,0.0000871
 5,-0.00024704,0.00036544,-0.00015010,0.00212964,0.00179180,0.00017427,
 0.00020905,0.01512049,0.01898875,-0.00049295,0.00032565,-0.00018788,0.
 00064981,-0.01425585,-0.01283064,-0.05211725,-0.00615786,-0.01352426,0
 .00003463,0.00000569,-0.00000732,0.00000903,-0.00000322,-0.00001044,-0
 .00001581,-0.00002139,-0.00000282,0.00011349,-0.00009475,-0.00019711,-
 0.00004168,-0.00082860,-0.00053449,0.00122805,-0.00028085,0.00010552,-
 0.00002087,0.00000361,0.00001760,-0.00095850,0.00057721,-0.00204374,0.
 00147368,-0.00032639,0.00149544,0.04771036,0.00094747,0.00044119,-0.00
 010517,-0.00010189,-0.00132783,-0.00031896,0.00004770,0.00000266,-0.00
 002146,0.00010783,0.00001090,0.00000403,-0.00007402,-0.00004655,-0.000
 00973,0.00003542,-0.00001362,0.00000678,-0.00001259,0.00007871,-0.0000
 0715,0.00012890,0.00000150,0.00006819,-0.00023145,-0.00001967,0.000043
 44,-0.00024142,0.00111726,0.00103100,-0.00236639,-0.00014164,0.0044784
 9,0.00089154,-0.00026070,0.00242836,-0.00003582,0.00671443,0.01178768,
 -0.00544983,-0.11355782,-0.11608846,-0.00001221,-0.00000625,-0.0000079
 0,0.00000743,0.00000298,-0.00001163,-0.00000550,0.00000578,-0.00000297
 ,0.00001408,0.00005179,0.00003381,-0.00002952,0.00009333,-0.00011296,-
 0.00038930,0.00026897,0.00065952,-0.00008809,0.00004023,0.00043036,0.0
 0031753,-0.00008768,0.00071457,-0.00023944,0.00123865,-0.00079354,0.00
 773372,0.11734575,0.00013074,-0.00068359,0.00021698,-0.00154390,0.0017
 9580,-0.00124097,0.00037496,-0.00006564,0.00009872,-0.00008470,0.00011
 832,0.00000140,0.00002083,0.00014855,0.00000370,0.00002468,-0.00000426
 ,0.00000452,0.00012408,-0.00005225,-0.00000569,-0.00008461,-0.00001704
 ,-0.00008420,0.00034138,0.00002863,0.00036471,-0.00110852,-0.00132063,
 0.00097997,-0.00034596,-0.00647976,-0.01061739,0.00010652,0.00310589,-
 0.00464493,0.00144832,-0.00816934,-0.01127750,-0.01291852,-0.11561458,
 -0.25207573,-0.00003259,-0.00000312,-0.00000611,-0.00000011,-0.0000015
 5,0.00000561,0.00001653,0.00002279,-0.00000117,-0.00026864,0.00000601,
 0.00019809,0.00074536,0.00115507,0.00042536,0.00026561,-0.00032636,-0.
 00126811,0.00000751,-0.00024104,0.00009929,-0.00002332,0.00040543,-0.0
 0129263,-0.00000640,0.00015393,0.00148145,0.01253884,0.12339752,0.2726
 4730,0.00121371,0.00187506,-0.00055487,-0.00041863,-0.00405999,-0.0010
 0380,0.00060215,0.00003341,0.00045636,-0.00018407,0.00014603,0.0000628
 2,0.00009799,0.00019373,-0.00001943,-0.00001710,0.00002226,-0.00000507
 ,0.00006516,-0.00019467,-0.00002615,-0.00046828,0.00030798,-0.00024595
 ,0.00039294,-0.00132878,0.00011457,-0.00311863,-0.00009348,0.00407131,
 -0.00855969,-0.02699779,0.00292036,-0.00066143,0.00031331,-0.00007220,
 0.00387136,0.02565311,-0.00339385,-0.05181896,-0.04793685,0.00705918,-
 0.00006985,0.00000766,0.00002049,-0.00003878,0.00001367,0.00003755,0.0
 0004229,0.00002418,0.00001952,-0.00081226,-0.00067221,0.00005449,-0.00
 003658,0.00034978,0.00015536,-0.00001166,-0.00000406,-0.00003479,0.000
 46163,-0.00012089,0.00010299,0.00115272,-0.00049886,0.00145873,-0.0020
 6717,0.00191634,-0.00425173,0.00007191,-0.00095414,0.00027191,0.060311
 25,0.00077356,0.00149970,0.00012805,0.00106269,-0.00171252,-0.00049260
 ,-0.00032364,0.00008384,-0.00020788,-0.00000297,-0.00004612,-0.0000370
 8,0.00003094,-0.00001776,0.00002442,-0.00005615,0.00002468,0.00000222,
 -0.00000723,0.00000474,-0.00001195,-0.00006505,0.00002965,0.00004790,0
 .00007974,-0.00015290,0.00008330,0.00038737,0.00026983,0.00025794,-0.0
 0204669,-0.00058957,0.00043674,0.00005504,-0.00002387,-0.00018963,-0.0
 0113109,-0.01051184,0.00078043,-0.04904888,-0.30619320,0.03635471,0.00
 000183,0.00002135,-0.00000025,-0.00000758,0.00000422,-0.00000900,0.000
 01036,-0.00000404,0.00000241,-0.00018255,-0.00005999,0.00012440,0.0001
 1220,0.00023386,0.00023919,-0.00003169,0.00009018,0.00023715,-0.000131
 81,0.00015804,0.00017689,0.00005499,0.00120176,-0.00046056,0.00084477,
 0.00060427,0.00184082,-0.00238333,-0.01195235,0.00264123,0.05200517,0.
 32703802,-0.00136688,-0.00070588,-0.00008025,0.00096317,0.00223918,0.0
 0175512,-0.00028249,-0.00022816,-0.00037362,0.00007684,-0.00001444,-0.
 00006221,-0.00001271,-0.00007010,0.00002854,-0.00000922,0.00000234,0.0
 0000491,-0.00001569,0.00006214,-0.00000711,0.00011619,-0.00010163,0.00
 011641,-0.00015862,0.00044030,0.00015845,0.00036908,-0.00038854,-0.002
 22023,0.00380231,0.01398915,-0.00221091,-0.00034143,-0.00067303,0.0002
 9879,0.00325036,0.01905454,-0.00251991,0.00673984,0.03488813,-0.056921
 80,0.00002867,0.00000514,-0.00000504,0.00000988,-0.00000365,-0.0000186
 8,-0.00001366,-0.00000784,-0.00000595,0.00030714,0.00035483,0.00022914
 ,0.00012132,0.00024328,0.00025177,-0.00003698,-0.00044018,0.00004006,0
 .00007583,0.00001674,-0.00068923,-0.00005790,-0.00020925,0.00183496,-0
 .00088105,0.00111961,-0.00309793,-0.00548616,-0.02760383,0.00598735,-0
 .00719781,-0.04196884,0.05750737\\-0.00002027,-0.00012702,0.00007691,0
 .00004720,0.00018680,-0.00023744,0.00002402,-0.00002392,0.00007849,-0.
 00001862,-0.00001526,0.00001014,-0.00001870,-0.00001522,-0.00000747,0.
 00001261,-0.00000306,-0.00000058,0.00000249,0.00005661,0.00000638,0.00
 005109,-0.00005980,-0.00001400,-0.00010344,0.00004013,-0.00001023,0.00
 006906,-0.00011289,-0.00000660,0.00002904,-0.00001375,0.00009636,-0.00
 002520,0.00006230,-0.00005666,0.00001998,-0.00004993,-0.00000161,-0.00
 004462,0.00007295,0.00006221,-0.00000548,0.00001019,0.00000034,-0.0000
 0070,-0.00000497,0.00000086,0.00000186,0.00001449,0.00000336,-0.000009
 26,0.00003652,0.00001187,-0.00000919,0.00003610,-0.00000201,-0.0000076
 4,-0.00002334,0.00001749,-0.00000007,-0.00005009,0.00002185,0.00001200
 ,0.00001393,0.00000103,0.00000224,0.00003276,0.00000548,-0.00000931,-0
 .00001911,-0.00002219,0.00000089,-0.00004444,-0.00003398\\\@
 The archive entry for this job was punched.


 MATERIAL COPIED FROM ONE SCHOLARLY BOOK WITHOUT CREDIT COMPRISES PLAGIARISM.
 MATERIAL COPIED FROM TWO SCHOLARLY BOOKS COMPRISES AN ESSAY.
 MATERIAL COPIED FROM THREE SCHOLARLY BOOKS COMPRISES A DISSERTATION.
 MATERIAL COPIED FROM FOUR SCHOLARLY BOOKS COMPRISES A FIFTH SCHOLARLY BOOK.

                               -- C&EN, 25 FEB 1980
 Job cpu time:       0 days 18 hours 24 minutes 20.0 seconds.
 Elapsed time:       0 days  0 hours 46 minutes 17.8 seconds.
 File lengths (MBytes):  RWF=    659 Int=      0 D2E=      0 Chk=     22 Scr=      1
 Normal termination of Gaussian 16 at Tue Sep 17 10:25:25 2024.
