 Entering Gaussian System, Link 0=/usr/local/Gaussian/G16C/g16/g16
 Input=arbr42_wb97xd.com
 Output=arbr42_wb97xd.log
 Initial command:
 /usr/local/Gaussian/G16C/g16/l1.exe "/home/rpaton/opt/Gau-717363.inp" -scrdir="/home/rpaton/opt/"
 Entering Link 1 = /usr/local/Gaussian/G16C/g16/l1.exe PID=    717364.
  
 Copyright (c) 1988-2019, Gaussian, Inc.  All Rights Reserved.
  
 This is part of the Gaussian(R) 16 program.  It is based on
 the Gaussian(R) 09 system (copyright 2009, Gaussian, Inc.),
 the Gaussian(R) 03 system (copyright 2003, Gaussian, Inc.),
 the Gaussian(R) 98 system (copyright 1998, Gaussian, Inc.),
 the Gaussian(R) 94 system (copyright 1995, Gaussian, Inc.),
 the Gaussian 92(TM) system (copyright 1992, Gaussian, Inc.),
 the Gaussian 90(TM) system (copyright 1990, Gaussian, Inc.),
 the Gaussian 88(TM) system (copyright 1988, Gaussian, Inc.),
 the Gaussian 86(TM) system (copyright 1986, Carnegie Mellon
 University), and the Gaussian 82(TM) system (copyright 1983,
 Carnegie Mellon University). Gaussian is a federally registered
 trademark of Gaussian, Inc.
  
 This software contains proprietary and confidential information,
 including trade secrets, belonging to Gaussian, Inc.
  
 This software is provided under written license and may be
 used, copied, transmitted, or stored only in accord with that
 written license.
  
 The following legend is applicable only to US Government
 contracts under FAR:
  
                    RESTRICTED RIGHTS LEGEND
  
 Use, reproduction and disclosure by the US Government is
 subject to restrictions as set forth in subparagraphs (a)
 and (c) of the Commercial Computer Software - Restricted
 Rights clause in FAR 52.227-19.
  
 Gaussian, Inc.
 340 Quinnipiac St., Bldg. 40, Wallingford CT 06492
  
  
 ---------------------------------------------------------------
 Warning -- This program may not be used in any manner that
 competes with the business of Gaussian, Inc. or will provide
 assistance to any competitor of Gaussian, Inc.  The licensee
 of this program is prohibited from giving any competitor of
 Gaussian, Inc. access to this program.  By using this program,
 the user acknowledges that Gaussian, Inc. is engaged in the
 business of creating and licensing software in the field of
 computational chemistry and represents and warrants to the
 licensee that it is not a competitor of Gaussian, Inc. and that
 it will not use this program in any manner prohibited above.
 ---------------------------------------------------------------
  

 Cite this work as:
 Gaussian 16, Revision C.01,
 M. J. Frisch, G. W. Trucks, H. B. Schlegel, G. E. Scuseria, 
 M. A. Robb, J. R. Cheeseman, G. Scalmani, V. Barone, 
 G. A. Petersson, H. Nakatsuji, X. Li, M. Caricato, A. V. Marenich, 
 J. Bloino, B. G. Janesko, R. Gomperts, B. Mennucci, H. P. Hratchian, 
 J. V. Ortiz, A. F. Izmaylov, J. L. Sonnenberg, D. Williams-Young, 
 F. Ding, F. Lipparini, F. Egidi, J. Goings, B. Peng, A. Petrone, 
 T. Henderson, D. Ranasinghe, V. G. Zakrzewski, J. Gao, N. Rega, 
 G. Zheng, W. Liang, M. Hada, M. Ehara, K. Toyota, R. Fukuda, 
 J. Hasegawa, M. Ishida, T. Nakajima, Y. Honda, O. Kitao, H. Nakai, 
 T. Vreven, K. Throssell, J. A. Montgomery, Jr., J. E. Peralta, 
 F. Ogliaro, M. J. Bearpark, J. J. Heyd, E. N. Brothers, K. N. Kudin, 
 V. N. Staroverov, T. A. Keith, R. Kobayashi, J. Normand, 
 K. Raghavachari, A. P. Rendell, J. C. Burant, S. S. Iyengar, 
 J. Tomasi, M. Cossi, J. M. Millam, M. Klene, C. Adamo, R. Cammi, 
 J. W. Ochterski, R. L. Martin, K. Morokuma, O. Farkas, 
 J. B. Foresman, and D. J. Fox, Gaussian, Inc., Wallingford CT, 2019.
 
 ******************************************
 Gaussian 16:  ES64L-G16RevC.01  3-Jul-2019
                17-Sep-2024 
 ******************************************
 %nprocshared=24
 Will use up to   24 processors via shared memory.
 %mem=96GB
 --------------------------
 # opt freq wb97xd/def2tzvp
 --------------------------
 1/18=20,19=15,26=3,38=1/1,3;
 2/9=110,12=2,17=6,18=5,40=1/2;
 3/5=44,7=101,11=2,25=1,30=1,71=1,74=-58/1,2,3;
 4//1;
 5/5=2,38=5/2;
 6/7=2,8=2,9=2,10=2,28=1/1;
 7//1,2,3,16;
 1/18=20,19=15,26=3/3(2);
 2/9=110/2;
 99//99;
 2/9=110/2;
 3/5=44,7=101,11=2,25=1,30=1,71=1,74=-58/1,2,3;
 4/5=5,16=3,69=1/1;
 5/5=2,38=5/2;
 7//1,2,3,16;
 1/18=20,19=15,26=3/3(-5);
 2/9=110/2;
 6/7=2,8=2,9=2,10=2,19=2,28=1/1;
 99/9=1/99;
 --------------------------
 arbr42_rdkit_conf_1_wb97xd
 --------------------------
 Symbolic Z-matrix:
 Charge =  0 Multiplicity = 1
 Br                   -1.9356    4.344     0.309 
 C                    -1.8158    2.4651    0.1352 
 C                    -2.9636    1.7201   -0.1092 
 C                    -2.8704    0.3347   -0.2359 
 C                    -1.6288   -0.3149   -0.1285 
 C                    -0.4632    0.4394    0.1293 
 C                    -0.5771    1.8373    0.2539 
 C                     0.9004   -0.228     0.2267 
 C                     0.7936   -1.7331    0.5109 
 C                    -0.1979   -2.3938   -0.4387 
 C                    -1.5962   -1.8219   -0.2273 
 O                     1.6824    0.371     1.2767 
 C                     2.9731    0.5644    0.7022 
 C                     2.6787    0.8122   -0.7509 
 O                     1.5844   -0.0576   -1.0314 
 H                    -3.9321    2.2039   -0.199 
 H                    -3.7752   -0.2419   -0.4181 
 H                     0.3106    2.4335    0.4498 
 H                     1.7753   -2.2082    0.3926 
 H                     0.4884   -1.9046    1.5515 
 H                    -0.2154   -3.4769   -0.2728 
 H                     0.117    -2.2369   -1.4778 
 H                    -2.2402   -2.155    -1.05 
 H                    -2.013    -2.2282    0.7031 
 H                     3.4922    1.3952    1.1866 
 H                     3.5528   -0.3539    0.8449 
 H                     3.5249    0.5922   -1.4066 
 H                     2.3507    1.8421   -0.9261 
 

 GradGradGradGradGradGradGradGradGradGradGradGradGradGradGradGradGradGrad
 Berny optimization.
 Initialization pass.
                           ----------------------------
                           !    Initial Parameters    !
                           ! (Angstroms and Degrees)  !
 --------------------------                            --------------------------
 ! Name  Definition              Value          Derivative Info.                !
 --------------------------------------------------------------------------------
 ! R1    R(1,2)                  1.8907         estimate D2E/DX2                !
 ! R2    R(2,3)                  1.39           estimate D2E/DX2                !
 ! R3    R(2,7)                  1.3938         estimate D2E/DX2                !
 ! R4    R(3,4)                  1.3943         estimate D2E/DX2                !
 ! R5    R(3,16)                 1.0863         estimate D2E/DX2                !
 ! R6    R(4,5)                  1.4054         estimate D2E/DX2                !
 ! R7    R(4,17)                 1.0883         estimate D2E/DX2                !
 ! R8    R(5,6)                  1.4121         estimate D2E/DX2                !
 ! R9    R(5,11)                 1.5106         estimate D2E/DX2                !
 ! R10   R(6,7)                  1.4081         estimate D2E/DX2                !
 ! R11   R(6,8)                  1.5213         estimate D2E/DX2                !
 ! R12   R(7,18)                 1.0871         estimate D2E/DX2                !
 ! R13   R(8,9)                  1.5354         estimate D2E/DX2                !
 ! R14   R(8,12)                 1.4397         estimate D2E/DX2                !
 ! R15   R(8,15)                 1.4421         estimate D2E/DX2                !
 ! R16   R(9,10)                 1.5236         estimate D2E/DX2                !
 ! R17   R(9,19)                 1.097          estimate D2E/DX2                !
 ! R18   R(9,20)                 1.0979         estimate D2E/DX2                !
 ! R19   R(10,11)                1.5255         estimate D2E/DX2                !
 ! R20   R(10,21)                1.0959         estimate D2E/DX2                !
 ! R21   R(10,22)                1.097          estimate D2E/DX2                !
 ! R22   R(11,23)                1.0966         estimate D2E/DX2                !
 ! R23   R(11,24)                1.0975         estimate D2E/DX2                !
 ! R24   R(12,13)                1.426          estimate D2E/DX2                !
 ! R25   R(13,14)                1.5032         estimate D2E/DX2                !
 ! R26   R(13,25)                1.0929         estimate D2E/DX2                !
 ! R27   R(13,26)                1.0953         estimate D2E/DX2                !
 ! R28   R(14,15)                1.4257         estimate D2E/DX2                !
 ! R29   R(14,27)                1.0929         estimate D2E/DX2                !
 ! R30   R(14,28)                1.095          estimate D2E/DX2                !
 ! A1    A(1,2,3)              119.7653         estimate D2E/DX2                !
 ! A2    A(1,2,7)              119.7423         estimate D2E/DX2                !
 ! A3    A(3,2,7)              120.4924         estimate D2E/DX2                !
 ! A4    A(2,3,4)              119.5589         estimate D2E/DX2                !
 ! A5    A(2,3,16)             120.798          estimate D2E/DX2                !
 ! A6    A(4,3,16)             119.6427         estimate D2E/DX2                !
 ! A7    A(3,4,5)              120.756          estimate D2E/DX2                !
 ! A8    A(3,4,17)             119.0839         estimate D2E/DX2                !
 ! A9    A(5,4,17)             120.16           estimate D2E/DX2                !
 ! A10   A(4,5,6)              119.7546         estimate D2E/DX2                !
 ! A11   A(4,5,11)             118.372          estimate D2E/DX2                !
 ! A12   A(6,5,11)             121.8046         estimate D2E/DX2                !
 ! A13   A(5,6,7)              118.6656         estimate D2E/DX2                !
 ! A14   A(5,6,8)              121.1459         estimate D2E/DX2                !
 ! A15   A(7,6,8)              120.1579         estimate D2E/DX2                !
 ! A16   A(2,7,6)              120.7664         estimate D2E/DX2                !
 ! A17   A(2,7,18)             119.6056         estimate D2E/DX2                !
 ! A18   A(6,7,18)             119.6273         estimate D2E/DX2                !
 ! A19   A(6,8,9)              112.3057         estimate D2E/DX2                !
 ! A20   A(6,8,12)             110.5501         estimate D2E/DX2                !
 ! A21   A(6,8,15)             108.5086         estimate D2E/DX2                !
 ! A22   A(9,8,12)             108.0969         estimate D2E/DX2                !
 ! A23   A(9,8,15)             108.077          estimate D2E/DX2                !
 ! A24   A(12,8,15)            109.2361         estimate D2E/DX2                !
 ! A25   A(8,9,10)             110.7926         estimate D2E/DX2                !
 ! A26   A(8,9,19)             110.0186         estimate D2E/DX2                !
 ! A27   A(8,9,20)             110.3584         estimate D2E/DX2                !
 ! A28   A(10,9,19)            109.1074         estimate D2E/DX2                !
 ! A29   A(10,9,20)            110.0043         estimate D2E/DX2                !
 ! A30   A(19,9,20)            106.4584         estimate D2E/DX2                !
 ! A31   A(9,10,11)            110.3389         estimate D2E/DX2                !
 ! A32   A(9,10,21)            110.1592         estimate D2E/DX2                !
 ! A33   A(9,10,22)            109.9698         estimate D2E/DX2                !
 ! A34   A(11,10,21)           109.5676         estimate D2E/DX2                !
 ! A35   A(11,10,22)           109.9232         estimate D2E/DX2                !
 ! A36   A(21,10,22)           106.8177         estimate D2E/DX2                !
 ! A37   A(5,11,10)            113.7572         estimate D2E/DX2                !
 ! A38   A(5,11,23)            109.8422         estimate D2E/DX2                !
 ! A39   A(5,11,24)            107.7997         estimate D2E/DX2                !
 ! A40   A(10,11,23)           108.6914         estimate D2E/DX2                !
 ! A41   A(10,11,24)           109.0756         estimate D2E/DX2                !
 ! A42   A(23,11,24)           107.4894         estimate D2E/DX2                !
 ! A43   A(8,12,13)            104.7284         estimate D2E/DX2                !
 ! A44   A(12,13,14)           103.5649         estimate D2E/DX2                !
 ! A45   A(12,13,25)           110.7608         estimate D2E/DX2                !
 ! A46   A(12,13,26)           108.2315         estimate D2E/DX2                !
 ! A47   A(14,13,25)           113.3396         estimate D2E/DX2                !
 ! A48   A(14,13,26)           111.5805         estimate D2E/DX2                !
 ! A49   A(25,13,26)           109.1605         estimate D2E/DX2                !
 ! A50   A(13,14,15)           103.8828         estimate D2E/DX2                !
 ! A51   A(13,14,27)           113.2755         estimate D2E/DX2                !
 ! A52   A(13,14,28)           111.6164         estimate D2E/DX2                !
 ! A53   A(15,14,27)           110.6978         estimate D2E/DX2                !
 ! A54   A(15,14,28)           108.2051         estimate D2E/DX2                !
 ! A55   A(27,14,28)           108.9823         estimate D2E/DX2                !
 ! A56   A(8,15,14)            105.3368         estimate D2E/DX2                !
 ! D1    D(1,2,3,4)           -179.9658         estimate D2E/DX2                !
 ! D2    D(1,2,3,16)            -0.1879         estimate D2E/DX2                !
 ! D3    D(7,2,3,4)             -0.0029         estimate D2E/DX2                !
 ! D4    D(7,2,3,16)           179.775          estimate D2E/DX2                !
 ! D5    D(1,2,7,6)            179.9509         estimate D2E/DX2                !
 ! D6    D(1,2,7,18)             0.2526         estimate D2E/DX2                !
 ! D7    D(3,2,7,6)             -0.012          estimate D2E/DX2                !
 ! D8    D(3,2,7,18)          -179.7103         estimate D2E/DX2                !
 ! D9    D(2,3,4,5)             -0.4416         estimate D2E/DX2                !
 ! D10   D(2,3,4,17)           179.4439         estimate D2E/DX2                !
 ! D11   D(16,3,4,5)           179.7779         estimate D2E/DX2                !
 ! D12   D(16,3,4,17)           -0.3365         estimate D2E/DX2                !
 ! D13   D(3,4,5,6)              0.8954         estimate D2E/DX2                !
 ! D14   D(3,4,5,11)           177.9349         estimate D2E/DX2                !
 ! D15   D(17,4,5,6)          -178.9889         estimate D2E/DX2                !
 ! D16   D(17,4,5,11)           -1.9494         estimate D2E/DX2                !
 ! D17   D(4,5,6,7)             -0.8913         estimate D2E/DX2                !
 ! D18   D(4,5,6,8)           -178.8816         estimate D2E/DX2                !
 ! D19   D(11,5,6,7)          -177.826          estimate D2E/DX2                !
 ! D20   D(11,5,6,8)             4.1836         estimate D2E/DX2                !
 ! D21   D(4,5,11,10)          165.9084         estimate D2E/DX2                !
 ! D22   D(4,5,11,23)           43.8302         estimate D2E/DX2                !
 ! D23   D(4,5,11,24)          -73.0043         estimate D2E/DX2                !
 ! D24   D(6,5,11,10)          -17.116          estimate D2E/DX2                !
 ! D25   D(6,5,11,23)         -139.1942         estimate D2E/DX2                !
 ! D26   D(6,5,11,24)          103.9713         estimate D2E/DX2                !
 ! D27   D(5,6,7,2)              0.4597         estimate D2E/DX2                !
 ! D28   D(5,6,7,18)          -179.8421         estimate D2E/DX2                !
 ! D29   D(8,6,7,2)            178.4705         estimate D2E/DX2                !
 ! D30   D(8,6,7,18)            -1.8313         estimate D2E/DX2                !
 ! D31   D(5,6,8,9)            -20.1071         estimate D2E/DX2                !
 ! D32   D(5,6,8,12)          -140.9282         estimate D2E/DX2                !
 ! D33   D(5,6,8,15)            99.3006         estimate D2E/DX2                !
 ! D34   D(7,6,8,9)            161.9323         estimate D2E/DX2                !
 ! D35   D(7,6,8,12)            41.1112         estimate D2E/DX2                !
 ! D36   D(7,6,8,15)           -78.66           estimate D2E/DX2                !
 ! D37   D(6,8,9,10)            48.9765         estimate D2E/DX2                !
 ! D38   D(6,8,9,19)           169.7072         estimate D2E/DX2                !
 ! D39   D(6,8,9,20)           -73.1104         estimate D2E/DX2                !
 ! D40   D(12,8,9,10)          171.2002         estimate D2E/DX2                !
 ! D41   D(12,8,9,19)          -68.069          estimate D2E/DX2                !
 ! D42   D(12,8,9,20)           49.1134         estimate D2E/DX2                !
 ! D43   D(15,8,9,10)          -70.683          estimate D2E/DX2                !
 ! D44   D(15,8,9,19)           50.0477         estimate D2E/DX2                !
 ! D45   D(15,8,9,20)          167.2301         estimate D2E/DX2                !
 ! D46   D(6,8,12,13)         -134.6814         estimate D2E/DX2                !
 ! D47   D(9,8,12,13)          102.024          estimate D2E/DX2                !
 ! D48   D(15,8,12,13)         -15.3487         estimate D2E/DX2                !
 ! D49   D(6,8,15,14)          112.4322         estimate D2E/DX2                !
 ! D50   D(9,8,15,14)         -125.5419         estimate D2E/DX2                !
 ! D51   D(12,8,15,14)          -8.1566         estimate D2E/DX2                !
 ! D52   D(8,9,10,11)          -62.742          estimate D2E/DX2                !
 ! D53   D(8,9,10,21)          176.1547         estimate D2E/DX2                !
 ! D54   D(8,9,10,22)           58.6818         estimate D2E/DX2                !
 ! D55   D(19,9,10,11)         175.9883         estimate D2E/DX2                !
 ! D56   D(19,9,10,21)          54.885          estimate D2E/DX2                !
 ! D57   D(19,9,10,22)         -62.5879         estimate D2E/DX2                !
 ! D58   D(20,9,10,11)          59.5517         estimate D2E/DX2                !
 ! D59   D(20,9,10,21)         -61.5517         estimate D2E/DX2                !
 ! D60   D(20,9,10,22)        -179.0245         estimate D2E/DX2                !
 ! D61   D(9,10,11,5)           45.7017         estimate D2E/DX2                !
 ! D62   D(9,10,11,23)         168.4139         estimate D2E/DX2                !
 ! D63   D(9,10,11,24)         -74.67           estimate D2E/DX2                !
 ! D64   D(21,10,11,5)         167.1569         estimate D2E/DX2                !
 ! D65   D(21,10,11,23)        -70.1309         estimate D2E/DX2                !
 ! D66   D(21,10,11,24)         46.7852         estimate D2E/DX2                !
 ! D67   D(22,10,11,5)         -75.7497         estimate D2E/DX2                !
 ! D68   D(22,10,11,23)         46.9624         estimate D2E/DX2                !
 ! D69   D(22,10,11,24)        163.8786         estimate D2E/DX2                !
 ! D70   D(8,12,13,14)          31.4062         estimate D2E/DX2                !
 ! D71   D(8,12,13,25)         153.2303         estimate D2E/DX2                !
 ! D72   D(8,12,13,26)         -87.1379         estimate D2E/DX2                !
 ! D73   D(12,13,14,15)        -36.9187         estimate D2E/DX2                !
 ! D74   D(12,13,14,27)       -157.094          estimate D2E/DX2                !
 ! D75   D(12,13,14,28)         79.4473         estimate D2E/DX2                !
 ! D76   D(25,13,14,15)       -157.001          estimate D2E/DX2                !
 ! D77   D(25,13,14,27)         82.8237         estimate D2E/DX2                !
 ! D78   D(25,13,14,28)        -40.635          estimate D2E/DX2                !
 ! D79   D(26,13,14,15)         79.2827         estimate D2E/DX2                !
 ! D80   D(26,13,14,27)        -40.8925         estimate D2E/DX2                !
 ! D81   D(26,13,14,28)       -164.3513         estimate D2E/DX2                !
 ! D82   D(13,14,15,8)          27.1077         estimate D2E/DX2                !
 ! D83   D(27,14,15,8)         149.0124         estimate D2E/DX2                !
 ! D84   D(28,14,15,8)         -91.6272         estimate D2E/DX2                !
 --------------------------------------------------------------------------------
 Trust Radius=3.00D-01 FncErr=1.00D-07 GrdErr=1.00D-06 EigMax=2.50D+02 EigMin=1.00D-04
 Number of steps in this run=    168 maximum allowed number of steps=    168.
 GradGradGradGradGradGradGradGradGradGradGradGradGradGradGradGradGradGrad

                          Input orientation:                          
 ---------------------------------------------------------------------
 Center     Atomic      Atomic             Coordinates (Angstroms)
 Number     Number       Type             X           Y           Z
 ---------------------------------------------------------------------
      1         35           0       -1.935600    4.344000    0.309000
      2          6           0       -1.815800    2.465100    0.135200
      3          6           0       -2.963600    1.720100   -0.109200
      4          6           0       -2.870400    0.334700   -0.235900
      5          6           0       -1.628800   -0.314900   -0.128500
      6          6           0       -0.463200    0.439400    0.129300
      7          6           0       -0.577100    1.837300    0.253900
      8          6           0        0.900400   -0.228000    0.226700
      9          6           0        0.793600   -1.733100    0.510900
     10          6           0       -0.197900   -2.393800   -0.438700
     11          6           0       -1.596200   -1.821900   -0.227300
     12          8           0        1.682400    0.371000    1.276700
     13          6           0        2.973100    0.564400    0.702200
     14          6           0        2.678700    0.812200   -0.750900
     15          8           0        1.584400   -0.057600   -1.031400
     16          1           0       -3.932100    2.203900   -0.199000
     17          1           0       -3.775200   -0.241900   -0.418100
     18          1           0        0.310600    2.433500    0.449800
     19          1           0        1.775300   -2.208200    0.392600
     20          1           0        0.488400   -1.904600    1.551500
     21          1           0       -0.215400   -3.476900   -0.272800
     22          1           0        0.117000   -2.236900   -1.477800
     23          1           0       -2.240200   -2.155000   -1.050000
     24          1           0       -2.013000   -2.228200    0.703100
     25          1           0        3.492200    1.395200    1.186600
     26          1           0        3.552800   -0.353900    0.844900
     27          1           0        3.524900    0.592200   -1.406600
     28          1           0        2.350700    1.842100   -0.926100
 ---------------------------------------------------------------------
                    Distance matrix (angstroms):
                    1          2          3          4          5
     1  Br   0.000000
     2  C    1.890720   0.000000
     3  C    2.848952   1.390036   0.000000
     4  C    4.152740   2.405930   1.394300   0.000000
     5  C    4.689444   2.798733   2.433781   1.405377   0.000000
     6  C    4.176859   2.435780   2.819410   2.436995   1.412109
     7  C    2.851684   1.393772   2.416808   2.785128   2.425751
     8  C    5.380786   3.826082   4.340325   3.840516   2.555498
     9  C    6.664866   4.957318   5.140590   4.272985   2.878914
    10  C    6.998329   5.153239   4.968082   3.824669   2.542739
    11  C    6.198478   4.307900   3.798617   2.504912   1.510587
    12  O    5.459954   4.233873   5.032505   4.797631   3.661843
    13  C    6.207682   5.183407   6.102329   5.922777   4.758226
    14  C    5.906671   4.870091   5.750792   5.593366   4.495808
    15  O    5.793199   4.391621   4.969404   4.542242   3.347549
    16  H    2.970539   2.158388   1.086333   2.149995   3.413871
    17  H    4.994325   3.387217   2.145590   1.088268   2.167079
    18  H    2.952160   2.149779   3.397323   3.872197   3.413123
    19  H    7.530544   5.899321   6.175801   5.333281   3.929889
    20  H    6.816494   5.139019   5.273773   4.414839   3.135615
    21  H    8.028951   6.167261   5.881171   4.645286   3.466521
    22  H    7.121381   5.333506   5.198174   4.132796   2.926177
    23  H    6.646553   4.788542   4.052754   2.694163   2.146844
    24  H    6.584460   4.731645   4.141563   2.860998   2.121293
    25  H    6.239120   5.515885   6.592572   6.605365   5.556849
    26  H    7.244307   6.105105   6.904727   6.549794   5.272382
    27  H    6.843709   5.865831   6.712379   6.506666   5.386742
    28  H    5.114425   4.344446   5.378103   5.478003   4.596220
                    6          7          8          9         10
     6  C    0.000000
     7  C    1.408056   0.000000
     8  C    1.521287   2.539530   0.000000
     9  C    2.538685   3.833096   1.535416   0.000000
    10  C    2.901729   4.304149   2.517878   1.523593   0.000000
    11  C    2.554277   3.828820   2.996606   2.502792   1.525452
    12  O    2.434092   2.881232   1.439731   2.409077   3.757957
    13  C    3.485971   3.798048   2.269379   3.172589   4.484177
    14  C    3.284093   3.558186   2.280366   3.409442   4.318649
    15  O    2.405597   3.148766   1.442119   2.410675   2.997619
    16  H    3.905702   3.405222   5.426639   6.191621   5.927947
    17  H    3.425370   3.873306   4.719872   4.894962   4.174706
    18  H    2.162850   1.087126   2.735182   4.194947   4.934656
    19  H    3.477067   4.681783   2.171213   1.097019   2.149192
    20  H    2.902160   4.101326   2.176195   1.097911   2.161301
    21  H    3.944679   5.352472   3.471291   2.161737   1.095872
    22  H    3.175214   4.481034   2.748584   2.160215   1.097045
    23  H    3.358480   4.517136   3.899572   3.437783   2.145158
    24  H    3.138027   4.334960   3.565902   2.856408   2.150748
    25  H    4.204358   4.198164   3.205248   4.186320   5.533079
    26  H    4.155679   4.712400   2.726398   3.102730   4.458315
    27  H    4.276363   4.597166   3.198187   4.067410   4.869524
    28  H    3.316545   3.156649   2.778063   4.155910   4.967471
                   11         12         13         14         15
    11  C    0.000000
    12  O    4.221379   0.000000
    13  C    5.238024   1.425959   0.000000
    14  C    5.048506   2.301833   1.503189   0.000000
    15  O    3.724990   2.349602   2.306673   1.425737   0.000000
    16  H    4.654492   6.087678   7.154153   6.778208   6.019887
    17  H    2.698304   5.747468   6.888015   6.547878   5.397723
    18  H    4.711983   2.611418   3.262843   3.110979   3.165770
    19  H    3.449712   2.728101   3.036097   3.353586   2.586368
    20  H    2.741628   2.584474   3.604304   4.180845   3.359166
    21  H    2.155853   4.561681   5.239204   5.196227   3.937812
    22  H    2.161256   4.103522   4.555984   4.048173   2.664936
    23  H    1.096598   5.213540   6.135457   5.752331   4.361995
    24  H    1.097473   4.554211   5.714876   5.776694   4.545468
    25  H    6.183903   2.081461   1.092857   2.180729   3.266474
    26  H    5.460480   2.051908   1.095304   2.161115   2.735488
    27  H    5.783104   3.262489   2.179976   1.092885   2.080518
    28  H    5.430583   2.731865   2.161310   1.094976   2.051137
                   16         17         18         19         20
    16  H    0.000000
    17  H    2.460602   0.000000
    18  H    4.298158   4.960320   0.000000
    19  H    7.238165   5.944041   4.867648   0.000000
    20  H    6.283697   4.982186   4.479338   1.758219   0.000000
    21  H    6.789020   4.812329   5.977596   2.452599   2.509090
    22  H    6.144204   4.500246   5.056259   2.499836   3.070020
    23  H    4.752550   2.532879   5.459882   4.267103   3.778328
    24  H    4.913272   2.882330   5.214856   3.801056   2.661109
    25  H    7.595664   7.620385   3.426882   4.069726   4.477125
    26  H    7.978458   7.436888   4.293898   2.608162   3.506352
    27  H    7.724165   7.413792   4.143468   3.760380   4.919827
    28  H    6.335073   6.490591   2.530783   4.298254   4.862553
                   21         22         23         24         25
    21  H    0.000000
    22  H    1.760714   0.000000
    23  H    2.539936   2.397105   0.000000
    24  H    2.396455   3.048492   1.769276   0.000000
    25  H    6.293926   5.628779   7.103992   6.608330   0.000000
    26  H    5.020131   4.554706   6.355585   5.874627   1.783194
    27  H    5.642067   4.429747   6.396143   6.563065   2.714878
    28  H    5.941669   4.683164   6.088392   6.185751   2.442589
                   26         27         28
    26  H    0.000000
    27  H    2.442363   0.000000
    28  H    3.066578   1.780976   0.000000
 Stoichiometry    C12H13BrO2
 Framework group  C1[X(C12H13BrO2)]
 Deg. of freedom    78
 Full point group                 C1      NOp   1
 Largest Abelian subgroup         C1      NOp   1
 Largest concise Abelian subgroup C1      NOp   1
                         Standard orientation:                         
 ---------------------------------------------------------------------
 Center     Atomic      Atomic             Coordinates (Angstroms)
 Number     Number       Type             X           Y           Z
 ---------------------------------------------------------------------
      1         35           0       -3.453831   -0.563125   -0.019686
      2          6           0       -1.817309    0.383680   -0.006280
      3          6           0       -1.822669    1.769465    0.102216
      4          6           0       -0.613353    2.463403    0.110949
      5          6           0        0.609732    1.777112    0.020646
      6          6           0        0.616657    0.370122   -0.099288
      7          6           0       -0.614428   -0.313258   -0.106059
      8          6           0        1.922471   -0.406788   -0.173948
      9          6           0        3.103861    0.478329   -0.596304
     10          6           0        3.143751    1.757671    0.230152
     11          6           0        1.885534    2.585251   -0.012755
     12          8           0        1.813866   -1.488189   -1.118195
     13          6           0        2.390742   -2.609745   -0.452849
     14          6           0        2.081208   -2.357507    0.996337
     15          8           0        2.210756   -0.944247    1.132856
     16          1           0       -2.757416    2.317947    0.176614
     17          1           0       -0.626889    3.548924    0.187024
     18          1           0       -0.627221   -1.396660   -0.195038
     19          1           0        4.047200   -0.065350   -0.462235
     20          1           0        3.035018    0.723147   -1.664355
     21          1           0        4.028331    2.349118   -0.031849
     22          1           0        3.230047    1.512645    1.295996
     23          1           0        1.839982    3.383923    0.737294
     24          1           0        1.954785    3.062273   -0.998707
     25          1           0        1.966987   -3.543889   -0.829869
     26          1           0        3.469644   -2.602432   -0.641551
     27          1           0        2.759356   -2.875318    1.679260
     28          1           0        1.050078   -2.631855    1.242259
 ---------------------------------------------------------------------
 Rotational constants (GHZ):           0.7725535           0.2860299           0.2220589
 Standard basis: def2TZVP (5D, 7F)
 There are   637 symmetry adapted cartesian basis functions of A   symmetry.
 There are   560 symmetry adapted basis functions of A   symmetry.
   560 basis functions,   932 primitive gaussians,   637 cartesian basis functions
    68 alpha electrons       68 beta electrons
       nuclear repulsion energy      1327.4252313570 Hartrees.
 NAtoms=   28 NActive=   28 NUniq=   28 SFac= 1.00D+00 NAtFMM=   60 NAOKFM=F Big=F
 Integral buffers will be    131072 words long.
 Raffenetti 2 integral format.
 Two-electron integral symmetry is turned on.
 Nuclear repulsion after empirical dispersion term =     1327.4035479846 Hartrees.
 One-electron integrals computed using PRISM.
   1 Symmetry operations used in ECPInt.
 ECPInt:  NShTT=   24753 NPrTT=   79416 LenC2=   23153 LenP2D=   54455.
 LDataN:  DoStor=T MaxTD1= 6 Len=  172
 NBasis=   560 RedAO= T EigKep=  5.86D-06  NBF=   560
 NBsUse=   560 1.00D-06 EigRej= -1.00D+00 NBFU=   560
 ExpMin= 9.52D-02 ExpMax= 5.65D+05 ExpMxC= 5.46D+03 IAcc=3 IRadAn=         5 AccDes= 0.00D+00
 Harris functional with IExCor= 4639 and IRadAn=       5 diagonalized for initial guess.
 HarFok:  IExCor= 4639 AccDes= 0.00D+00 IRadAn=         5 IDoV= 1 UseB2=F ITyADJ=14
 ICtDFT=  3500011 ScaDFX=  1.000000  1.000000  1.000000  1.000000
 FoFCou: FMM=F IPFlag=           0 FMFlag=      100000 FMFlg1=           0
         NFxFlg=           0 DoJE=T BraDBF=F KetDBF=T FulRan=T
         wScrn=  0.000000 ICntrl=       500 IOpCl=  0 I1Cent=   200000004 NGrid=           0
         NMat0=    1 NMatS0=      1 NMatT0=    0 NMatD0=    1 NMtDS0=    0 NMtDT0=    0
 Petite list used in FoFCou.
 Requested convergence on RMS density matrix=1.00D-08 within 128 cycles.
 Requested convergence on MAX density matrix=1.00D-06.
 Requested convergence on             energy=1.00D-06.
 No special actions if energy rises.
 Integral accuracy reduced to 1.0D-05 until final iterations.
 Problem detected with inexpensive integrals.
 Switching to full accuracy and repeating last cycle.
 SCF Done:  E(RwB97XD) =  -3189.79008271     A.U. after   17 cycles
            NFock= 17  Conv=0.95D-08     -V/T= 2.0022

 **********************************************************************

            Population analysis using the SCF Density.

 **********************************************************************

 Orbital symmetries:
       Occupied  (A) (A) (A) (A) (A) (A) (A) (A) (A) (A) (A) (A)
                 (A) (A) (A) (A) (A) (A) (A) (A) (A) (A) (A) (A)
                 (A) (A) (A) (A) (A) (A) (A) (A) (A) (A) (A) (A)
                 (A) (A) (A) (A) (A) (A) (A) (A) (A) (A) (A) (A)
                 (A) (A) (A) (A) (A) (A) (A) (A) (A) (A) (A) (A)
                 (A) (A) (A) (A) (A) (A) (A) (A)
       Virtual   (A) (A) (A) (A) (A) (A) (A) (A) (A) (A) (A) (A)
                 (A) (A) (A) (A) (A) (A) (A) (A) (A) (A) (A) (A)
                 (A) (A) (A) (A) (A) (A) (A) (A) (A) (A) (A) (A)
                 (A) (A) (A) (A) (A) (A) (A) (A) (A) (A) (A) (A)
                 (A) (A) (A) (A) (A) (A) (A) (A) (A) (A) (A) (A)
                 (A) (A) (A) (A) (A) (A) (A) (A) (A) (A) (A) (A)
                 (A) (A) (A) (A) (A) (A) (A) (A) (A) (A) (A) (A)
                 (A) (A) (A) (A) (A) (A) (A) (A) (A) (A) (A) (A)
                 (A) (A) (A) (A) (A) (A) (A) (A) (A) (A) (A) (A)
                 (A) (A) (A) (A) (A) (A) (A) (A) (A) (A) (A) (A)
                 (A) (A) (A) (A) (A) (A) (A) (A) (A) (A) (A) (A)
                 (A) (A) (A) (A) (A) (A) (A) (A) (A) (A) (A) (A)
                 (A) (A) (A) (A) (A) (A) (A) (A) (A) (A) (A) (A)
                 (A) (A) (A) (A) (A) (A) (A) (A) (A) (A) (A) (A)
                 (A) (A) (A) (A) (A) (A) (A) (A) (A) (A) (A) (A)
                 (A) (A) (A) (A) (A) (A) (A) (A) (A) (A) (A) (A)
                 (A) (A) (A) (A) (A) (A) (A) (A) (A) (A) (A) (A)
                 (A) (A) (A) (A) (A) (A) (A) (A) (A) (A) (A) (A)
                 (A) (A) (A) (A) (A) (A) (A) (A) (A) (A) (A) (A)
                 (A) (A) (A) (A) (A) (A) (A) (A) (A) (A) (A) (A)
                 (A) (A) (A) (A) (A) (A) (A) (A) (A) (A) (A) (A)
                 (A) (A) (A) (A) (A) (A) (A) (A) (A) (A) (A) (A)
                 (A) (A) (A) (A) (A) (A) (A) (A) (A) (A) (A) (A)
                 (A) (A) (A) (A) (A) (A) (A) (A) (A) (A) (A) (A)
                 (A) (A) (A) (A) (A) (A) (A) (A) (A) (A) (A) (A)
                 (A) (A) (A) (A) (A) (A) (A) (A) (A) (A) (A) (A)
                 (A) (A) (A) (A) (A) (A) (A) (A) (A) (A) (A) (A)
                 (A) (A) (A) (A) (A) (A) (A) (A) (A) (A) (A) (A)
                 (A) (A) (A) (A) (A) (A) (A) (A) (A) (A) (A) (A)
                 (A) (A) (A) (A) (A) (A) (A) (A) (A) (A) (A) (A)
                 (A) (A) (A) (A) (A) (A) (A) (A) (A) (A) (A) (A)
                 (A) (A) (A) (A) (A) (A) (A) (A) (A) (A) (A) (A)
                 (A) (A) (A) (A) (A) (A) (A) (A) (A) (A) (A) (A)
                 (A) (A) (A) (A) (A) (A) (A) (A) (A) (A) (A) (A)
                 (A) (A) (A) (A) (A) (A) (A) (A) (A) (A) (A) (A)
                 (A) (A) (A) (A) (A) (A) (A) (A) (A) (A) (A) (A)
                 (A) (A) (A) (A) (A) (A) (A) (A) (A) (A) (A) (A)
                 (A) (A) (A) (A) (A) (A) (A) (A) (A) (A) (A) (A)
                 (A) (A) (A) (A) (A) (A) (A) (A) (A) (A) (A) (A)
                 (A) (A) (A) (A) (A) (A) (A) (A) (A) (A) (A) (A)
                 (A) (A) (A) (A) (A) (A) (A) (A) (A) (A) (A) (A)
 The electronic state is 1-A.
 Alpha  occ. eigenvalues -- -483.12531 -62.67373 -56.46487 -56.46133 -56.46127
 Alpha  occ. eigenvalues --  -19.26921 -19.26702 -10.40116 -10.34407 -10.34121
 Alpha  occ. eigenvalues --  -10.34044 -10.30737 -10.30546 -10.30143 -10.30068
 Alpha  occ. eigenvalues --  -10.29721 -10.29040 -10.28410 -10.28387  -8.81491
 Alpha  occ. eigenvalues --   -6.63646  -6.62507  -6.62486  -2.74041  -2.73701
 Alpha  occ. eigenvalues --   -2.73687  -2.72765  -2.72765  -1.19684  -1.10490
 Alpha  occ. eigenvalues --   -0.98179  -0.93614  -0.89584  -0.88113  -0.84876
 Alpha  occ. eigenvalues --   -0.82887  -0.79226  -0.73588  -0.72860  -0.71096
 Alpha  occ. eigenvalues --   -0.69522  -0.64335  -0.61640  -0.60331  -0.58237
 Alpha  occ. eigenvalues --   -0.57359  -0.56982  -0.53765  -0.53343  -0.52175
 Alpha  occ. eigenvalues --   -0.51511  -0.50232  -0.49514  -0.49269  -0.46781
 Alpha  occ. eigenvalues --   -0.46569  -0.45382  -0.44409  -0.44095  -0.42773
 Alpha  occ. eigenvalues --   -0.41497  -0.40751  -0.39089  -0.37044  -0.36894
 Alpha  occ. eigenvalues --   -0.34417  -0.33306  -0.31019
 Alpha virt. eigenvalues --    0.03960   0.04706   0.07839   0.10921   0.11827
 Alpha virt. eigenvalues --    0.13751   0.14263   0.15065   0.15337   0.16212
 Alpha virt. eigenvalues --    0.16265   0.17556   0.18007   0.18654   0.19046
 Alpha virt. eigenvalues --    0.20138   0.20708   0.21229   0.22025   0.22638
 Alpha virt. eigenvalues --    0.23412   0.24054   0.25109   0.25710   0.26459
 Alpha virt. eigenvalues --    0.26856   0.27600   0.28340   0.28491   0.28539
 Alpha virt. eigenvalues --    0.29604   0.30155   0.30601   0.31922   0.32463
 Alpha virt. eigenvalues --    0.32623   0.32953   0.33929   0.34392   0.35165
 Alpha virt. eigenvalues --    0.36134   0.36620   0.37024   0.38127   0.38684
 Alpha virt. eigenvalues --    0.38919   0.40645   0.41041   0.41677   0.42802
 Alpha virt. eigenvalues --    0.43053   0.43769   0.44051   0.44483   0.45139
 Alpha virt. eigenvalues --    0.46268   0.46426   0.47107   0.47900   0.48410
 Alpha virt. eigenvalues --    0.48962   0.49275   0.49534   0.49693   0.50141
 Alpha virt. eigenvalues --    0.50504   0.51428   0.51923   0.52678   0.52974
 Alpha virt. eigenvalues --    0.53404   0.53575   0.54983   0.55216   0.55903
 Alpha virt. eigenvalues --    0.56919   0.57490   0.58668   0.59769   0.59865
 Alpha virt. eigenvalues --    0.60635   0.60931   0.61962   0.62767   0.63847
 Alpha virt. eigenvalues --    0.64700   0.66423   0.67451   0.68054   0.69204
 Alpha virt. eigenvalues --    0.71125   0.71858   0.73416   0.74648   0.75608
 Alpha virt. eigenvalues --    0.76159   0.77040   0.78179   0.78825   0.79277
 Alpha virt. eigenvalues --    0.79984   0.81298   0.81961   0.82742   0.84032
 Alpha virt. eigenvalues --    0.85743   0.85907   0.87490   0.88160   0.90041
 Alpha virt. eigenvalues --    0.91261   0.92167   0.92728   0.93906   0.94043
 Alpha virt. eigenvalues --    0.94630   0.96138   0.96717   0.97044   0.97947
 Alpha virt. eigenvalues --    0.99003   1.00215   1.00778   1.01442   1.02470
 Alpha virt. eigenvalues --    1.04383   1.05740   1.07216   1.07925   1.08402
 Alpha virt. eigenvalues --    1.10082   1.11767   1.13172   1.13740   1.15074
 Alpha virt. eigenvalues --    1.16410   1.17714   1.18947   1.19554   1.20150
 Alpha virt. eigenvalues --    1.21494   1.21780   1.22435   1.23539   1.24807
 Alpha virt. eigenvalues --    1.27050   1.27877   1.29094   1.29837   1.30838
 Alpha virt. eigenvalues --    1.31148   1.32129   1.33389   1.34010   1.35247
 Alpha virt. eigenvalues --    1.36288   1.37877   1.38794   1.41715   1.41942
 Alpha virt. eigenvalues --    1.43982   1.44454   1.45220   1.46189   1.47108
 Alpha virt. eigenvalues --    1.48615   1.49263   1.50910   1.51672   1.52764
 Alpha virt. eigenvalues --    1.54612   1.55207   1.57205   1.58990   1.59025
 Alpha virt. eigenvalues --    1.60073   1.61630   1.62609   1.62813   1.63770
 Alpha virt. eigenvalues --    1.64598   1.65984   1.66501   1.67090   1.67814
 Alpha virt. eigenvalues --    1.68352   1.68779   1.70267   1.71787   1.72126
 Alpha virt. eigenvalues --    1.72807   1.72923   1.73621   1.74645   1.74810
 Alpha virt. eigenvalues --    1.76017   1.77821   1.78906   1.79716   1.80277
 Alpha virt. eigenvalues --    1.81816   1.82534   1.83777   1.85057   1.87112
 Alpha virt. eigenvalues --    1.87431   1.88151   1.89650   1.90495   1.91628
 Alpha virt. eigenvalues --    1.93862   1.94831   1.95685   1.97268   1.97869
 Alpha virt. eigenvalues --    1.98812   1.99899   2.00968   2.01783   2.02929
 Alpha virt. eigenvalues --    2.04870   2.06131   2.07133   2.08551   2.09793
 Alpha virt. eigenvalues --    2.11557   2.12595   2.13462   2.13703   2.14666
 Alpha virt. eigenvalues --    2.17331   2.17561   2.20277   2.22223   2.23685
 Alpha virt. eigenvalues --    2.24605   2.25832   2.27149   2.27976   2.29655
 Alpha virt. eigenvalues --    2.31830   2.32477   2.34056   2.34581   2.36903
 Alpha virt. eigenvalues --    2.37563   2.38515   2.39949   2.41083   2.44103
 Alpha virt. eigenvalues --    2.44970   2.45133   2.46924   2.50011   2.51788
 Alpha virt. eigenvalues --    2.54571   2.55021   2.55386   2.56975   2.57625
 Alpha virt. eigenvalues --    2.58191   2.59701   2.60357   2.62432   2.63716
 Alpha virt. eigenvalues --    2.64316   2.66017   2.66740   2.68316   2.68523
 Alpha virt. eigenvalues --    2.69437   2.70432   2.71543   2.73047   2.73516
 Alpha virt. eigenvalues --    2.74378   2.75455   2.76013   2.76614   2.76841
 Alpha virt. eigenvalues --    2.77954   2.79237   2.81066   2.81488   2.82173
 Alpha virt. eigenvalues --    2.82982   2.84831   2.85717   2.87259   2.88009
 Alpha virt. eigenvalues --    2.89213   2.89962   2.90483   2.91653   2.92737
 Alpha virt. eigenvalues --    2.93548   2.94297   2.95822   2.97012   2.97774
 Alpha virt. eigenvalues --    3.00039   3.00528   3.01751   3.02265   3.04493
 Alpha virt. eigenvalues --    3.06052   3.08415   3.08840   3.09877   3.11167
 Alpha virt. eigenvalues --    3.12439   3.13754   3.14594   3.16320   3.16817
 Alpha virt. eigenvalues --    3.17862   3.19891   3.20531   3.21499   3.23031
 Alpha virt. eigenvalues --    3.23676   3.25094   3.25640   3.27018   3.27689
 Alpha virt. eigenvalues --    3.28464   3.30258   3.30835   3.31703   3.33132
 Alpha virt. eigenvalues --    3.33548   3.34003   3.35743   3.36816   3.37231
 Alpha virt. eigenvalues --    3.38042   3.39352   3.40757   3.40887   3.41434
 Alpha virt. eigenvalues --    3.43863   3.45145   3.46173   3.46772   3.47501
 Alpha virt. eigenvalues --    3.48160   3.48782   3.49367   3.50380   3.51971
 Alpha virt. eigenvalues --    3.52399   3.54120   3.54990   3.55488   3.55880
 Alpha virt. eigenvalues --    3.57327   3.57781   3.59201   3.59948   3.60411
 Alpha virt. eigenvalues --    3.62546   3.63581   3.64640   3.64768   3.65580
 Alpha virt. eigenvalues --    3.67119   3.69222   3.70747   3.72427   3.73084
 Alpha virt. eigenvalues --    3.75009   3.76534   3.77644   3.78644   3.82742
 Alpha virt. eigenvalues --    3.83026   3.85170   3.86905   3.88651   3.90569
 Alpha virt. eigenvalues --    3.91193   3.92915   3.94009   3.95497   3.99499
 Alpha virt. eigenvalues --    4.01526   4.03331   4.03752   4.07238   4.08127
 Alpha virt. eigenvalues --    4.09665   4.10769   4.11022   4.11923   4.13736
 Alpha virt. eigenvalues --    4.15171   4.17399   4.19087   4.19408   4.21656
 Alpha virt. eigenvalues --    4.22019   4.22864   4.26347   4.27470   4.28237
 Alpha virt. eigenvalues --    4.30045   4.30779   4.31816   4.33714   4.34259
 Alpha virt. eigenvalues --    4.36592   4.38008   4.39452   4.40425   4.42121
 Alpha virt. eigenvalues --    4.44909   4.46102   4.47690   4.49407   4.50831
 Alpha virt. eigenvalues --    4.52467   4.53589   4.55245   4.59439   4.61580
 Alpha virt. eigenvalues --    4.61965   4.64931   4.70580   4.75423   4.75796
 Alpha virt. eigenvalues --    4.77888   4.78408   4.79248   4.82025   4.85014
 Alpha virt. eigenvalues --    4.86868   4.90352   4.92020   4.95991   4.98645
 Alpha virt. eigenvalues --    5.01729   5.07100   5.09004   5.12808   5.17903
 Alpha virt. eigenvalues --    5.23047   5.26346   5.30623   5.34676   5.47324
 Alpha virt. eigenvalues --    5.49602   5.53642   5.56221   5.60225   5.65411
 Alpha virt. eigenvalues --    5.70151   5.77136   5.79214   5.90472   5.92316
 Alpha virt. eigenvalues --    5.94320   5.95942   5.96914   6.14143   6.24498
 Alpha virt. eigenvalues --    6.31896   6.36645   6.82487   6.83156   6.90489
 Alpha virt. eigenvalues --    7.00452   7.02515   7.12160   7.27305   7.31229
 Alpha virt. eigenvalues --    7.39888   7.46851   7.87379  22.21565  22.53812
 Alpha virt. eigenvalues --   22.59374  22.62903  22.67248  22.71853  22.77506
 Alpha virt. eigenvalues --   22.86596  22.92631  22.93659  23.02799  23.53923
 Alpha virt. eigenvalues --   44.43559  44.51073
          Condensed to atoms (all electrons):
               1          2          3          4          5          6
     1  Br  34.844686   0.366667  -0.081648   0.018262  -0.001197   0.019531
     2  C    0.366667   5.015072   0.296833   0.123248  -0.117873   0.116355
     3  C   -0.081648   0.296833   5.165567   0.318612   0.076109  -0.148537
     4  C    0.018262   0.123248   0.318612   5.213822   0.322726   0.058422
     5  C   -0.001197  -0.117873   0.076109   0.322726   5.279703   0.350475
     6  C    0.019531   0.116355  -0.148537   0.058422   0.350475   5.775828
     7  C   -0.090283   0.236438   0.110720  -0.192364   0.020893   0.030730
     8  C   -0.001415  -0.006121  -0.000145   0.005640  -0.079680   0.181032
     9  C    0.000010  -0.000448   0.000331  -0.003509  -0.026532  -0.026946
    10  C   -0.000002   0.000377  -0.000712   0.011451  -0.017666  -0.007257
    11  C    0.000001  -0.003934   0.008952  -0.071092   0.305648  -0.115850
    12  O    0.000034   0.002948   0.000361   0.000037  -0.010017  -0.144077
    13  C    0.000034   0.000091  -0.000063   0.000006   0.000268   0.006612
    14  C   -0.000094  -0.000508  -0.000014   0.000156   0.003085   0.032377
    15  O    0.000026  -0.002017   0.000736  -0.001279   0.001997  -0.024772
    16  H   -0.004307  -0.073026   0.457925  -0.067930   0.014666  -0.005928
    17  H   -0.000297   0.010473  -0.058727   0.453538  -0.072520   0.020600
    18  H   -0.003308  -0.066959   0.017031  -0.005389   0.009702  -0.092851
    19  H   -0.000000  -0.000023   0.000016   0.000010   0.000022   0.011849
    20  H   -0.000001   0.000135  -0.000109   0.000528  -0.011534   0.009153
    21  H    0.000000  -0.000004   0.000024  -0.001142   0.011777   0.001203
    22  H   -0.000000  -0.000009  -0.000051   0.000909  -0.006997   0.002606
    23  H   -0.000001   0.000083   0.000426  -0.002483  -0.043929   0.007572
    24  H   -0.000003   0.000446  -0.000735   0.002579  -0.042839  -0.004790
    25  H   -0.000002  -0.000135  -0.000008   0.000005   0.000265   0.004550
    26  H   -0.000000   0.000052   0.000009  -0.000024  -0.000557  -0.002854
    27  H    0.000001  -0.000020   0.000009  -0.000016  -0.000038  -0.002284
    28  H    0.000099   0.000800  -0.000001  -0.000026   0.000478  -0.002212
               7          8          9         10         11         12
     1  Br  -0.090283  -0.001415   0.000010  -0.000002   0.000001   0.000034
     2  C    0.236438  -0.006121  -0.000448   0.000377  -0.003934   0.002948
     3  C    0.110720  -0.000145   0.000331  -0.000712   0.008952   0.000361
     4  C   -0.192364   0.005640  -0.003509   0.011451  -0.071092   0.000037
     5  C    0.020893  -0.079680  -0.026532  -0.017666   0.305648  -0.010017
     6  C    0.030730   0.181032  -0.026946  -0.007257  -0.115850  -0.144077
     7  C    5.680599  -0.040224   0.026151  -0.007445   0.016134   0.058872
     8  C   -0.040224   4.744152   0.311276  -0.030323   0.000770   0.305429
     9  C    0.026151   0.311276   4.984552   0.283335  -0.038700  -0.018574
    10  C   -0.007445  -0.030323   0.283335   4.939250   0.322594   0.009291
    11  C    0.016134   0.000770  -0.038700   0.322594   4.992143  -0.002269
    12  O    0.058872   0.305429  -0.018574   0.009291  -0.002269   8.024491
    13  C   -0.004567  -0.049974   0.005326  -0.000164   0.000053   0.282332
    14  C   -0.010144  -0.059448   0.000880   0.000917   0.000031  -0.072002
    15  O    0.011640   0.203846  -0.031475  -0.001011  -0.006683  -0.030465
    16  H    0.021112   0.000123  -0.000009   0.000007  -0.000022  -0.000000
    17  H   -0.003233  -0.000003   0.000079   0.000446  -0.007040   0.000008
    18  H    0.457280   0.016534   0.001190  -0.000359   0.000062   0.010528
    19  H   -0.000810  -0.010483   0.378083  -0.030694   0.010594  -0.002626
    20  H   -0.000055  -0.052929   0.434890  -0.041512   0.003624   0.002081
    21  H    0.000422   0.008546  -0.034005   0.418311  -0.049049  -0.000321
    22  H   -0.000212  -0.008111  -0.031961   0.410708  -0.020555   0.000405
    23  H   -0.000450  -0.002062   0.011898  -0.034710   0.411232   0.000009
    24  H   -0.000385  -0.003453  -0.005585  -0.022810   0.404998   0.000075
    25  H   -0.002527  -0.004632   0.000285   0.000056   0.000026  -0.026014
    26  H    0.002434   0.036107  -0.008240  -0.001473   0.000047  -0.054285
    27  H    0.000959   0.002027   0.000472  -0.000011   0.000031   0.004463
    28  H   -0.002885   0.023158  -0.000606  -0.000398   0.000051  -0.000232
              13         14         15         16         17         18
     1  Br   0.000034  -0.000094   0.000026  -0.004307  -0.000297  -0.003308
     2  C    0.000091  -0.000508  -0.002017  -0.073026   0.010473  -0.066959
     3  C   -0.000063  -0.000014   0.000736   0.457925  -0.058727   0.017031
     4  C    0.000006   0.000156  -0.001279  -0.067930   0.453538  -0.005389
     5  C    0.000268   0.003085   0.001997   0.014666  -0.072520   0.009702
     6  C    0.006612   0.032377  -0.024772  -0.005928   0.020600  -0.092851
     7  C   -0.004567  -0.010144   0.011640   0.021112  -0.003233   0.457280
     8  C   -0.049974  -0.059448   0.203846   0.000123  -0.000003   0.016534
     9  C    0.005326   0.000880  -0.031475  -0.000009   0.000079   0.001190
    10  C   -0.000164   0.000917  -0.001011   0.000007   0.000446  -0.000359
    11  C    0.000053   0.000031  -0.006683  -0.000022  -0.007040   0.000062
    12  O    0.282332  -0.072002  -0.030465  -0.000000   0.000008   0.010528
    13  C    4.763100   0.378867  -0.070055   0.000000  -0.000001  -0.003126
    14  C    0.378867   4.742861   0.294964  -0.000000  -0.000005  -0.000872
    15  O   -0.070055   0.294964   8.067953   0.000001   0.000012  -0.001109
    16  H    0.000000  -0.000000   0.000001   0.530797  -0.006919   0.000100
    17  H   -0.000001  -0.000005   0.000012  -0.006919   0.544342   0.000027
    18  H   -0.003126  -0.000872  -0.001109   0.000100   0.000027   0.519114
    19  H    0.000891   0.000047  -0.000773   0.000000  -0.000003  -0.000013
    20  H   -0.001857   0.000501   0.004591  -0.000000   0.000012  -0.000008
    21  H    0.000034  -0.000014   0.000050  -0.000000  -0.000012   0.000002
    22  H   -0.000219   0.000028   0.007717  -0.000000  -0.000015   0.000011
    23  H    0.000001  -0.000015   0.000170  -0.000030   0.002383   0.000008
    24  H   -0.000005   0.000000  -0.000066  -0.000015   0.000321   0.000017
    25  H    0.389646  -0.013139   0.004008  -0.000000  -0.000000  -0.000123
    26  H    0.396504  -0.056585   0.001412   0.000000   0.000000   0.000537
    27  H   -0.004923   0.378770  -0.025117  -0.000000   0.000000   0.000241
    28  H   -0.071616   0.425899  -0.058103  -0.000000  -0.000000   0.003011
              19         20         21         22         23         24
     1  Br  -0.000000  -0.000001   0.000000  -0.000000  -0.000001  -0.000003
     2  C   -0.000023   0.000135  -0.000004  -0.000009   0.000083   0.000446
     3  C    0.000016  -0.000109   0.000024  -0.000051   0.000426  -0.000735
     4  C    0.000010   0.000528  -0.001142   0.000909  -0.002483   0.002579
     5  C    0.000022  -0.011534   0.011777  -0.006997  -0.043929  -0.042839
     6  C    0.011849   0.009153   0.001203   0.002606   0.007572  -0.004790
     7  C   -0.000810  -0.000055   0.000422  -0.000212  -0.000450  -0.000385
     8  C   -0.010483  -0.052929   0.008546  -0.008111  -0.002062  -0.003453
     9  C    0.378083   0.434890  -0.034005  -0.031961   0.011898  -0.005585
    10  C   -0.030694  -0.041512   0.418311   0.410708  -0.034710  -0.022810
    11  C    0.010594   0.003624  -0.049049  -0.020555   0.411232   0.404998
    12  O   -0.002626   0.002081  -0.000321   0.000405   0.000009   0.000075
    13  C    0.000891  -0.001857   0.000034  -0.000219   0.000001  -0.000005
    14  C    0.000047   0.000501  -0.000014   0.000028  -0.000015   0.000000
    15  O   -0.000773   0.004591   0.000050   0.007717   0.000170  -0.000066
    16  H    0.000000  -0.000000  -0.000000  -0.000000  -0.000030  -0.000015
    17  H   -0.000003   0.000012  -0.000012  -0.000015   0.002383   0.000321
    18  H   -0.000013  -0.000008   0.000002   0.000011   0.000008   0.000017
    19  H    0.575687  -0.023585  -0.005448  -0.003086  -0.000352  -0.000012
    20  H   -0.023585   0.554791  -0.004095   0.005753   0.000082   0.002467
    21  H   -0.005448  -0.004095   0.580412  -0.025769  -0.002070  -0.006782
    22  H   -0.003086   0.005753  -0.025769   0.553578  -0.007322   0.005926
    23  H   -0.000352   0.000082  -0.002070  -0.007322   0.570723  -0.028789
    24  H   -0.000012   0.002467  -0.006782   0.005926  -0.028789   0.588859
    25  H    0.000138  -0.000056  -0.000005  -0.000001  -0.000000   0.000000
    26  H    0.000617   0.000705   0.000058   0.000066  -0.000000   0.000000
    27  H   -0.000283  -0.000077  -0.000001  -0.000132   0.000000  -0.000000
    28  H    0.000131   0.000158  -0.000000   0.000126  -0.000001  -0.000000
              25         26         27         28
     1  Br  -0.000002  -0.000000   0.000001   0.000099
     2  C   -0.000135   0.000052  -0.000020   0.000800
     3  C   -0.000008   0.000009   0.000009  -0.000001
     4  C    0.000005  -0.000024  -0.000016  -0.000026
     5  C    0.000265  -0.000557  -0.000038   0.000478
     6  C    0.004550  -0.002854  -0.002284  -0.002212
     7  C   -0.002527   0.002434   0.000959  -0.002885
     8  C   -0.004632   0.036107   0.002027   0.023158
     9  C    0.000285  -0.008240   0.000472  -0.000606
    10  C    0.000056  -0.001473  -0.000011  -0.000398
    11  C    0.000026   0.000047   0.000031   0.000051
    12  O   -0.026014  -0.054285   0.004463  -0.000232
    13  C    0.389646   0.396504  -0.004923  -0.071616
    14  C   -0.013139  -0.056585   0.378770   0.425899
    15  O    0.004008   0.001412  -0.025117  -0.058103
    16  H   -0.000000   0.000000  -0.000000  -0.000000
    17  H   -0.000000   0.000000   0.000000  -0.000000
    18  H   -0.000123   0.000537   0.000241   0.003011
    19  H    0.000138   0.000617  -0.000283   0.000131
    20  H   -0.000056   0.000705  -0.000077   0.000158
    21  H   -0.000005   0.000058  -0.000001  -0.000000
    22  H   -0.000001   0.000066  -0.000132   0.000126
    23  H   -0.000000  -0.000000   0.000000  -0.000001
    24  H    0.000000   0.000000  -0.000000  -0.000000
    25  H    0.573202  -0.041191   0.003966  -0.007231
    26  H   -0.041191   0.643934  -0.010019   0.010213
    27  H    0.003966  -0.010019   0.581328  -0.043436
    28  H   -0.007231   0.010213  -0.043436   0.632670
 Mulliken charges:
               1
     1  Br  -0.066793
     2  C    0.101056
     3  C   -0.162912
     4  C   -0.184698
     5  C    0.033563
     6  C   -0.050536
     7  C   -0.318802
     8  C    0.510363
     9  C   -0.212171
    10  C   -0.200196
    11  C   -0.161798
    12  O   -0.340481
    13  C   -0.017198
    14  C   -0.046542
    15  O   -0.346199
    16  H    0.133455
    17  H    0.116532
    18  H    0.138719
    19  H    0.100107
    20  H    0.116347
    21  H    0.107879
    22  H    0.116608
    23  H    0.117624
    24  H    0.110579
    25  H    0.118916
    26  H    0.082533
    27  H    0.114092
    28  H    0.089952
 Sum of Mulliken charges =  -0.00000
 Mulliken charges with hydrogens summed into heavy atoms:
               1
     1  Br  -0.066793
     2  C    0.101056
     3  C   -0.029457
     4  C   -0.068166
     5  C    0.033563
     6  C   -0.050536
     7  C   -0.180084
     8  C    0.510363
     9  C    0.004284
    10  C    0.024291
    11  C    0.066405
    12  O   -0.340481
    13  C    0.184251
    14  C    0.157502
    15  O   -0.346199
 Electronic spatial extent (au):  <R**2>=           4566.6307
 Charge=             -0.0000 electrons
 Dipole moment (field-independent basis, Debye):
    X=              2.5475    Y=              0.0576    Z=              0.2321  Tot=              2.5587
 Quadrupole moment (field-independent basis, Debye-Ang):
   XX=            -97.9961   YY=            -86.0020   ZZ=           -105.8925
   XY=             -3.9700   XZ=             -0.9215   YZ=             -1.8168
 Traceless Quadrupole moment (field-independent basis, Debye-Ang):
   XX=             -1.3659   YY=             10.6282   ZZ=             -9.2623
   XY=             -3.9700   XZ=             -0.9215   YZ=             -1.8168
 Octapole moment (field-independent basis, Debye-Ang**2):
  XXX=            -61.8081  YYY=            -39.3896  ZZZ=              1.0782  XYY=            -13.2048
  XXY=            -12.9810  XXZ=             -3.2129  XZZ=            -30.1083  YZZ=            -10.4671
  YYZ=              5.8643  XYZ=             -5.3742
 Hexadecapole moment (field-independent basis, Debye-Ang**3):
 XXXX=          -3386.1259 YYYY=          -1532.6833 ZZZZ=           -302.0585 XXXY=             21.2739
 XXXZ=            -11.3321 YYYX=            -24.4268 YYYZ=              5.4237 ZZZX=              8.2274
 ZZZY=             -8.6456 XXYY=           -779.0326 XXZZ=           -644.1941 YYZZ=           -327.3891
 XXYZ=             -8.1742 YYXZ=              8.9920 ZZXY=             19.5175
 N-N= 1.327403547985D+03 E-N=-1.024135270803D+04  KE= 3.182884903773D+03
   1 Symmetry operations used in ECPInt.
 ECPInt:  NShTT=   24753 NPrTT=   79416 LenC2=   23153 LenP2D=   54455.
 LDataN:  DoStor=T MaxTD1= 7 Len=  274
 Calling FoFJK, ICntrl=      2127 FMM=F ISym2X=0 I1Cent= 0 IOpClX= 0 NMat=1 NMatS=1 NMatT=0.
 ***** Axes restored to original set *****
 -------------------------------------------------------------------
 Center     Atomic                   Forces (Hartrees/Bohr)
 Number     Number              X              Y              Z
 -------------------------------------------------------------------
      1       35           0.000162546    0.001064038    0.000103210
      2        6           0.007107899   -0.012920044   -0.000959914
      3        6          -0.001883317   -0.006947550   -0.000571952
      4        6           0.012920568    0.009901547    0.001911084
      5        6           0.000944403    0.004663304    0.002403589
      6        6          -0.018302224    0.008518130    0.000156577
      7        6          -0.001766286   -0.005342274   -0.001195711
      8        6          -0.003834152   -0.013272050    0.008221128
      9        6          -0.000428326   -0.004577570   -0.004947196
     10        6          -0.001084991   -0.000675628    0.000185102
     11        6           0.001949838   -0.002398216   -0.002999118
     12        8          -0.000135048    0.005198130   -0.026575346
     13        6          -0.000161141   -0.004313899    0.008898417
     14        6          -0.004655874    0.002377279   -0.009079683
     15        8           0.008989214    0.004388966    0.020831913
     16        1           0.003387739   -0.000195897    0.000523156
     17        1           0.003808518    0.000855849    0.000243714
     18        1          -0.003205807   -0.002722727    0.000493878
     19        1          -0.000801322    0.006477739    0.000335622
     20        1          -0.000798389    0.004990076   -0.002930382
     21        1           0.000154959    0.002782629   -0.000538183
     22        1           0.000223418    0.000739244    0.003220267
     23        1          -0.001165420    0.001916216    0.004114419
     24        1          -0.000429567   -0.000161980   -0.001896132
     25        1          -0.004029214   -0.001275909    0.001058497
     26        1           0.003316229    0.001158165   -0.001967786
     27        1          -0.003464266   -0.002163065   -0.000117428
     28        1           0.003180013    0.001935497    0.001078259
 -------------------------------------------------------------------
 Cartesian Forces:  Max     0.026575346 RMS     0.006017939

 GradGradGradGradGradGradGradGradGradGradGradGradGradGradGradGradGradGrad
 Berny optimization.
 FormGI is forming the generalized inverse of G from B-inverse, IUseBI=4.
 Internal  Forces:  Max     0.015880020 RMS     0.003679768
 Search for a local minimum.
 Step number   1 out of a maximum of  168
 All quantities printed in internal units (Hartrees-Bohrs-Radians)
 Mixed Optimization -- RFO/linear search
 Second derivative matrix not updated -- first step.
 ITU=  0
     Eigenvalues ---    0.00519   0.00690   0.01083   0.01110   0.01224
     Eigenvalues ---    0.01266   0.01528   0.02068   0.02079   0.02087
     Eigenvalues ---    0.02177   0.02186   0.02200   0.02983   0.03074
     Eigenvalues ---    0.04337   0.04885   0.04925   0.04971   0.05304
     Eigenvalues ---    0.05436   0.05895   0.05956   0.06302   0.07604
     Eigenvalues ---    0.07998   0.08055   0.08099   0.09531   0.09759
     Eigenvalues ---    0.09985   0.11039   0.11118   0.11717   0.12043
     Eigenvalues ---    0.12176   0.13713   0.16000   0.16000   0.16000
     Eigenvalues ---    0.18319   0.18712   0.18844   0.21952   0.22454
     Eigenvalues ---    0.23437   0.23658   0.24676   0.25000   0.27922
     Eigenvalues ---    0.28687   0.28866   0.29750   0.30069   0.30823
     Eigenvalues ---    0.33914   0.33963   0.34011   0.34014   0.34061
     Eigenvalues ---    0.34143   0.34207   0.34244   0.34481   0.34485
     Eigenvalues ---    0.35014   0.35147   0.35240   0.36174   0.37591
     Eigenvalues ---    0.39656   0.40343   0.40956   0.41262   0.44044
     Eigenvalues ---    0.45745   0.45910   0.46937
 RFO step:  Lambda=-9.81828941D-03 EMin= 5.18654713D-03
 Linear search not attempted -- first point.
 Iteration  1 RMS(Cart)=  0.03807245 RMS(Int)=  0.00073309
 Iteration  2 RMS(Cart)=  0.00096658 RMS(Int)=  0.00029821
 Iteration  3 RMS(Cart)=  0.00000037 RMS(Int)=  0.00029821
 Variable       Old X    -DE/DX   Delta X   Delta X   Delta X     New X
                                 (Linear)    (Quad)   (Total)
    R1        3.57294   0.00106   0.00000   0.00537   0.00537   3.57831
    R2        2.62679  -0.00649   0.00000  -0.01239  -0.01243   2.61436
    R3        2.63385  -0.01394   0.00000  -0.02892  -0.02893   2.60492
    R4        2.63484  -0.01149   0.00000  -0.02344  -0.02347   2.61138
    R5        2.05287  -0.00315   0.00000  -0.00870  -0.00870   2.04417
    R6        2.65578  -0.01248   0.00000  -0.02763  -0.02762   2.62816
    R7        2.05653  -0.00366   0.00000  -0.01017  -0.01017   2.04636
    R8        2.66850  -0.01482   0.00000  -0.03576  -0.03568   2.63282
    R9        2.85460  -0.00101   0.00000  -0.00174  -0.00174   2.85286
   R10        2.66084  -0.01588   0.00000  -0.03581  -0.03579   2.62505
   R11        2.87482  -0.00371   0.00000  -0.01522  -0.01517   2.85964
   R12        2.05437  -0.00402   0.00000  -0.01113  -0.01113   2.04324
   R13        2.90152  -0.00859   0.00000  -0.03091  -0.03093   2.87058
   R14        2.72070  -0.01279   0.00000  -0.03256  -0.03218   2.68851
   R15        2.72521  -0.00857   0.00000  -0.02091  -0.02058   2.70463
   R16        2.87917  -0.00220   0.00000  -0.00370  -0.00370   2.87547
   R17        2.07306  -0.00356   0.00000  -0.01017  -0.01017   2.06290
   R18        2.07475  -0.00333   0.00000  -0.00956  -0.00956   2.06519
   R19        2.88269  -0.00116   0.00000  -0.00119  -0.00125   2.88144
   R20        2.07090  -0.00283   0.00000  -0.00807  -0.00807   2.06283
   R21        2.07312  -0.00288   0.00000  -0.00823  -0.00823   2.06488
   R22        2.07227  -0.00298   0.00000  -0.00852  -0.00852   2.06375
   R23        2.07392  -0.00138   0.00000  -0.00396  -0.00396   2.06996
   R24        2.69467  -0.00467   0.00000  -0.01102  -0.01119   2.68348
   R25        2.84061   0.00074   0.00000   0.00100   0.00070   2.84132
   R26        2.06520  -0.00242   0.00000  -0.00681  -0.00681   2.05839
   R27        2.06982   0.00053   0.00000   0.00150   0.00150   2.07133
   R28        2.69425  -0.00563   0.00000  -0.01149  -0.01170   2.68255
   R29        2.06525  -0.00218   0.00000  -0.00614  -0.00614   2.05912
   R30        2.06921   0.00069   0.00000   0.00197   0.00197   2.07118
    A1        2.09030   0.00034   0.00000   0.00052   0.00054   2.09084
    A2        2.08990  -0.00048   0.00000  -0.00263  -0.00261   2.08729
    A3        2.10299   0.00015   0.00000   0.00211   0.00206   2.10504
    A4        2.08670  -0.00326   0.00000  -0.01159  -0.01165   2.07505
    A5        2.10832   0.00023   0.00000  -0.00245  -0.00242   2.10590
    A6        2.08816   0.00303   0.00000   0.01404   0.01407   2.10223
    A7        2.10759   0.00361   0.00000   0.01536   0.01534   2.12293
    A8        2.07841  -0.00044   0.00000   0.00036   0.00037   2.07878
    A9        2.09719  -0.00317   0.00000  -0.01572  -0.01571   2.08148
   A10        2.09011  -0.00473   0.00000  -0.01966  -0.01968   2.07043
   A11        2.06598   0.00297   0.00000   0.01518   0.01510   2.08109
   A12        2.12589   0.00178   0.00000   0.00525   0.00521   2.13110
   A13        2.07111   0.00569   0.00000   0.02241   0.02242   2.09353
   A14        2.11439   0.00225   0.00000   0.00112   0.00119   2.11558
   A15        2.09715  -0.00794   0.00000  -0.02360  -0.02367   2.07348
   A16        2.10777  -0.00147   0.00000  -0.00840  -0.00841   2.09937
   A17        2.08751   0.00122   0.00000   0.00704   0.00702   2.09453
   A18        2.08789   0.00025   0.00000   0.00133   0.00131   2.08920
   A19        1.96010  -0.00111   0.00000   0.00336   0.00331   1.96342
   A20        1.92946  -0.00184   0.00000  -0.01926  -0.01972   1.90975
   A21        1.89383   0.00252   0.00000   0.01351   0.01259   1.90642
   A22        1.88665   0.00576   0.00000   0.04765   0.04757   1.93421
   A23        1.88630   0.00130   0.00000   0.00997   0.01048   1.89678
   A24        1.90653  -0.00684   0.00000  -0.05707  -0.05697   1.84956
   A25        1.93370   0.00075   0.00000  -0.00174  -0.00174   1.93195
   A26        1.92019  -0.00385   0.00000  -0.03195  -0.03189   1.88830
   A27        1.92612  -0.00215   0.00000  -0.03124  -0.03135   1.89477
   A28        1.90428   0.00324   0.00000   0.03568   0.03549   1.93977
   A29        1.91994   0.00053   0.00000   0.00890   0.00865   1.92858
   A30        1.85805   0.00155   0.00000   0.02185   0.02075   1.87880
   A31        1.92578  -0.00107   0.00000  -0.00044  -0.00034   1.92544
   A32        1.92264   0.00113   0.00000   0.00443   0.00441   1.92705
   A33        1.91934  -0.00135   0.00000  -0.01428  -0.01433   1.90501
   A34        1.91232  -0.00000   0.00000   0.00365   0.00365   1.91596
   A35        1.91852   0.00125   0.00000   0.00263   0.00250   1.92102
   A36        1.86432   0.00010   0.00000   0.00421   0.00423   1.86855
   A37        1.98544  -0.00274   0.00000  -0.00665  -0.00670   1.97874
   A38        1.91711  -0.00038   0.00000  -0.00777  -0.00775   1.90936
   A39        1.88146   0.00075   0.00000   0.00162   0.00161   1.88307
   A40        1.89702   0.00307   0.00000   0.02650   0.02647   1.92350
   A41        1.90373   0.00095   0.00000   0.00103   0.00108   1.90481
   A42        1.87604  -0.00165   0.00000  -0.01579  -0.01585   1.86019
   A43        1.82786   0.00779   0.00000   0.04621   0.04596   1.87382
   A44        1.80755  -0.00478   0.00000  -0.02678  -0.02656   1.78099
   A45        1.93314   0.00108   0.00000  -0.02261  -0.02228   1.91086
   A46        1.88900   0.00230   0.00000   0.03753   0.03697   1.92596
   A47        1.97815   0.00112   0.00000   0.00855   0.00792   1.98607
   A48        1.94745   0.00071   0.00000  -0.00032  -0.00006   1.94739
   A49        1.90521  -0.00046   0.00000   0.00365   0.00374   1.90895
   A50        1.81310  -0.00540   0.00000  -0.02960  -0.02949   1.78361
   A51        1.97703   0.00220   0.00000   0.01092   0.01026   1.98729
   A52        1.94807  -0.00016   0.00000  -0.00195  -0.00155   1.94652
   A53        1.93204   0.00141   0.00000  -0.01940  -0.01899   1.91305
   A54        1.88854   0.00237   0.00000   0.03561   0.03506   1.92359
   A55        1.90210  -0.00048   0.00000   0.00429   0.00434   1.90644
   A56        1.83847   0.00798   0.00000   0.04934   0.04915   1.88762
    D1       -3.14099   0.00011   0.00000   0.00462   0.00456  -3.13644
    D2       -0.00328   0.00017   0.00000   0.00413   0.00413   0.00085
    D3       -0.00005  -0.00011   0.00000   0.00121   0.00118   0.00113
    D4        3.13767  -0.00005   0.00000   0.00071   0.00076   3.13842
    D5        3.14073  -0.00004   0.00000   0.00137   0.00132  -3.14113
    D6        0.00441   0.00041   0.00000   0.01033   0.01031   0.01472
    D7       -0.00021   0.00017   0.00000   0.00478   0.00469   0.00448
    D8       -3.13654   0.00063   0.00000   0.01374   0.01368  -3.12286
    D9       -0.00771   0.00006   0.00000   0.00303   0.00310  -0.00460
   D10        3.13189   0.00027   0.00000   0.00411   0.00420   3.13609
   D11        3.13772   0.00001   0.00000   0.00356   0.00357   3.14128
   D12       -0.00587   0.00022   0.00000   0.00463   0.00467  -0.00121
   D13        0.01563  -0.00013   0.00000  -0.01339  -0.01323   0.00239
   D14        3.10555   0.00039   0.00000   0.00321   0.00321   3.10876
   D15       -3.12395  -0.00034   0.00000  -0.01449  -0.01435  -3.13830
   D16       -0.03402   0.00018   0.00000   0.00210   0.00209  -0.03193
   D17       -0.01556   0.00017   0.00000   0.01888   0.01883   0.00327
   D18       -3.12207   0.00033   0.00000   0.02145   0.02133  -3.10075
   D19       -3.10365  -0.00040   0.00000   0.00144   0.00161  -3.10204
   D20        0.07302  -0.00024   0.00000   0.00401   0.00412   0.07713
   D21        2.89565  -0.00022   0.00000  -0.01048  -0.01061   2.88503
   D22        0.76498  -0.00200   0.00000  -0.03443  -0.03448   0.73050
   D23       -1.27417  -0.00025   0.00000  -0.01229  -0.01239  -1.28656
   D24       -0.29873   0.00011   0.00000   0.00571   0.00567  -0.29306
   D25       -2.42940  -0.00167   0.00000  -0.01824  -0.01819  -2.44759
   D26        1.81464   0.00008   0.00000   0.00389   0.00389   1.81853
   D27        0.00802  -0.00017   0.00000  -0.01464  -0.01472  -0.00670
   D28       -3.13884  -0.00062   0.00000  -0.02358  -0.02366   3.12068
   D29        3.11490  -0.00011   0.00000  -0.01668  -0.01667   3.09822
   D30       -0.03196  -0.00056   0.00000  -0.02563  -0.02562  -0.05758
   D31       -0.35094   0.00025   0.00000  -0.01207  -0.01221  -0.36314
   D32       -2.45966  -0.00506   0.00000  -0.06173  -0.06139  -2.52105
   D33        1.73312   0.00285   0.00000   0.01132   0.01152   1.74465
   D34        2.82625   0.00013   0.00000  -0.01038  -0.01065   2.81561
   D35        0.71753  -0.00518   0.00000  -0.06004  -0.05982   0.65770
   D36       -1.37288   0.00273   0.00000   0.01301   0.01308  -1.35979
   D37        0.85480   0.00007   0.00000   0.00824   0.00819   0.86299
   D38        2.96195   0.00208   0.00000   0.03073   0.03037   2.99232
   D39       -1.27602   0.00035   0.00000   0.01942   0.01932  -1.25669
   D40        2.98801   0.00102   0.00000   0.01909   0.01921   3.00722
   D41       -1.18803   0.00303   0.00000   0.04158   0.04139  -1.14663
   D42        0.85719   0.00131   0.00000   0.03026   0.03035   0.88754
   D43       -1.23365  -0.00323   0.00000  -0.01714  -0.01667  -1.25032
   D44        0.87350  -0.00123   0.00000   0.00535   0.00551   0.87901
   D45        2.91872  -0.00295   0.00000  -0.00596  -0.00554   2.91318
   D46       -2.35063  -0.00074   0.00000   0.00625   0.00491  -2.34572
   D47        1.78066  -0.00201   0.00000  -0.01726  -0.01821   1.76245
   D48       -0.26789  -0.00305   0.00000  -0.02463  -0.02436  -0.29224
   D49        1.96231  -0.00486   0.00000  -0.04914  -0.04969   1.91262
   D50       -2.19112  -0.00393   0.00000  -0.03106  -0.03147  -2.22259
   D51       -0.14236  -0.00008   0.00000   0.00007  -0.00072  -0.14308
   D52       -1.09505  -0.00042   0.00000   0.00292   0.00301  -1.09204
   D53        3.07448  -0.00045   0.00000  -0.00426  -0.00423   3.07025
   D54        1.02419  -0.00044   0.00000  -0.00345  -0.00339   1.02080
   D55        3.07158   0.00178   0.00000   0.02042   0.02070   3.09228
   D56        0.95792   0.00174   0.00000   0.01325   0.01345   0.97138
   D57       -1.09236   0.00175   0.00000   0.01405   0.01430  -1.07806
   D58        1.03937  -0.00226   0.00000  -0.03164  -0.03180   1.00758
   D59       -1.07428  -0.00230   0.00000  -0.03881  -0.03904  -1.11332
   D60       -3.12457  -0.00229   0.00000  -0.03801  -0.03820   3.12042
   D61        0.79765  -0.00113   0.00000  -0.01152  -0.01156   0.78608
   D62        2.93938  -0.00123   0.00000  -0.00647  -0.00654   2.93284
   D63       -1.30324  -0.00096   0.00000  -0.00994  -0.00998  -1.31322
   D64        2.91744  -0.00042   0.00000  -0.00390  -0.00389   2.91355
   D65       -1.22402  -0.00052   0.00000   0.00114   0.00114  -1.22288
   D66        0.81656  -0.00024   0.00000  -0.00233  -0.00231   0.81425
   D67       -1.32208   0.00043   0.00000   0.00489   0.00490  -1.31718
   D68        0.81965   0.00033   0.00000   0.00994   0.00993   0.82958
   D69        2.86022   0.00061   0.00000   0.00647   0.00648   2.86670
   D70        0.54814   0.00328   0.00000   0.03436   0.03437   0.58251
   D71        2.67437   0.00233   0.00000   0.01683   0.01768   2.69205
   D72       -1.52084   0.00384   0.00000   0.03126   0.03169  -1.48915
   D73       -0.64435   0.00160   0.00000  -0.00613  -0.00505  -0.64940
   D74       -2.74181   0.00216   0.00000   0.03054   0.03113  -2.71068
   D75        1.38662   0.00126   0.00000   0.01807   0.01869   1.40530
   D76       -2.74019   0.00275   0.00000   0.03382   0.03432  -2.70587
   D77        1.44555   0.00332   0.00000   0.07049   0.07049   1.51604
   D78       -0.70921   0.00241   0.00000   0.05802   0.05805  -0.65117
   D79        1.38374   0.00195   0.00000   0.02269   0.02325   1.40699
   D80       -0.71371   0.00252   0.00000   0.05936   0.05943  -0.65428
   D81       -2.86847   0.00161   0.00000   0.04689   0.04698  -2.82149
   D82        0.47312   0.00098   0.00000   0.01582   0.01602   0.48913
   D83        2.60076   0.00111   0.00000   0.00089   0.00177   2.60253
   D84       -1.59920   0.00283   0.00000   0.01672   0.01731  -1.58188
         Item               Value     Threshold  Converged?
 Maximum Force            0.015880     0.000450     NO 
 RMS     Force            0.003680     0.000300     NO 
 Maximum Displacement     0.156939     0.001800     NO 
 RMS     Displacement     0.038548     0.001200     NO 
 Predicted change in Energy=-5.329197D-03
 GradGradGradGradGradGradGradGradGradGradGradGradGradGradGradGradGradGrad

                          Input orientation:                          
 ---------------------------------------------------------------------
 Center     Atomic      Atomic             Coordinates (Angstroms)
 Number     Number       Type             X           Y           Z
 ---------------------------------------------------------------------
      1         35           0       -1.852551    4.315143    0.339137
      2          6           0       -1.767556    2.433216    0.147574
      3          6           0       -2.920670    1.716454   -0.118033
      4          6           0       -2.838128    0.343188   -0.248127
      5          6           0       -1.627403   -0.329837   -0.124018
      6          6           0       -0.476719    0.409652    0.140874
      7          6           0       -0.555686    1.789615    0.279136
      8          6           0        0.878918   -0.256132    0.235361
      9          6           0        0.776724   -1.745033    0.518614
     10          6           0       -0.207008   -2.407446   -0.434723
     11          6           0       -1.606044   -1.835363   -0.233711
     12          8           0        1.657751    0.395892    1.231533
     13          6           0        2.953155    0.603457    0.688074
     14          6           0        2.649840    0.834729   -0.766302
     15          8           0        1.581815   -0.071319   -0.997602
     16          1           0       -3.872559    2.220385   -0.218533
     17          1           0       -3.739402   -0.221809   -0.450921
     18          1           0        0.336558    2.357452    0.503926
     19          1           0        1.773274   -2.179756    0.420760
     20          1           0        0.456264   -1.880893    1.554556
     21          1           0       -0.223126   -3.487248   -0.275465
     22          1           0        0.122346   -2.239961   -1.463044
     23          1           0       -2.262490   -2.149054   -1.048168
     24          1           0       -2.032958   -2.246004    0.687684
     25          1           0        3.421422    1.454973    1.180129
     26          1           0        3.574760   -0.287552    0.833476
     27          1           0        3.479517    0.599735   -1.432428
     28          1           0        2.319957    1.863717   -0.949658
 ---------------------------------------------------------------------
                    Distance matrix (angstroms):
                    1          2          3          4          5
     1  Br   0.000000
     2  C    1.893560   0.000000
     3  C    2.846589   1.383461   0.000000
     4  C    4.134329   2.381370   1.381882   0.000000
     5  C    4.673441   2.779904   2.420720   1.390763   0.000000
     6  C    4.145490   2.400233   2.783462   2.394158   1.393228
     7  C    2.839675   1.378463   2.399217   2.753125   2.408980
     8  C    5.326185   3.774139   4.295678   3.795968   2.533028
     9  C    6.608407   4.905997   5.104698   4.244493   2.862793
    10  C    6.964186   5.119218   4.946798   3.810984   2.535847
    11  C    6.182043   4.288617   3.789067   2.502863   1.509668
    12  O    5.336584   4.130180   4.952490   4.733403   3.627181
    13  C    6.082202   5.091687   6.032444   5.872237   4.744685
    14  C    5.797138   4.785784   5.676995   5.534249   4.479236
    15  O    5.729118   4.336175   4.923631   4.502158   3.336024
[...]
 47341,-0.02184629,-0.07746366,-0.01268059,0.08219037,-0.01315639,-0.00
 566076,0.02899018,-0.00004607,0.00019024,0.00032165,0.00004042,0.00004
 750,-0.00000490,-0.00040556,-0.00010375,-0.00001430,-0.00018127,-0.000
 41031,0.00017182,-0.00001435,0.00000266,0.00003434,0.00002801,-0.00004
 103,0.00006383,-0.00000650,0.00002067,0.00001064,0.00060169,0.00066412
 ,0.00039776,-0.00236814,-0.00265077,-0.00304173,-0.00071834,-0.0002846
 8,0.00036741,0.08882240,-0.00000418,0.00004986,-0.00000007,-0.00015405
 ,-0.00004327,-0.00005465,0.00005776,0.00017223,0.00007565,0.00012786,-
 0.00020532,0.00024627,-0.00020860,0.00093565,-0.00057410,0.00001687,-0
 .00004096,0.00009843,-0.00001385,-0.00016002,0.00008096,0.00082312,0.0
 0027219,-0.00187512,0.00462070,0.00163367,-0.01437067,-0.01363472,-0.0
 5856436,0.04170525,0.00450009,0.00208527,-0.01293100,0.00010355,0.0002
 4277,0.00048640,-0.00006015,0.00009021,0.00003851,-0.00053715,-0.00024
 396,0.00009726,-0.00017997,-0.00056977,0.00021976,0.00000307,0.0000075
 9,-0.00002482,-0.00003610,0.00002263,-0.00004106,0.00001205,-0.0000158
 4,-0.00001507,0.00013479,0.00032753,0.00065879,-0.00182771,-0.00080451
 ,-0.00232533,-0.01059626,-0.00434994,0.03016106,0.01505922,0.05877617,
 0.00000191,-0.00003370,0.00000305,-0.00003098,-0.00001621,-0.00002837,
 0.00000438,0.00002904,0.00000381,0.00001353,-0.00019573,-0.00002242,-0
 .00001453,-0.00014062,0.00003279,0.00003723,-0.00041006,-0.00000855,0.
 00005584,-0.00005015,0.00000350,0.00112026,0.00128583,-0.00165532,0.00
 636297,0.00204915,-0.02233796,0.08197026,0.03860418,-0.27440846,0.0003
 1831,0.00040263,-0.00097458,-0.00029449,-0.00023316,0.00037388,0.00033
 470,0.00019879,-0.00010501,-0.00037284,-0.00023919,0.00043112,0.000464
 72,0.00095723,0.00107867,0.00000469,-0.00001069,-0.00000651,-0.0000166
 6,0.00001076,-0.00001156,-0.00000056,-0.00001019,-0.00001667,-0.000238
 05,0.00028893,0.00043292,-0.00333377,-0.00196267,-0.00144431,0.0010022
 8,0.00095528,-0.00351068,-0.08765589,-0.04123006,0.29966866,0.00001958
 ,0.00003984,-0.00006836,0.00042264,0.00034141,0.00016243,-0.00009842,-
 0.00090763,0.00052431,0.00024510,0.00228173,0.00062556,-0.00117174,-0.
 00205711,0.00016776,0.00041217,-0.00015433,-0.00015734,-0.00032807,0.0
 0005408,-0.00020194,0.00020112,0.00125762,-0.00018118,-0.00499831,0.00
 388435,0.00198046,-0.01758745,-0.00931223,-0.02362723,-0.13459350,-0.0
 3986232,-0.11724563,-0.00009477,-0.00046104,0.00003100,0.00014005,0.00
 007272,-0.00009197,0.00006731,0.00009743,-0.00000842,0.00002536,-0.000
 22545,0.00019859,-0.00000227,-0.00002109,-0.00003290,0.00013570,0.0001
 6883,-0.00056811,0.00000375,-0.00003095,-0.00001366,-0.00125578,-0.001
 08865,-0.00112471,0.00021025,0.00015242,0.00008380,0.00061822,0.000329
 05,-0.00006119,0.00093820,-0.00074871,0.00033648,0.14845604,0.00006970
 ,-0.00017060,-0.00005580,0.00009862,0.00009940,-0.00014880,-0.00025352
 ,-0.00006664,0.00043683,-0.00184685,0.00101105,0.00039136,-0.02017361,
 -0.01273091,-0.02610782,0.00206421,-0.00417333,-0.00045382,-0.00135085
 ,-0.00049412,0.00088543,0.00095896,-0.00049049,-0.00039437,0.00243524,
 -0.00104758,-0.00061267,0.00734530,0.00424011,0.01115537,-0.03934603,-
 0.06545432,-0.05497657,-0.00015507,0.00023016,-0.00001214,0.00003125,0
 .00000216,-0.00002266,-0.00001340,-0.00003667,0.00002127,-0.00011685,0
 .00018531,0.00006077,0.00002101,0.00001834,-0.00002216,0.00101533,0.00
 008677,-0.00021552,0.00004429,-0.00040902,0.00001864,0.00067853,0.0005
 1025,0.00033915,-0.00017574,-0.00015538,-0.00018848,-0.00047211,-0.000
 00500,0.00033955,-0.00066456,0.00053132,-0.00011133,0.04226684,0.07500
 902,0.00002365,-0.00008226,-0.00003472,0.00061915,0.00011467,0.0001419
 8,-0.00000175,-0.00058330,0.00011456,-0.00073453,0.00074894,0.00102977
 ,0.00024900,0.00106696,-0.00000869,0.00032272,-0.00038815,-0.00004446,
 -0.00020164,0.00060537,0.00005607,0.00015131,0.00007270,0.00001314,0.0
 0089848,-0.00022346,0.00058827,0.00465425,0.00205060,0.00412199,-0.118
 91195,-0.05649301,-0.20497157,-0.00012302,-0.00001657,-0.00001539,0.00
 006649,0.00001220,-0.00001875,0.00005555,0.00005929,0.00002039,-0.0001
 5895,-0.00008835,0.00007514,0.00000085,-0.00004059,-0.00003870,0.00060
 129,-0.00033725,-0.00024647,0.00001304,-0.00000559,-0.00003166,0.00009
 896,-0.00009449,0.00030722,0.00026524,0.00009388,0.00041092,-0.0005345
 3,0.00025337,-0.00015499,-0.00014425,0.00026828,0.00100759,0.12863560,
 0.06025614,0.21914159,-0.00003784,0.00003367,0.00001283,0.00134833,0.0
 0024476,0.00030124,-0.00051471,-0.00161954,-0.00032843,-0.00044458,0.0
 0237341,0.00003467,0.00037224,-0.00183279,0.00048273,0.00002829,-0.001
 48864,-0.00037760,-0.00077524,0.00092637,-0.00015201,-0.00035009,0.000
 14889,0.00034459,0.00108476,-0.00017828,0.00147920,-0.01517824,-0.0097
 0227,0.02765557,-0.09007080,-0.03901230,0.08572087,0.00002418,-0.00003
 883,-0.00011581,-0.00006153,-0.00003571,0.00002669,0.00005052,0.000020
 85,-0.00006132,0.00013573,-0.00016072,-0.00025739,-0.00001180,-0.00002
 150,-0.00003166,-0.00019450,-0.00006297,0.00013400,-0.00002133,-0.0000
 3982,0.00004055,0.00027397,0.00025582,-0.00037113,-0.00008697,-0.00022
 107,-0.00094170,0.00145053,-0.00002176,-0.00019980,-0.00529104,0.00236
 906,-0.00010711,0.00825129,0.00757514,-0.01581156,0.10002107,0.0000225
 1,-0.00043071,0.00005055,-0.00031023,-0.00001257,0.00015847,-0.0000925
 7,0.00007746,-0.00128038,-0.00078177,-0.00001803,-0.00087243,-0.013978
 06,-0.01855831,0.02657906,0.00136211,-0.00113118,-0.00006876,0.0005551
 9,-0.00037281,-0.00160438,0.00086083,-0.00109314,0.00083904,-0.0007717
 7,-0.00016313,-0.00003484,0.00743874,0.00406864,-0.01269971,-0.0411205
 5,-0.07963823,0.08133332,-0.00017971,0.00017303,-0.00004112,0.00003751
 ,0.00001031,-0.00002850,-0.00000604,0.00006463,0.00005338,-0.00050472,
 0.00042636,0.00013136,0.00002065,-0.00004811,0.00008751,0.00031493,0.0
 0003203,0.00071509,-0.00000669,-0.00019354,-0.00005363,-0.00004816,-0.
 00002326,-0.00008431,-0.00034029,0.00005369,0.00010456,-0.00013208,0.0
 0073358,-0.00053664,0.00320398,-0.00027586,-0.00017953,0.00398872,0.00
 327435,-0.00722023,0.04049776,0.09302972,-0.00000358,0.00004571,-0.000
 00924,-0.00014124,-0.00025803,-0.00013857,-0.00009791,0.00047736,0.000
 18012,0.00033529,-0.00018985,0.00111322,-0.00193371,-0.00064127,0.0041
 5153,-0.00068227,-0.00039701,-0.00033498,0.00008203,0.00019514,-0.0003
 0710,-0.00002686,-0.00029627,0.00011488,-0.00034661,-0.00022294,0.0011
 8323,0.00177288,0.00009395,-0.00391468,0.08659334,0.07776720,-0.222346
 14,0.00004751,0.00010224,0.00003033,-0.00002976,0.00000108,0.00001108,
 -0.00009135,-0.00007334,0.00004971,-0.00006135,0.00004410,0.00002716,0
 .00000349,0.00004373,0.00000920,-0.00004020,0.00021776,-0.00040707,-0.
 00001481,0.00000030,0.00002530,0.00005749,0.00000351,0.00004689,0.0005
 5010,0.00033388,0.00005853,0.00020992,-0.00059706,0.00048770,0.0006746
 9,-0.00075533,0.00139087,0.01060556,0.00942901,-0.02146639,-0.09746768
 ,-0.08533399,0.24004837,0.00001519,0.00007473,0.00001566,-0.00000080,0
 .00001183,0.00000364,-0.00001209,0.00004955,0.00000110,-0.00000893,-0.
 00003816,0.00002519,-0.00013396,0.00022646,0.00000366,0.00008268,-0.00
 034887,-0.00028862,-0.00018672,-0.00019872,-0.00002540,-0.00178087,-0.
 00315273,0.00394111,-0.00112401,-0.00029342,-0.00126407,0.00013450,-0.
 00061563,0.00019866,0.00011357,0.00001998,0.00000767,-0.02235119,-0.02
 695552,-0.01303316,-0.07078871,-0.06158406,-0.03322434,-0.00083955,-0.
 00326940,-0.00322950,-0.00034075,-0.00079820,0.00049398,0.00000611,0.0
 0000896,0.00000061,-0.00002456,0.00001297,-0.00000247,-0.00008574,0.00
 003481,-0.00004098,0.00005277,-0.00014104,-0.00000897,0.00005173,0.000
 08047,-0.00002586,-0.00017184,-0.00011007,-0.00012215,0.00001022,0.000
 02326,0.00000100,-0.00001829,0.00000439,-0.00000608,-0.00000259,0.0000
 0618,0.00000660,0.08899443,-0.00000981,0.00007777,0.00000882,-0.000012
 56,-0.00016278,-0.00000400,-0.00003827,0.00004958,0.00000868,-0.000004
 15,0.00000137,0.00000263,0.00001032,0.00003827,-0.00000624,-0.00007822
 ,0.00007578,0.00001148,-0.00006454,0.00011915,-0.00000493,0.00180368,-
 0.00027058,0.00298986,-0.00003754,-0.00017883,-0.00034379,0.00004002,-
 0.00009629,0.00009242,0.00002225,-0.00000171,-0.00002615,-0.00952877,-
 0.00202052,-0.00100394,-0.06923698,-0.24639218,-0.09934332,0.00312954,
 0.00497355,0.00237193,0.00142258,0.00205460,0.00143253,-0.00000801,0.0
 0000046,-0.00000895,-0.00001141,0.00000045,-0.00000191,-0.00020717,-0.
 00009961,-0.00008228,-0.00000328,0.00012492,0.00000680,-0.00004892,0.0
 0005228,-0.00001555,-0.00003849,-0.00002837,-0.00004975,0.00000183,-0.
 00000110,-0.00002446,-0.00003031,0.00000755,-0.00000908,0.00000266,-0.
 00000266,0.00000858,0.07992120,0.25982470,0.00000904,0.00003564,-0.000
 00132,0.00001959,-0.00003226,-0.00002905,-0.00000998,0.00003474,0.0000
 0963,0.00004720,0.00000417,-0.00001783,0.00000022,-0.00000653,0.000012
 15,0.00007939,0.00017100,0.00028045,-0.00007671,-0.00004240,-0.0001010
 0,0.00198954,0.00110445,-0.00530935,0.00013213,0.00013430,0.00056605,-
 0.00003379,0.00015446,-0.00010539,-0.00000792,-0.00000436,0.00002162,0
 .01287644,0.01535772,0.00882024,-0.04101552,-0.10066568,-0.10281431,-0
 .00766839,-0.02634089,-0.00432444,-0.00593170,-0.00199271,-0.00508525,
 0.00000060,0.00000049,0.00000524,0.00000122,-0.00000022,-0.00000242,-0
 .00016358,-0.00001393,0.00004707,-0.00003376,0.00001865,-0.00002976,0.
 00000782,-0.00010871,0.00007265,0.00001478,0.00000762,0.00008546,0.000
 02700,0.00005384,0.00008954,0.00000599,0.00000353,-0.00000432,-0.00001
 222,0.00000209,0.00000540,0.03875098,0.10596770,0.10371262,-0.00001662
 ,0.00011890,0.00000622,0.00007545,-0.00029038,-0.00005853,-0.00011737,
 0.00003608,-0.00001045,-0.00013320,-0.00008972,0.00004170,-0.00020391,
 0.00046160,-0.00002898,-0.00077000,-0.00088628,-0.00107594,-0.00008297
 ,0.00003673,-0.00005835,0.00017603,0.00482517,0.00433216,-0.00053384,0
 .00017591,-0.00015780,0.00011833,-0.00029363,-0.00000149,0.00003947,0.
 00009934,0.00006408,-0.03737796,0.01209010,0.00495562,-0.14733957,0.11
 788399,-0.02910160,-0.00203252,0.00489382,-0.00073398,0.00126259,-0.00
 029760,-0.00077208,-0.00001657,-0.00000548,0.00000054,-0.00006537,0.00
 001891,-0.00000644,-0.00000398,-0.00026188,0.00009563,0.00008282,-0.00
 043336,-0.00003631,0.00011379,0.00005366,-0.00002966,-0.00005754,-0.00
 007066,-0.00004464,-0.00000500,0.00002910,-0.00000987,0.00002819,-0.00
 004313,-0.00001239,0.00000417,-0.00003571,0.00000184,0.00860433,-0.006
 35615,0.00084557,0.17683667,0.00001848,-0.00001562,-0.00000094,0.00000
 264,0.00008445,-0.00000497,0.00001520,-0.00000922,0.00000177,-0.000003
 85,-0.00000841,0.00001203,-0.00005111,0.00004735,0.00001047,-0.0002502
 9,-0.00012882,-0.00022216,-0.00013133,-0.00012466,-0.00008824,-0.00101
 786,0.00082938,-0.00010077,0.00056018,-0.00004776,0.00063427,0.0000453
 1,0.00012844,-0.00007616,0.00002600,-0.00000245,0.00000735,-0.00722633
 ,0.01452885,-0.00264255,0.12078649,-0.19972206,0.02683157,0.00082723,-
 0.00423429,0.00057354,0.00088701,0.00156955,-0.00050123,0.00000658,0.0
 0000033,0.00000651,-0.00000001,0.00000291,0.00000068,-0.00016645,0.000
 03972,0.00002572,-0.00016429,-0.00015212,0.00002428,-0.00003893,-0.000
 00010,-0.00001163,0.00004502,0.00004686,0.00002590,-0.00000671,-0.0000
 2079,0.00000228,0.00001772,-0.00000121,0.00000324,-0.00000180,0.000007
 92,-0.00000574,0.01710046,-0.01907913,0.00522291,-0.13097615,0.2044804
 5,0.00000552,-0.00005320,0.00000508,-0.00002305,0.00005903,0.00002915,
 0.00005411,-0.00001180,-0.00000186,0.00005219,0.00001712,-0.00003121,0
 .00009090,-0.00015406,0.00003608,0.00035853,0.00035621,0.00063938,0.00
 002269,0.00002712,0.00007139,-0.00046491,-0.00165615,-0.00213785,-0.00
 000644,0.00006718,0.00014473,0.00003785,0.00006021,-0.00008071,-0.0000
 1733,-0.00000840,0.00002273,0.01834017,-0.00828176,0.00376443,-0.02900
 651,0.02497272,-0.05832183,-0.01963369,0.02873431,-0.00652212,0.001114
 18,-0.00121380,0.00217201,0.00000344,-0.00000088,-0.00000409,0.0000254
 2,-0.00000705,-0.00000300,-0.00008278,0.00004484,-0.00017410,-0.000050
 51,-0.00006256,0.00007627,0.00001637,-0.00004306,-0.00002551,0.0000208
 0,0.00002811,0.00002587,-0.00000838,0.00000781,-0.00000235,0.00001309,
 0.00000496,0.00000387,0.00000192,0.00000508,-0.00000251,0.00843512,-0.
 01150146,0.00386147,0.02257643,-0.03128009,0.06083898,-0.00001017,0.00
 008753,0.00000728,-0.00018456,-0.00017082,-0.00015223,0.00000754,0.000
 22727,0.00001645,0.00013680,-0.00015094,-0.00007122,-0.00024678,0.0001
 6759,-0.00009832,0.00015961,-0.00001612,0.00083223,0.00010249,0.000136
 63,0.00007118,-0.00292231,-0.00077668,-0.00494352,-0.00019497,0.000176
 65,0.00048585,0.00004893,0.00006500,0.00008646,0.00000045,0.00001442,0
 .00003710,0.00221256,0.00095312,-0.00381879,0.00981043,-0.00149925,-0.
 00461564,-0.19559543,0.04796211,0.12420394,-0.02296757,-0.00690634,0.0
 1782921,-0.00001341,-0.00000098,0.00001733,-0.00002930,-0.00000414,0.0
 0001016,-0.00005956,-0.00007717,-0.00001150,0.00004251,-0.00002962,-0.
 00002835,-0.00000331,-0.00026060,0.00001374,-0.00001786,-0.00003674,-0
 .00000334,0.00001782,0.00004148,-0.00000267,-0.00001628,-0.00001360,-0
 .00001201,0.00001117,-0.00003292,-0.00000568,-0.00035647,-0.00053989,0
 .00016632,0.00072461,-0.00018818,0.00056850,0.21685837,0.00001231,0.00
 000706,-0.00000319,-0.00004015,0.00015286,-0.00008853,-0.00003797,0.00
 008486,0.00003496,0.00011283,0.00000240,-0.00004916,-0.00011310,0.0001
 5370,-0.00000594,-0.00024973,-0.00011838,0.00086072,-0.00026197,-0.000
 35300,-0.00031740,-0.00395335,-0.00202460,-0.00119404,-0.00031464,0.00
 019054,0.00066150,0.00008315,0.00004030,0.00006069,0.00000760,0.000003
 80,0.00004511,-0.00128929,0.00045737,-0.00030372,-0.00050492,0.0000490
 7,0.00341541,0.05496130,-0.06456356,-0.04480230,-0.02530864,0.00050107
 ,0.02013593,0.00001724,0.00000744,0.00001690,-0.00001251,0.00000703,-0
 .00000586,0.00000698,0.00022003,0.00030464,0.00005543,-0.00005006,-0.0
 0001039,0.00000200,-0.00029374,0.00000566,-0.00001673,-0.00001530,-0.0
 0001096,-0.00002166,0.00001658,-0.00003522,-0.00000082,0.00000095,-0.0
 0000610,0.00001187,-0.00002117,-0.00001306,0.00001045,0.00001735,0.000
 25776,-0.00041266,0.00045418,0.00015373,-0.04364126,0.06967926,0.00000
 488,-0.00004240,-0.00000045,-0.00010565,0.00007045,-0.00003883,0.00005
 934,0.00006602,0.00000544,0.00008278,-0.00007188,0.00000565,-0.0000881
 1,-0.00009165,-0.00005303,0.00047709,0.00010156,0.00015997,0.00007745,
 0.00002724,0.00006064,-0.00235197,-0.00177127,-0.00289074,0.00013649,0
 .00006278,0.00030448,-0.00002731,0.00011086,-0.00000451,-0.00002550,-0
 .00000402,0.00000457,0.00278424,0.00275561,-0.00570160,0.02316198,-0.0
 0704022,-0.01058316,0.12805316,-0.03649027,-0.16036522,-0.00650990,0.0
 0073671,0.00650742,0.00000237,-0.00000043,0.00000510,0.00001336,-0.000
 00708,0.00000655,-0.00005292,0.00004687,-0.00005457,-0.00001822,-0.000
 00667,-0.00001654,-0.00002586,-0.00007147,0.00003581,0.00003691,0.0000
 2997,0.00001635,0.00000897,-0.00001435,0.00000280,0.00000981,-0.000000
 53,0.00000706,0.00000092,-0.00000604,-0.00000747,-0.00061522,-0.000064
 67,-0.00122664,-0.00028170,0.00057536,0.00131709,-0.13933107,0.0390431
 8,0.16690660,0.00002005,-0.00006180,-0.00001777,-0.00042048,0.00019388
 ,-0.00011728,0.00012663,0.00016394,0.00003778,0.00012270,-0.00014238,0
 .00001417,-0.00019901,-0.00006565,-0.00011266,0.00040155,0.00006580,-0
 .00022933,-0.00039895,0.00045818,0.00029018,0.00176053,-0.00224525,-0.
 00216453,-0.00056271,-0.00000420,0.00070061,0.00008716,0.00002951,0.00
 003921,0.00003168,-0.00003271,0.00001857,0.00189130,0.00028825,0.00075
 447,-0.00596365,0.00863263,-0.00164310,-0.09400721,0.09593020,-0.01726
 908,0.00585957,-0.03337831,0.00504054,0.00000320,0.00000664,0.00001031
 ,0.00000504,-0.00000580,0.00001490,-0.00055658,-0.00001220,0.00055986,
 -0.00005246,0.00009230,-0.00005250,-0.00016006,-0.00023755,0.00020175,
 -0.00002965,-0.00001229,0.00000480,0.00007768,0.00007947,0.00004887,-0
 .00001007,0.00001652,-0.00000292,-0.00001498,0.00003216,0.00000228,0.0
 0016157,-0.00009962,-0.00002025,0.00068998,-0.00011503,-0.00244359,-0.
 00751531,0.02089825,-0.00547632,0.09865250,-0.00001625,0.00009981,0.00
 000827,0.00017118,0.00017170,-0.00001465,-0.00011289,0.00001025,0.0000
 3374,0.00006728,0.00012498,-0.00002631,0.00000458,-0.00000187,0.000050
 36,-0.00046023,0.00014985,0.00056917,-0.00022150,-0.00078968,-0.000612
 45,0.00300221,-0.00222694,-0.00441440,-0.00057491,0.00001712,0.0009478
 3,0.00016366,0.00007425,0.00005009,0.00008486,-0.00004618,0.00004885,-
 0.00022512,0.00091497,0.00082515,0.00165151,0.00015287,-0.00074818,0.0
 9357337,-0.24484909,0.04587499,-0.01089557,-0.03095585,0.00302875,0.00
 002087,0.00001766,0.00001262,-0.00001151,0.00000901,-0.00001724,0.0004
 2851,0.00040933,0.00018264,-0.00009443,0.00022467,-0.00011495,-0.00022
 716,-0.00039046,0.00021396,-0.00006891,-0.00003930,0.00001383,0.000126
 77,0.00013201,0.00009887,-0.00005213,0.00002854,-0.00001721,-0.0000222
 9,0.00003098,0.00002033,-0.00007989,0.00091598,0.00067661,-0.00027053,
 0.00132624,-0.00026416,0.00451347,-0.00460606,0.00205632,-0.09047493,0
 .27909523,-0.00003597,0.00005516,0.00000590,0.00002262,-0.00024787,0.0
 0004142,-0.00007370,-0.00000010,-0.00003824,-0.00006029,0.00001023,-0.
 00002642,0.00007214,-0.00000161,-0.00006171,-0.00026094,0.00002699,0.0
 0020102,0.00062808,0.00020057,-0.00000965,0.00000689,0.00016133,-0.000
 71492,-0.00001823,0.00010048,0.00020790,0.00000307,-0.00000070,-0.0000
 0802,-0.00002521,0.00000916,0.00003788,0.00043712,-0.00135466,0.001806
 29,-0.01685001,0.02878859,-0.00682561,-0.01552938,0.04411770,-0.066014
 46,0.00109480,-0.00546868,0.00551332,-0.00001843,-0.00000828,-0.000014
 21,-0.00001236,-0.00000503,0.00000240,0.00049779,-0.00016704,-0.000569
 63,0.00005255,-0.00006396,-0.00005575,-0.00002390,-0.00005621,0.000038
 19,0.00000544,-0.00000755,-0.00000127,0.00002426,0.00001332,0.00001354
 ,0.00000217,-0.00001935,-0.00000344,-0.00000034,-0.00001500,0.00000062
 ,0.00000183,-0.00041094,0.00146148,-0.00049958,0.00097655,-0.00570138,
 0.00874858,-0.01815031,0.00559723,0.02181101,-0.04848281,0.06511752\\0
 .00000104,0.00000266,0.00000156,-0.00000744,-0.00000038,0.00000041,-0.
 00000428,0.00000783,-0.00000058,0.00000731,-0.00000219,0.00000047,-0.0
 0001060,-0.00000647,-0.00000165,0.00001321,0.00000884,0.00000549,0.000
 00716,-0.00000615,0.00000403,-0.00001567,-0.00001622,-0.00002336,0.000
 00465,-0.00000218,0.00000434,-0.00000139,-0.00000233,-0.00000116,0.000
 00569,-0.00000119,-0.00000201,0.00000355,0.00000658,0.00001614,-0.0000
 0520,-0.00000216,-0.00001103,0.00001216,0.00000266,0.00000486,-0.00000
 129,0.00000492,0.00000676,0.00000005,-0.00000070,0.00000092,-0.0000024
 6,-0.00000109,-0.00000091,0.00000071,0.00000211,0.00000067,-0.00000130
 ,0.00000079,-0.00000093,-0.00000308,-0.00000036,-0.00000069,0.00000035
 ,0.00000024,-0.00000284,0.00000051,0.00000188,-0.00000119,-0.00000241,
 0.00000096,0.00000100,0.00000056,-0.00000153,0.00000037,-0.00000274,-0
 .00000005,0.00000348,0.00000258,0.00000232,0.,-0.00000212,-0.00000112,
 -0.00000385,0.00000044,0.00000234,-0.00000032\\\@
 The archive entry for this job was punched.


 IF I AM NOT FOR MYSELF, WHO WILL BE?
 BUT IF I AM ONLY FOR MYSELF, WHAT AM I?
 THOUGH A SEEKER SINCE MY BIRTH,
 HERE IS ALL I'VE LEARNED ON EARTH,
 THIS IS THE GIST OF WHAT I KNOW:
 GIVE ADVICE AND BUY A FOE.

 PRESSED FOR RULES AND VERITIES,
 ALL I RECOLLECT ARE THESE:
 FEED A COLD TO STARVE A FEVER,
 ARGUE WITH NO TRUE-BELIEVER.
 THINK-TOO-LONG IS NEVER-ACT,
 SCRATCH A MYTH AND FIND A FACT.

 STITCH IN TIME SAVES TWENTY STITCHES,
 GIVE THE RICH TO PLEASE THEM, RICHES.
 GIVE TO LOVE YOU HEARTH AND HALL,
 BUT DO NOT GIVE ADVICE AT ALL.

                                  -- HILLEL
 Job cpu time:       1 days  2 hours 38 minutes  5.9 seconds.
 Elapsed time:       0 days  1 hours  6 minutes 59.8 seconds.
 File lengths (MBytes):  RWF=    841 Int=      0 D2E=      0 Chk=     26 Scr=      1
 Normal termination of Gaussian 16 at Tue Sep 17 14:27:18 2024.
