 Entering Gaussian System, Link 0=/usr/local/Gaussian/G16C/g16/g16
 Input=arbr48_wb97xd_QRC.com
 Output=arbr48_wb97xd_QRC.log
 Initial command:
 /usr/local/Gaussian/G16C/g16/l1.exe "/home/rpaton/opt/Gau-989155.inp" -scrdir="/home/rpaton/opt/"
 Entering Link 1 = /usr/local/Gaussian/G16C/g16/l1.exe PID=    989156.
  
 Copyright (c) 1988-2019, Gaussian, Inc.  All Rights Reserved.
  
 This is part of the Gaussian(R) 16 program.  It is based on
 the Gaussian(R) 09 system (copyright 2009, Gaussian, Inc.),
 the Gaussian(R) 03 system (copyright 2003, Gaussian, Inc.),
 the Gaussian(R) 98 system (copyright 1998, Gaussian, Inc.),
 the Gaussian(R) 94 system (copyright 1995, Gaussian, Inc.),
 the Gaussian 92(TM) system (copyright 1992, Gaussian, Inc.),
 the Gaussian 90(TM) system (copyright 1990, Gaussian, Inc.),
 the Gaussian 88(TM) system (copyright 1988, Gaussian, Inc.),
 the Gaussian 86(TM) system (copyright 1986, Carnegie Mellon
 University), and the Gaussian 82(TM) system (copyright 1983,
 Carnegie Mellon University). Gaussian is a federally registered
 trademark of Gaussian, Inc.
  
 This software contains proprietary and confidential information,
 including trade secrets, belonging to Gaussian, Inc.
  
 This software is provided under written license and may be
 used, copied, transmitted, or stored only in accord with that
 written license.
  
 The following legend is applicable only to US Government
 contracts under FAR:
  
                    RESTRICTED RIGHTS LEGEND
  
 Use, reproduction and disclosure by the US Government is
 subject to restrictions as set forth in subparagraphs (a)
 and (c) of the Commercial Computer Software - Restricted
 Rights clause in FAR 52.227-19.
  
 Gaussian, Inc.
 340 Quinnipiac St., Bldg. 40, Wallingford CT 06492
  
  
 ---------------------------------------------------------------
 Warning -- This program may not be used in any manner that
 competes with the business of Gaussian, Inc. or will provide
 assistance to any competitor of Gaussian, Inc.  The licensee
 of this program is prohibited from giving any competitor of
 Gaussian, Inc. access to this program.  By using this program,
 the user acknowledges that Gaussian, Inc. is engaged in the
 business of creating and licensing software in the field of
 computational chemistry and represents and warrants to the
 licensee that it is not a competitor of Gaussian, Inc. and that
 it will not use this program in any manner prohibited above.
 ---------------------------------------------------------------
  

 Cite this work as:
 Gaussian 16, Revision C.01,
 M. J. Frisch, G. W. Trucks, H. B. Schlegel, G. E. Scuseria, 
 M. A. Robb, J. R. Cheeseman, G. Scalmani, V. Barone, 
 G. A. Petersson, H. Nakatsuji, X. Li, M. Caricato, A. V. Marenich, 
 J. Bloino, B. G. Janesko, R. Gomperts, B. Mennucci, H. P. Hratchian, 
 J. V. Ortiz, A. F. Izmaylov, J. L. Sonnenberg, D. Williams-Young, 
 F. Ding, F. Lipparini, F. Egidi, J. Goings, B. Peng, A. Petrone, 
 T. Henderson, D. Ranasinghe, V. G. Zakrzewski, J. Gao, N. Rega, 
 G. Zheng, W. Liang, M. Hada, M. Ehara, K. Toyota, R. Fukuda, 
 J. Hasegawa, M. Ishida, T. Nakajima, Y. Honda, O. Kitao, H. Nakai, 
 T. Vreven, K. Throssell, J. A. Montgomery, Jr., J. E. Peralta, 
 F. Ogliaro, M. J. Bearpark, J. J. Heyd, E. N. Brothers, K. N. Kudin, 
 V. N. Staroverov, T. A. Keith, R. Kobayashi, J. Normand, 
 K. Raghavachari, A. P. Rendell, J. C. Burant, S. S. Iyengar, 
 J. Tomasi, M. Cossi, J. M. Millam, M. Klene, C. Adamo, R. Cammi, 
 J. W. Ochterski, R. L. Martin, K. Morokuma, O. Farkas, 
 J. B. Foresman, and D. J. Fox, Gaussian, Inc., Wallingford CT, 2019.
 
 ******************************************
 Gaussian 16:  ES64L-G16RevC.01  3-Jul-2019
                18-Sep-2024 
 ******************************************
 %chk=arbr48_wb97xd_QRC.chk
 %nproc=24
 Will use up to   24 processors via shared memory.
 %mem=48GB
 --------------------------
 # opt freq wb97xd/def2tzvp
 --------------------------
 1/18=20,19=15,26=3,38=1/1,3;
 2/9=110,12=2,17=6,18=5,40=1/2;
 3/5=44,7=101,11=2,25=1,30=1,71=1,74=-58/1,2,3;
 4//1;
 5/5=2,38=5/2;
 6/7=2,8=2,9=2,10=2,28=1/1;
 7//1,2,3,16;
 1/18=20,19=15,26=3/3(2);
 2/9=110/2;
 99//99;
 2/9=110/2;
 3/5=44,7=101,11=2,25=1,30=1,71=1,74=-58/1,2,3;
 4/5=5,16=3,69=1/1;
 5/5=2,38=5/2;
 7//1,2,3,16;
 1/18=20,19=15,26=3/3(-5);
 2/9=110/2;
 6/7=2,8=2,9=2,10=2,19=2,28=1/1;
 99/9=1/99;
 -----------------
 arbr48_wb97xd_QRC
 -----------------
 Symbolic Z-matrix:
 Charge =  0 Multiplicity = 1
 Br                    3.49375  -0.89452   0.002 
 C                     1.82123  -0.00255   0.002 
 C                     0.65803  -0.75324   0.002 
 C                    -0.58004  -0.11801  -0.002 
 I                    -2.34705  -1.21774   0. 
 C                    -0.60867   1.26492  -0.006 
 C                     0.56309   2.00879  -0.004 
 C                     1.79179   1.38708   0. 
 C                     0.19168   3.46609  -0.02599 
 C                    -1.35017   3.40256   0.04198 
 O                    -1.72627   2.01293  -0.018 
 H                     0.71142  -1.83269   0.004 
 H                     2.71084   1.95752  -0.002 
 H                     0.61302   4.01164   0.82053 
 H                     0.54106   3.95167  -0.94047 
 H                    -1.83351   3.91158  -0.79631 
 H                    -1.74156   3.81163   0.97622 
 

 GradGradGradGradGradGradGradGradGradGradGradGradGradGradGradGradGradGrad
 Berny optimization.
 Initialization pass.
                           ----------------------------
                           !    Initial Parameters    !
                           ! (Angstroms and Degrees)  !
 --------------------------                            --------------------------
 ! Name  Definition              Value          Derivative Info.                !
 --------------------------------------------------------------------------------
 ! R1    R(1,2)                  1.8955         estimate D2E/DX2                !
 ! R2    R(2,3)                  1.3844         estimate D2E/DX2                !
 ! R3    R(2,8)                  1.3899         estimate D2E/DX2                !
 ! R4    R(3,4)                  1.3915         estimate D2E/DX2                !
 ! R5    R(3,12)                 1.0808         estimate D2E/DX2                !
 ! R6    R(4,5)                  2.0813         estimate D2E/DX2                !
 ! R7    R(4,6)                  1.3832         estimate D2E/DX2                !
 ! R8    R(6,7)                  1.3879         estimate D2E/DX2                !
 ! R9    R(6,11)                 1.3449         estimate D2E/DX2                !
 ! R10   R(7,8)                  1.377          estimate D2E/DX2                !
 ! R11   R(7,9)                  1.504          estimate D2E/DX2                !
 ! R12   R(8,13)                 1.0817         estimate D2E/DX2                !
 ! R13   R(9,10)                 1.5446         estimate D2E/DX2                !
 ! R14   R(9,14)                 1.0917         estimate D2E/DX2                !
 ! R15   R(9,15)                 1.0928         estimate D2E/DX2                !
 ! R16   R(10,11)                1.4409         estimate D2E/DX2                !
 ! R17   R(10,16)                1.0934         estimate D2E/DX2                !
 ! R18   R(10,17)                1.0924         estimate D2E/DX2                !
 ! A1    A(1,2,3)              119.0917         estimate D2E/DX2                !
 ! A2    A(1,2,8)              119.285          estimate D2E/DX2                !
 ! A3    A(3,2,8)              121.6232         estimate D2E/DX2                !
 ! A4    A(2,3,4)              120.0014         estimate D2E/DX2                !
 ! A5    A(2,3,12)             120.0053         estimate D2E/DX2                !
 ! A6    A(4,3,12)             119.9934         estimate D2E/DX2                !
 ! A7    A(3,4,5)              120.941          estimate D2E/DX2                !
 ! A8    A(3,4,6)              118.348          estimate D2E/DX2                !
 ! A9    A(5,4,6)              120.7109         estimate D2E/DX2                !
 ! A10   A(4,6,7)              121.2222         estimate D2E/DX2                !
 ! A11   A(4,6,11)             124.9806         estimate D2E/DX2                !
 ! A12   A(7,6,11)             113.7966         estimate D2E/DX2                !
 ! A13   A(6,7,8)              120.7528         estimate D2E/DX2                !
 ! A14   A(6,7,9)              108.1072         estimate D2E/DX2                !
 ! A15   A(8,7,9)              131.1345         estimate D2E/DX2                !
 ! A16   A(2,8,7)              118.0523         estimate D2E/DX2                !
 ! A17   A(2,8,13)             120.6137         estimate D2E/DX2                !
 ! A18   A(7,8,13)             121.3336         estimate D2E/DX2                !
 ! A19   A(7,9,10)             101.8883         estimate D2E/DX2                !
 ! A20   A(7,9,14)             112.1827         estimate D2E/DX2                !
 ! A21   A(7,9,15)             111.3357         estimate D2E/DX2                !
 ! A22   A(10,9,14)            111.8201         estimate D2E/DX2                !
 ! A23   A(10,9,15)            111.9773         estimate D2E/DX2                !
 ! A24   A(14,9,15)            107.6652         estimate D2E/DX2                !
 ! A25   A(9,10,11)            107.3603         estimate D2E/DX2                !
 ! A26   A(9,10,16)            112.8539         estimate D2E/DX2                !
 ! A27   A(9,10,17)            112.3252         estimate D2E/DX2                !
 ! A28   A(11,10,16)           107.5592         estimate D2E/DX2                !
 ! A29   A(11,10,17)           107.6514         estimate D2E/DX2                !
 ! A30   A(16,10,17)           108.8436         estimate D2E/DX2                !
 ! A31   A(6,11,10)            108.6103         estimate D2E/DX2                !
 ! D1    D(1,2,3,4)           -179.8098         estimate D2E/DX2                !
 ! D2    D(1,2,3,12)             0.1224         estimate D2E/DX2                !
 ! D3    D(8,2,3,4)              0.0936         estimate D2E/DX2                !
 ! D4    D(8,2,3,12)          -179.9742         estimate D2E/DX2                !
 ! D5    D(1,2,8,7)            179.8091         estimate D2E/DX2                !
 ! D6    D(1,2,8,13)             0.0281         estimate D2E/DX2                !
 ! D7    D(3,2,8,7)             -0.0941         estimate D2E/DX2                !
 ! D8    D(3,2,8,13)          -179.875          estimate D2E/DX2                !
 ! D9    D(2,3,4,5)           -179.9323         estimate D2E/DX2                !
 ! D10   D(2,3,4,6)              0.0043         estimate D2E/DX2                !
 ! D11   D(12,3,4,5)             0.1355         estimate D2E/DX2                !
 ! D12   D(12,3,4,6)          -179.9279         estimate D2E/DX2                !
 ! D13   D(3,4,6,7)             -0.0993         estimate D2E/DX2                !
 ! D14   D(3,4,6,11)           179.5898         estimate D2E/DX2                !
 ! D15   D(5,4,6,7)            179.8374         estimate D2E/DX2                !
 ! D16   D(5,4,6,11)            -0.4735         estimate D2E/DX2                !
 ! D17   D(4,6,7,8)              0.0994         estimate D2E/DX2                !
 ! D18   D(4,6,7,9)            179.3354         estimate D2E/DX2                !
 ! D19   D(11,6,7,8)          -179.6222         estimate D2E/DX2                !
 ! D20   D(11,6,7,9)            -0.3862         estimate D2E/DX2                !
 ! D21   D(4,6,11,10)          177.4659         estimate D2E/DX2                !
 ! D22   D(7,6,11,10)           -2.8247         estimate D2E/DX2                !
 ! D23   D(6,7,8,2)             -0.0017         estimate D2E/DX2                !
 ! D24   D(6,7,8,13)           179.7776         estimate D2E/DX2                !
 ! D25   D(9,7,8,2)           -179.0376         estimate D2E/DX2                !
 ! D26   D(9,7,8,13)             0.7417         estimate D2E/DX2                !
 ! D27   D(6,7,9,10)             3.1149         estimate D2E/DX2                !
 ! D28   D(6,7,9,14)           122.8532         estimate D2E/DX2                !
 ! D29   D(6,7,9,15)          -116.4106         estimate D2E/DX2                !
 ! D30   D(8,7,9,10)          -177.7569         estimate D2E/DX2                !
 ! D31   D(8,7,9,14)           -58.0186         estimate D2E/DX2                !
 ! D32   D(8,7,9,15)            62.7177         estimate D2E/DX2                !
 ! D33   D(7,9,10,11)           -4.68           estimate D2E/DX2                !
 ! D34   D(7,9,10,16)         -123.0249         estimate D2E/DX2                !
 ! D35   D(7,9,10,17)          113.4723         estimate D2E/DX2                !
 ! D36   D(14,9,10,11)        -124.6735         estimate D2E/DX2                !
 ! D37   D(14,9,10,16)         116.9816         estimate D2E/DX2                !
 ! D38   D(14,9,10,17)          -6.5212         estimate D2E/DX2                !
 ! D39   D(15,9,10,11)         114.3915         estimate D2E/DX2                !
 ! D40   D(15,9,10,16)          -3.9534         estimate D2E/DX2                !
 ! D41   D(15,9,10,17)        -127.4562         estimate D2E/DX2                !
 ! D42   D(9,10,11,6)            4.7355         estimate D2E/DX2                !
 ! D43   D(16,10,11,6)         126.4529         estimate D2E/DX2                !
 ! D44   D(17,10,11,6)        -116.4048         estimate D2E/DX2                !
 --------------------------------------------------------------------------------
 Trust Radius=3.00D-01 FncErr=1.00D-07 GrdErr=1.00D-06 EigMax=2.50D+02 EigMin=1.00D-04
 Number of steps in this run=    102 maximum allowed number of steps=    102.
 GradGradGradGradGradGradGradGradGradGradGradGradGradGradGradGradGradGrad

                          Input orientation:                          
 ---------------------------------------------------------------------
 Center     Atomic      Atomic             Coordinates (Angstroms)
 Number     Number       Type             X           Y           Z
 ---------------------------------------------------------------------
      1         35           0        3.493747   -0.894522    0.001998
      2          6           0        1.821228   -0.002550    0.002000
      3          6           0        0.658027   -0.753240    0.002001
      4          6           0       -0.580040   -0.118006   -0.001998
      5         53           0       -2.347052   -1.217743    0.000000
      6          6           0       -0.608671    1.264916   -0.005997
      7          6           0        0.563087    2.008785   -0.003995
      8          6           0        1.791790    1.387082    0.000004
      9          6           0        0.191675    3.466086   -0.025986
     10          6           0       -1.350171    3.402564    0.041978
     11          8           0       -1.726274    2.012932   -0.017995
     12          1           0        0.711416   -1.832693    0.004000
     13          1           0        2.710838    1.957519   -0.001995
     14          1           0        0.613018    4.011640    0.820530
     15          1           0        0.541058    3.951667   -0.940468
     16          1           0       -1.833510    3.911581   -0.796312
     17          1           0       -1.741558    3.811630    0.976218
 ---------------------------------------------------------------------
                    Distance matrix (angstroms):
                    1          2          3          4          5
     1  Br   0.000000
     2  C    1.895504   0.000000
     3  C    2.839237   1.384403   0.000000
     4  C    4.147136   2.404045   1.391527   0.000000
     5  I    5.849736   4.341803   3.040767   2.081287   0.000000
     6  C    4.636062   2.740610   2.382759   1.383224   3.030776
     7  C    4.125287   2.372430   2.763663   2.414536   4.345044
     8  C    2.846468   1.389945   2.422065   2.809069   4.890309
     9  C    5.469860   3.832449   4.245112   3.666311   5.327670
    10  C    6.475345   4.653404   4.615752   3.604088   4.726814
    11  O    5.975141   4.080115   3.651986   2.419712   3.289825
    12  H    2.936245   2.140353   1.080774   2.146636   3.119680
    13  H    2.957550   2.152508   3.400333   3.890717   5.971980
    14  H    5.747958   4.271239   4.834883   4.376519   6.064794
    15  H    5.752579   4.261797   4.799800   4.324329   5.995703
    16  H    7.219113   5.414317   5.348422   4.294146   5.216110
    17  H    7.106714   5.309474   5.248347   4.212846   5.158897
                    6          7          8          9         10
     6  C    0.000000
     7  C    1.387934   0.000000
     8  C    2.403575   1.377041   0.000000
     9  C    2.342243   1.504047   2.623605   0.000000
    10  C    2.263109   2.367549   3.733075   1.544650   0.000000
    11  O    1.344882   2.289408   3.573344   2.406294   1.440877
    12  H    3.367181   3.844349   3.396200   5.324292   5.626677
    13  H    3.390996   2.148364   1.081689   2.936415   4.310671
    14  H    3.117718   2.166509   2.991834   1.091672   2.198005
    15  H    3.068182   2.156909   3.004316   1.092765   2.200787
    16  H    3.021533   3.161025   4.488877   2.212067   1.093364
    17  H    2.955323   3.085848   4.394994   2.204814   1.092393
                   11         12         13         14         15
    11  O    0.000000
    12  H    4.553202   0.000000
    13  H    4.437487   4.285257   0.000000
    14  H    3.189082   5.901918   3.049067   0.000000
    15  H    3.122570   5.863434   3.092782   1.763488   0.000000
    16  H    2.054786   6.333548   5.010030   2.934227   2.379277
    17  H    2.055239   6.230624   4.921225   2.368179   2.983895
                   16         17
    16  H    0.000000
    17  H    1.777726   0.000000
 Stoichiometry    C8H6BrIO
 Framework group  C1[X(C8H6BrIO)]
 Deg. of freedom    45
 Full point group                 C1      NOp   1
 Largest Abelian subgroup         C1      NOp   1
 Largest concise Abelian subgroup C1      NOp   1
                         Standard orientation:                         
 ---------------------------------------------------------------------
 Center     Atomic      Atomic             Coordinates (Angstroms)
 Number     Number       Type             X           Y           Z
 ---------------------------------------------------------------------
      1         35           0        3.493752   -0.894502    0.001758
      2          6           0        1.821228   -0.002539    0.001760
      3          6           0        0.658031   -0.753236    0.001761
      4          6           0       -0.580039   -0.118009   -0.002238
      5         53           0       -2.347045   -1.217756   -0.000240
      6          6           0       -0.608678    1.264913   -0.006237
      7          6           0        0.563075    2.008788   -0.004235
      8          6           0        1.791782    1.387093   -0.000236
      9          6           0        0.191655    3.466087   -0.026226
     10          6           0       -1.350191    3.402556    0.041738
     11          8           0       -1.726286    2.012922   -0.018235
     12          1           0        0.711427   -1.832689    0.003760
     13          1           0        2.710827    1.957535   -0.002235
     14          1           0        0.612995    4.011644    0.820290
     15          1           0        0.541035    3.951670   -0.940708
     16          1           0       -1.833533    3.911571   -0.796552
     17          1           0       -1.741580    3.811620    0.975978
 ---------------------------------------------------------------------
 Rotational constants (GHZ):           0.6642203           0.2737165           0.1943160
 Standard basis: def2TZVP (5D, 7F)
 There are   474 symmetry adapted cartesian basis functions of A   symmetry.
 There are   413 symmetry adapted basis functions of A   symmetry.
   413 basis functions,   730 primitive gaussians,   474 cartesian basis functions
    61 alpha electrons       61 beta electrons
       nuclear repulsion energy      1002.4673934974 Hartrees.
 NAtoms=   17 NActive=   17 NUniq=   17 SFac= 1.00D+00 NAtFMM=   60 NAOKFM=F Big=F
 Integral buffers will be    131072 words long.
 Raffenetti 2 integral format.
 Two-electron integral symmetry is turned on.
 Nuclear repulsion after empirical dispersion term =     1002.4567286576 Hartrees.
 One-electron integrals computed using PRISM.
   1 Symmetry operations used in ECPInt.
 ECPInt:  NShTT=   12090 NPrTT=   41358 LenC2=   11391 LenP2D=   28931.
 LDataN:  DoStor=T MaxTD1= 7 Len=  274
 NBasis=   413 RedAO= T EigKep=  6.11D-06  NBF=   413
 NBsUse=   413 1.00D-06 EigRej= -1.00D+00 NBFU=   413
 Defaulting to unpruned grid for atomic number  53.
 ExpMin= 7.49D-02 ExpMax= 5.65D+05 ExpMxC= 5.46D+03 IAcc=3 IRadAn=         5 AccDes= 0.00D+00
 Harris functional with IExCor= 4639 and IRadAn=       5 diagonalized for initial guess.
 HarFok:  IExCor= 4639 AccDes= 0.00D+00 IRadAn=         5 IDoV= 1 UseB2=F ITyADJ=14
 ICtDFT=  3500011 ScaDFX=  1.000000  1.000000  1.000000  1.000000
 Defaulting to unpruned grid for atomic number  53.
 FoFCou: FMM=F IPFlag=           0 FMFlag=      100000 FMFlg1=           0
         NFxFlg=           0 DoJE=T BraDBF=F KetDBF=T FulRan=T
         wScrn=  0.000000 ICntrl=       500 IOpCl=  0 I1Cent=   200000004 NGrid=           0
         NMat0=    1 NMatS0=      1 NMatT0=    0 NMatD0=    1 NMtDS0=    0 NMtDT0=    0
 Petite list used in FoFCou.
 Requested convergence on RMS density matrix=1.00D-08 within 128 cycles.
 Requested convergence on MAX density matrix=1.00D-06.
 Requested convergence on             energy=1.00D-06.
 No special actions if energy rises.
 Integral accuracy reduced to 1.0D-05 until final iterations.
 Defaulting to unpruned grid for atomic number  53.
 Defaulting to unpruned grid for atomic number  53.
 Defaulting to unpruned grid for atomic number  53.
 Defaulting to unpruned grid for atomic number  53.
 Defaulting to unpruned grid for atomic number  53.
 Defaulting to unpruned grid for atomic number  53.
 Defaulting to unpruned grid for atomic number  53.
 Defaulting to unpruned grid for atomic number  53.
 Defaulting to unpruned grid for atomic number  53.
 Defaulting to unpruned grid for atomic number  53.
 Defaulting to unpruned grid for atomic number  53.
 Defaulting to unpruned grid for atomic number  53.
 Defaulting to unpruned grid for atomic number  53.
 Defaulting to unpruned grid for atomic number  53.
 Defaulting to unpruned grid for atomic number  53.
 Defaulting to unpruned grid for atomic number  53.
 Defaulting to unpruned grid for atomic number  53.
 Defaulting to unpruned grid for atomic number  53.
 Defaulting to unpruned grid for atomic number  53.
 Defaulting to unpruned grid for atomic number  53.
 Defaulting to unpruned grid for atomic number  53.
 Defaulting to unpruned grid for atomic number  53.
 Defaulting to unpruned grid for atomic number  53.
 Defaulting to unpruned grid for atomic number  53.
 Problem detected with inexpensive integrals.
 Switching to full accuracy and repeating last cycle.
 SCF Done:  E(RwB97XD) =  -3255.69077429     A.U. after   21 cycles
            NFock= 21  Conv=0.72D-08     -V/T= 2.0618

 **********************************************************************

            Population analysis using the SCF Density.

 **********************************************************************

 Orbital symmetries:
       Occupied  (A) (A) (A) (A) (A) (A) (A) (A) (A) (A) (A) (A)
                 (A) (A) (A) (A) (A) (A) (A) (A) (A) (A) (A) (A)
                 (A) (A) (A) (A) (A) (A) (A) (A) (A) (A) (A) (A)
                 (A) (A) (A) (A) (A) (A) (A) (A) (A) (A) (A) (A)
                 (A) (A) (A) (A) (A) (A) (A) (A) (A) (A) (A) (A)
                 (A)
       Virtual   (A) (A) (A) (A) (A) (A) (A) (A) (A) (A) (A) (A)
                 (A) (A) (A) (A) (A) (A) (A) (A) (A) (A) (A) (A)
                 (A) (A) (A) (A) (A) (A) (A) (A) (A) (A) (A) (A)
                 (A) (A) (A) (A) (A) (A) (A) (A) (A) (A) (A) (A)
                 (A) (A) (A) (A) (A) (A) (A) (A) (A) (A) (A) (A)
                 (A) (A) (A) (A) (A) (A) (A) (A) (A) (A) (A) (A)
                 (A) (A) (A) (A) (A) (A) (A) (A) (A) (A) (A) (A)
                 (A) (A) (A) (A) (A) (A) (A) (A) (A) (A) (A) (A)
                 (A) (A) (A) (A) (A) (A) (A) (A) (A) (A) (A) (A)
                 (A) (A) (A) (A) (A) (A) (A) (A) (A) (A) (A) (A)
                 (A) (A) (A) (A) (A) (A) (A) (A) (A) (A) (A) (A)
                 (A) (A) (A) (A) (A) (A) (A) (A) (A) (A) (A) (A)
                 (A) (A) (A) (A) (A) (A) (A) (A) (A) (A) (A) (A)
                 (A) (A) (A) (A) (A) (A) (A) (A) (A) (A) (A) (A)
                 (A) (A) (A) (A) (A) (A) (A) (A) (A) (A) (A) (A)
                 (A) (A) (A) (A) (A) (A) (A) (A) (A) (A) (A) (A)
                 (A) (A) (A) (A) (A) (A) (A) (A) (A) (A) (A) (A)
                 (A) (A) (A) (A) (A) (A) (A) (A) (A) (A) (A) (A)
                 (A) (A) (A) (A) (A) (A) (A) (A) (A) (A) (A) (A)
                 (A) (A) (A) (A) (A) (A) (A) (A) (A) (A) (A) (A)
                 (A) (A) (A) (A) (A) (A) (A) (A) (A) (A) (A) (A)
                 (A) (A) (A) (A) (A) (A) (A) (A) (A) (A) (A) (A)
                 (A) (A) (A) (A) (A) (A) (A) (A) (A) (A) (A) (A)
                 (A) (A) (A) (A) (A) (A) (A) (A) (A) (A) (A) (A)
                 (A) (A) (A) (A) (A) (A) (A) (A) (A) (A) (A) (A)
                 (A) (A) (A) (A) (A) (A) (A) (A) (A) (A) (A) (A)
                 (A) (A) (A) (A) (A) (A) (A) (A) (A) (A) (A) (A)
                 (A) (A) (A) (A) (A) (A) (A) (A) (A) (A) (A) (A)
                 (A) (A) (A) (A) (A) (A) (A) (A) (A) (A) (A) (A)
                 (A) (A) (A) (A)
 The electronic state is 1-A.
 Alpha  occ. eigenvalues -- -483.13024 -62.67863 -56.46981 -56.46621 -56.46618
 Alpha  occ. eigenvalues --  -19.29599 -10.36248 -10.35816 -10.34948 -10.34295
 Alpha  occ. eigenvalues --  -10.31555 -10.31342 -10.31264 -10.31140  -8.81979
 Alpha  occ. eigenvalues --   -6.96273  -6.64144  -6.62984  -6.62973  -4.98319
 Alpha  occ. eigenvalues --   -4.97067  -4.97030  -2.74535  -2.74189  -2.74183
 Alpha  occ. eigenvalues --   -2.73244  -2.73244  -2.01781  -2.01364  -2.01345
 Alpha  occ. eigenvalues --   -2.00262  -2.00262  -1.19725  -0.99335  -0.92079
 Alpha  occ. eigenvalues --   -0.91412  -0.85801  -0.83677  -0.79423  -0.74436
 Alpha  occ. eigenvalues --   -0.70812  -0.69005  -0.61778  -0.60659  -0.60189
 Alpha  occ. eigenvalues --   -0.55934  -0.52231  -0.51185  -0.50728  -0.50300
 Alpha  occ. eigenvalues --   -0.49462  -0.46399  -0.44920  -0.44293  -0.42372
 Alpha  occ. eigenvalues --   -0.39410  -0.37497  -0.36965  -0.34223  -0.32332
 Alpha  occ. eigenvalues --   -0.29670
 Alpha virt. eigenvalues --    0.02965   0.03369   0.05259   0.08094   0.10392
 Alpha virt. eigenvalues --    0.13305   0.14345   0.14760   0.15424   0.16823
 Alpha virt. eigenvalues --    0.18964   0.19950   0.20251   0.21586   0.22387
 Alpha virt. eigenvalues --    0.22628   0.22919   0.24099   0.24557   0.24661
 Alpha virt. eigenvalues --    0.25919   0.27459   0.27532   0.27899   0.28632
 Alpha virt. eigenvalues --    0.29970   0.30661   0.31191   0.31785   0.32841
 Alpha virt. eigenvalues --    0.34025   0.34590   0.34715   0.35044   0.35746
 Alpha virt. eigenvalues --    0.36450   0.38153   0.38851   0.40062   0.41829
 Alpha virt. eigenvalues --    0.42493   0.43217   0.43899   0.44981   0.45912
 Alpha virt. eigenvalues --    0.47152   0.47774   0.49013   0.49230   0.49539
 Alpha virt. eigenvalues --    0.50056   0.51208   0.52015   0.52461   0.53182
 Alpha virt. eigenvalues --    0.54909   0.55495   0.56128   0.57837   0.58845
 Alpha virt. eigenvalues --    0.60371   0.60918   0.62710   0.63677   0.64458
 Alpha virt. eigenvalues --    0.64569   0.68667   0.69618   0.70708   0.71963
 Alpha virt. eigenvalues --    0.72550   0.74721   0.75199   0.75567   0.77500
 Alpha virt. eigenvalues --    0.78412   0.79900   0.80927   0.82450   0.83259
 Alpha virt. eigenvalues --    0.85921   0.87017   0.87359   0.87874   0.88408
 Alpha virt. eigenvalues --    0.90749   0.93513   0.93786   0.93998   0.95393
 Alpha virt. eigenvalues --    0.96562   0.97240   0.98422   0.98981   0.99762
 Alpha virt. eigenvalues --    1.01560   1.03403   1.04050   1.04955   1.07206
 Alpha virt. eigenvalues --    1.08620   1.09997   1.10598   1.11727   1.15955
 Alpha virt. eigenvalues --    1.17303   1.17947   1.18530   1.21098   1.22523
 Alpha virt. eigenvalues --    1.24856   1.26141   1.27611   1.28321   1.29205
 Alpha virt. eigenvalues --    1.31323   1.32971   1.33827   1.34555   1.35801
 Alpha virt. eigenvalues --    1.37587   1.38224   1.39686   1.42238   1.43468
 Alpha virt. eigenvalues --    1.44593   1.44919   1.46635   1.46955   1.49461
 Alpha virt. eigenvalues --    1.50000   1.51338   1.52235   1.52795   1.53338
 Alpha virt. eigenvalues --    1.55609   1.55828   1.58067   1.59864   1.60508
 Alpha virt. eigenvalues --    1.61867   1.62406   1.62842   1.63567   1.65554
 Alpha virt. eigenvalues --    1.66989   1.67355   1.67899   1.69015   1.71144
 Alpha virt. eigenvalues --    1.72557   1.74289   1.76925   1.78328   1.78815
 Alpha virt. eigenvalues --    1.79763   1.81178   1.82875   1.84339   1.86140
 Alpha virt. eigenvalues --    1.87380   1.90788   1.92382   1.92767   1.95124
 Alpha virt. eigenvalues --    1.95648   1.96397   2.00073   2.00310   2.02660
 Alpha virt. eigenvalues --    2.05544   2.05878   2.07386   2.08760   2.10860
 Alpha virt. eigenvalues --    2.14285   2.16370   2.20275   2.21348   2.21875
 Alpha virt. eigenvalues --    2.24016   2.25070   2.30270   2.30943   2.34019
 Alpha virt. eigenvalues --    2.38728   2.39523   2.41986   2.44070   2.46511
 Alpha virt. eigenvalues --    2.48066   2.48688   2.51716   2.52376   2.58281
 Alpha virt. eigenvalues --    2.58608   2.60851   2.61987   2.63683   2.67798
 Alpha virt. eigenvalues --    2.69330   2.71436   2.74431   2.75079   2.76091
 Alpha virt. eigenvalues --    2.77384   2.80272   2.82334   2.83258   2.85238
 Alpha virt. eigenvalues --    2.86594   2.88044   2.88332   2.88894   2.92128
 Alpha virt. eigenvalues --    2.93227   2.94482   2.96488   2.98258   2.99990
 Alpha virt. eigenvalues --    3.01948   3.02977   3.04118   3.06205   3.06326
 Alpha virt. eigenvalues --    3.09953   3.10686   3.12210   3.13355   3.14100
 Alpha virt. eigenvalues --    3.15192   3.15879   3.17089   3.18762   3.19896
 Alpha virt. eigenvalues --    3.21621   3.22729   3.23149   3.24812   3.25719
 Alpha virt. eigenvalues --    3.27823   3.28799   3.29429   3.31161   3.32095
 Alpha virt. eigenvalues --    3.32813   3.34604   3.35824   3.37909   3.39393
 Alpha virt. eigenvalues --    3.41019   3.41884   3.43180   3.43738   3.47010
 Alpha virt. eigenvalues --    3.47333   3.48014   3.49940   3.52010   3.54795
 Alpha virt. eigenvalues --    3.55795   3.56511   3.57829   3.59401   3.60751
 Alpha virt. eigenvalues --    3.62395   3.66211   3.67458   3.68517   3.69931
 Alpha virt. eigenvalues --    3.72520   3.77428   3.78291   3.79197   3.80332
 Alpha virt. eigenvalues --    3.82903   3.90023   3.92688   3.95659   3.98271
 Alpha virt. eigenvalues --    3.99980   4.01081   4.02118   4.07989   4.09081
 Alpha virt. eigenvalues --    4.10977   4.12401   4.16299   4.18971   4.22502
 Alpha virt. eigenvalues --    4.25447   4.27369   4.28264   4.28546   4.30420
 Alpha virt. eigenvalues --    4.35447   4.36477   4.36590   4.39770   4.41593
 Alpha virt. eigenvalues --    4.43326   4.46622   4.51058   4.54094   4.56099
 Alpha virt. eigenvalues --    4.59645   4.61232   4.64796   4.73381   4.74210
 Alpha virt. eigenvalues --    4.76118   4.77493   4.83827   4.87631   4.90918
 Alpha virt. eigenvalues --    4.99833   5.02721   5.11148   5.17189   5.20793
 Alpha virt. eigenvalues --    5.26494   5.37608   5.47270   5.51989   5.54327
 Alpha virt. eigenvalues --    5.57883   5.81542   5.82343   5.97358   6.10991
 Alpha virt. eigenvalues --    6.37278   6.61486   6.75999   6.93601   6.94987
 Alpha virt. eigenvalues --    7.27008   7.47425   7.86202  22.18459  22.52948
 Alpha virt. eigenvalues --   22.65955  22.81082  22.86111  23.00962  23.07668
 Alpha virt. eigenvalues --   23.67177  34.76682  34.87183  35.16779  42.99534
 Alpha virt. eigenvalues --   44.28296 119.74446
          Condensed to atoms (all electrons):
               1          2          3          4          5          6
     1  Br  34.848725   0.360108  -0.087146   0.024466  -0.000614  -0.005796
     2  C    0.360108   4.917975   0.304520   0.088072   0.009240  -0.101905
     3  C   -0.087146   0.304520   5.403425   0.373723  -0.079145  -0.050890
     4  C    0.024466   0.088072   0.373723   5.062848   0.366614   0.329595
     5  I   -0.000614   0.009240  -0.079145   0.366614  24.714702  -0.074305
     6  C   -0.005796  -0.101905  -0.050890   0.329595  -0.074305   5.041477
     7  C    0.023683   0.081930  -0.136050  -0.003742   0.003579   0.383079
     8  C   -0.085798   0.302427   0.077037  -0.113775   0.005540   0.039653
     9  C   -0.000475   0.005675  -0.000797  -0.001079  -0.002964  -0.057979
    10  C   -0.000003   0.000938  -0.001347   0.008188   0.002141  -0.051116
    11  O   -0.000002  -0.000185   0.001424  -0.059118   0.007099   0.368802
    12  H   -0.005309  -0.061438   0.438707  -0.065080  -0.003677   0.022794
    13  H   -0.003746  -0.059026   0.018521  -0.006029   0.000094   0.013661
    14  H   -0.000005  -0.000417   0.000228   0.000048   0.000054   0.002847
    15  H   -0.000004  -0.000388   0.000209   0.000193   0.000058  -0.003953
    16  H   -0.000000  -0.000136   0.000158   0.000007  -0.000073   0.006800
    17  H    0.000000  -0.000056  -0.000026   0.003240  -0.000061   0.010380
               7          8          9         10         11         12
     1  Br   0.023683  -0.085798  -0.000475  -0.000003  -0.000002  -0.005309
     2  C    0.081930   0.302427   0.005675   0.000938  -0.000185  -0.061438
     3  C   -0.136050   0.077037  -0.000797  -0.001347   0.001424   0.438707
     4  C   -0.003742  -0.113775  -0.001079   0.008188  -0.059118  -0.065080
     5  I    0.003579   0.005540  -0.002964   0.002141   0.007099  -0.003677
     6  C    0.383079   0.039653  -0.057979  -0.051116   0.368802   0.022794
     7  C    5.440971   0.179441   0.303725  -0.067723  -0.087364  -0.004786
     8  C    0.179441   5.492483  -0.082472   0.000024   0.005611   0.016219
     9  C    0.303725  -0.082472   4.920041   0.410738  -0.047885   0.000123
    10  C   -0.067723   0.000024   0.410738   4.632343   0.264156   0.000031
    11  O   -0.087364   0.005611  -0.047885   0.264156   7.915901  -0.000084
    12  H   -0.004786   0.016219   0.000123   0.000031  -0.000084   0.511500
    13  H   -0.053617   0.439968  -0.001835  -0.000276  -0.000066   0.000090
    14  H   -0.034207   0.003300   0.401722  -0.027269   0.003696  -0.000002
    15  H   -0.028654   0.006604   0.387641  -0.022303   0.003984  -0.000003
    16  H    0.003127   0.000287  -0.031795   0.412523  -0.037284   0.000000
    17  H   -0.005348  -0.000069  -0.021884   0.402220  -0.040974  -0.000001
              13         14         15         16         17
     1  Br  -0.003746  -0.000005  -0.000004  -0.000000   0.000000
     2  C   -0.059026  -0.000417  -0.000388  -0.000136  -0.000056
     3  C    0.018521   0.000228   0.000209   0.000158  -0.000026
     4  C   -0.006029   0.000048   0.000193   0.000007   0.003240
     5  I    0.000094   0.000054   0.000058  -0.000073  -0.000061
     6  C    0.013661   0.002847  -0.003953   0.006800   0.010380
     7  C   -0.053617  -0.034207  -0.028654   0.003127  -0.005348
     8  C    0.439968   0.003300   0.006604   0.000287  -0.000069
     9  C   -0.001835   0.401722   0.387641  -0.031795  -0.021884
    10  C   -0.000276  -0.027269  -0.022303   0.412523   0.402220
    11  O   -0.000066   0.003696   0.003984  -0.037284  -0.040974
    12  H    0.000090  -0.000002  -0.000003   0.000000  -0.000001
    13  H    0.514189   0.000736   0.000473   0.000009  -0.000016
    14  H    0.000736   0.570138  -0.035161   0.005492  -0.013529
    15  H    0.000473  -0.035161   0.580006  -0.013431   0.006517
    16  H    0.000009   0.005492  -0.013431   0.592873  -0.044121
    17  H   -0.000016  -0.013529   0.006517  -0.044121   0.604056
 Mulliken charges:
               1
     1  Br  -0.068084
     2  C    0.152667
     3  C   -0.262552
     4  C   -0.008170
     5  I    0.051719
     6  C    0.126857
     7  C    0.001957
     8  C   -0.286479
     9  C   -0.180501
    10  C    0.036735
    11  O   -0.297711
    12  H    0.150916
    13  H    0.136871
    14  H    0.122331
    15  H    0.118212
    16  H    0.105561
    17  H    0.099672
 Sum of Mulliken charges =  -0.00000
 Mulliken charges with hydrogens summed into heavy atoms:
               1
     1  Br  -0.068084
     2  C    0.152667
     3  C   -0.111636
     4  C   -0.008170
     5  I    0.051719
     6  C    0.126857
     7  C    0.001957
     8  C   -0.149608
     9  C    0.060042
    10  C    0.241968
    11  O   -0.297711
 Electronic spatial extent (au):  <R**2>=           3859.8795
 Charge=             -0.0000 electrons
 Dipole moment (field-independent basis, Debye):
    X=             -0.0335    Y=              3.4679    Z=              0.0337  Tot=              3.4682
 Quadrupole moment (field-independent basis, Debye-Ang):
   XX=           -100.9329   YY=            -81.0416   ZZ=            -98.2581
   XY=              1.6477   XZ=             -0.1040   YZ=              0.0914
 Traceless Quadrupole moment (field-independent basis, Debye-Ang):
   XX=             -7.5221   YY=             12.3693   ZZ=             -4.8472
   XY=              1.6477   XZ=             -0.1040   YZ=              0.0914
 Octapole moment (field-independent basis, Debye-Ang**2):
  XXX=            -26.7764  YYY=            -27.3868  ZZZ=             -0.0046  XYY=            -12.5204
  XXY=            -27.6326  XXZ=              0.1040  XZZ=             -8.5365  YZZ=            -21.6161
  YYZ=              0.2317  XYZ=             -0.1248
 Hexadecapole moment (field-independent basis, Debye-Ang**3):
 XXXX=          -2765.5968 YYYY=          -1621.4083 ZZZZ=           -131.3489 XXXY=             66.0457
 XXXZ=              0.3914 YYYX=             -0.0127 YYYZ=              0.2332 ZZZX=              0.0501
 ZZZY=             -0.1131 XXYY=           -720.1968 XXZZ=           -503.1806 YYZZ=           -312.6652
 XXYZ=              0.0054 YYXZ=              0.5043 ZZXY=              4.4793
 N-N= 1.002456728658D+03 E-N=-9.681617416373D+03  KE= 3.066060972156D+03
   1 Symmetry operations used in ECPInt.
 ECPInt:  NShTT=   12090 NPrTT=   41358 LenC2=   11391 LenP2D=   28931.
 LDataN:  DoStor=T MaxTD1= 8 Len=  415
 Calling FoFJK, ICntrl=      2127 FMM=F ISym2X=0 I1Cent= 0 IOpClX= 0 NMat=1 NMatS=1 NMatT=0.
 Defaulting to unpruned grid for atomic number  53.
 Defaulting to unpruned grid for atomic number  53.
 Defaulting to unpruned grid for atomic number  53.
 Defaulting to unpruned grid for atomic number  53.
 Defaulting to unpruned grid for atomic number  53.
 Defaulting to unpruned grid for atomic number  53.
 Defaulting to unpruned grid for atomic number  53.
 Defaulting to unpruned grid for atomic number  53.
 Defaulting to unpruned grid for atomic number  53.
 Defaulting to unpruned grid for atomic number  53.
 Defaulting to unpruned grid for atomic number  53.
 Defaulting to unpruned grid for atomic number  53.
 Defaulting to unpruned grid for atomic number  53.
 Defaulting to unpruned grid for atomic number  53.
 Defaulting to unpruned grid for atomic number  53.
 Defaulting to unpruned grid for atomic number  53.
 Defaulting to unpruned grid for atomic number  53.
 Defaulting to unpruned grid for atomic number  53.
 Defaulting to unpruned grid for atomic number  53.
 Defaulting to unpruned grid for atomic number  53.
 Defaulting to unpruned grid for atomic number  53.
 Defaulting to unpruned grid for atomic number  53.
 Defaulting to unpruned grid for atomic number  53.
 Defaulting to unpruned grid for atomic number  53.
 ***** Axes restored to original set *****
 -------------------------------------------------------------------
 Center     Atomic                   Forces (Hartrees/Bohr)
 Number     Number              X              Y              Z
 -------------------------------------------------------------------
      1       35           0.000002838    0.000021590    0.000092933
      2        6           0.000014556   -0.000158068    0.000065453
      3        6           0.000056791    0.000042731   -0.000154964
      4        6           0.000026902    0.000194324    0.000085834
      5       53           0.000009312   -0.000008287   -0.000048369
      6        6           0.000046662   -0.000165545   -0.000019071
      7        6          -0.000015134    0.000096887    0.000211128
      8        6          -0.000021209    0.000166618   -0.000175634
      9        6          -0.000054190    0.000776648   -0.000254325
     10        6          -0.000546022    0.000979187   -0.001130197
     11        8          -0.000300870    0.000981368   -0.000022541
     12        1          -0.000025669    0.000000494    0.000048711
     13        1           0.000000995   -0.000011722    0.000054580
     14        1          -0.000323795   -0.000492377   -0.000721165
     15        1          -0.000569471   -0.000399738    0.000883454
     16        1           0.001155742   -0.001369668    0.002180871
     17        1           0.000542564   -0.000654442   -0.001096697
 -------------------------------------------------------------------
 Cartesian Forces:  Max     0.002180871 RMS     0.000569655

 GradGradGradGradGradGradGradGradGradGradGradGradGradGradGradGradGradGrad
 Berny optimization.
 FormGI is forming the generalized inverse of G from B-inverse, IUseBI=4.
 Internal  Forces:  Max     0.002820691 RMS     0.000394945
 Search for a local minimum.
 Step number   1 out of a maximum of  102
 All quantities printed in internal units (Hartrees-Bohrs-Radians)
 Mixed Optimization -- En-DIIS/RFO-DIIS
 Second derivative matrix not updated -- first step.
 ITU=  0
     Eigenvalues ---    0.00545   0.01546   0.01837   0.02234   0.02252
     Eigenvalues ---    0.02255   0.02268   0.02287   0.02307   0.02342
     Eigenvalues ---    0.04290   0.04466   0.05502   0.05894   0.07987
     Eigenvalues ---    0.08858   0.11413   0.11719   0.14665   0.16000
     Eigenvalues ---    0.16000   0.18472   0.22650   0.23496   0.23597
     Eigenvalues ---    0.24764   0.24998   0.25000   0.25000   0.27578
     Eigenvalues ---    0.31197   0.34427   0.34495   0.34538   0.34620
     Eigenvalues ---    0.35791   0.35901   0.37801   0.41952   0.43691
     Eigenvalues ---    0.46665   0.47731   0.48116   0.49119   0.53720
 RFO step:  Lambda=-5.38683702D-05 EMin= 5.45412191D-03
 Linear search not attempted -- first point.
 Iteration  1 RMS(Cart)=  0.00602363 RMS(Int)=  0.00001936
 Iteration  2 RMS(Cart)=  0.00002399 RMS(Int)=  0.00000302
 Iteration  3 RMS(Cart)=  0.00000000 RMS(Int)=  0.00000302
 Variable       Old X    -DE/DX   Delta X   Delta X   Delta X     New X
                                 (Linear)    (Quad)   (Total)
    R1        3.58198  -0.00001   0.00000  -0.00004  -0.00004   3.58194
    R2        2.61614  -0.00002   0.00000  -0.00004  -0.00004   2.61611
    R3        2.62662   0.00008   0.00000   0.00018   0.00018   2.62679
    R4        2.62961   0.00005   0.00000   0.00009   0.00009   2.62970
    R5        2.04237  -0.00000   0.00000  -0.00000  -0.00000   2.04236
    R6        3.93306  -0.00000   0.00000  -0.00002  -0.00002   3.93304
    R7        2.61391  -0.00017   0.00000  -0.00036  -0.00036   2.61356
    R8        2.62282  -0.00003   0.00000   0.00004   0.00004   2.62285
    R9        2.54146   0.00016   0.00000   0.00032   0.00032   2.54178
   R10        2.60223  -0.00005   0.00000  -0.00010  -0.00010   2.60213
   R11        2.84224  -0.00026   0.00000  -0.00075  -0.00076   2.84148
   R12        2.04410  -0.00001   0.00000  -0.00002  -0.00002   2.04408
   R13        2.91897  -0.00099   0.00000  -0.00368  -0.00368   2.91528
   R14        2.06296  -0.00093   0.00000  -0.00269  -0.00269   2.06028
   R15        2.06503  -0.00110   0.00000  -0.00318  -0.00318   2.06184
   R16        2.72286  -0.00083   0.00000  -0.00219  -0.00219   2.72067
   R17        2.06616  -0.00282   0.00000  -0.00819  -0.00819   2.05797
   R18        2.06432  -0.00138   0.00000  -0.00399  -0.00399   2.06034
    A1        2.07854   0.00007   0.00000   0.00024   0.00024   2.07878
    A2        2.08192  -0.00000   0.00000  -0.00003  -0.00003   2.08188
    A3        2.12273  -0.00006   0.00000  -0.00021  -0.00021   2.12252
    A4        2.09442   0.00003   0.00000   0.00017   0.00017   2.09459
    A5        2.09449   0.00001   0.00000   0.00009   0.00009   2.09457
    A6        2.09428  -0.00004   0.00000  -0.00025  -0.00025   2.09403
    A7        2.11082  -0.00004   0.00000  -0.00013  -0.00013   2.11069
    A8        2.06556   0.00003   0.00000   0.00010   0.00010   2.06566
    A9        2.10680   0.00001   0.00000   0.00003   0.00003   2.10684
   A10        2.11573  -0.00005   0.00000  -0.00028  -0.00028   2.11545
   A11        2.18132   0.00013   0.00000   0.00051   0.00051   2.18184
   A12        1.98612  -0.00008   0.00000  -0.00022  -0.00023   1.98590
   A13        2.10753   0.00010   0.00000   0.00038   0.00038   2.10791
   A14        1.88683  -0.00014   0.00000  -0.00045  -0.00046   1.88637
   A15        2.28873   0.00003   0.00000   0.00006   0.00007   2.28880
   A16        2.06040  -0.00005   0.00000  -0.00015  -0.00016   2.06025
   A17        2.10511   0.00001   0.00000   0.00001   0.00001   2.10511
   A18        2.11767   0.00004   0.00000   0.00016   0.00015   2.11783
   A19        1.77829  -0.00003   0.00000  -0.00050  -0.00051   1.77777
   A20        1.95796  -0.00007   0.00000  -0.00065  -0.00065   1.95731
   A21        1.94317   0.00017   0.00000   0.00201   0.00202   1.94519
   A22        1.95163   0.00002   0.00000  -0.00010  -0.00009   1.95154
   A23        1.95437  -0.00012   0.00000  -0.00123  -0.00123   1.95314
   A24        1.87911   0.00003   0.00000   0.00042   0.00042   1.87953
   A25        1.87379   0.00051   0.00000   0.00175   0.00174   1.87553
   A26        1.96967  -0.00003   0.00000   0.00050   0.00051   1.97018
   A27        1.96045  -0.00012   0.00000  -0.00046  -0.00046   1.95999
   A28        1.87726  -0.00024   0.00000  -0.00098  -0.00098   1.87628
   A29        1.87887  -0.00021   0.00000  -0.00128  -0.00127   1.87760
   A30        1.89968   0.00008   0.00000   0.00035   0.00035   1.90003
   A31        1.89561  -0.00027   0.00000  -0.00139  -0.00140   1.89421
    D1       -3.13827  -0.00010   0.00000  -0.00454  -0.00454   3.14037
    D2        0.00214  -0.00004   0.00000  -0.00147  -0.00147   0.00067
    D3        0.00163  -0.00007   0.00000  -0.00324  -0.00324  -0.00161
    D4       -3.14114  -0.00000   0.00000  -0.00016  -0.00016  -3.14131
    D5        3.13826   0.00013   0.00000   0.00544   0.00544  -3.13948
    D6        0.00049   0.00002   0.00000   0.00138   0.00138   0.00187
    D7       -0.00164   0.00009   0.00000   0.00414   0.00414   0.00250
    D8       -3.13941  -0.00001   0.00000   0.00007   0.00007  -3.13934
    D9       -3.14041   0.00000   0.00000   0.00059   0.00059  -3.13982
   D10        0.00007  -0.00000   0.00000  -0.00007  -0.00007   0.00000
   D11        0.00237  -0.00006   0.00000  -0.00249  -0.00249  -0.00012
   D12       -3.14033  -0.00007   0.00000  -0.00315  -0.00314   3.13971
   D13       -0.00173   0.00004   0.00000   0.00238   0.00238   0.00065
   D14        3.13443   0.00007   0.00000   0.00410   0.00410   3.13854
   D15        3.13875   0.00004   0.00000   0.00172   0.00172   3.14048
   D16       -0.00826   0.00006   0.00000   0.00344   0.00345  -0.00482
   D17        0.00173  -0.00001   0.00000  -0.00145  -0.00145   0.00029
   D18        3.12999  -0.00001   0.00000  -0.00199  -0.00198   3.12801
   D19       -3.13500  -0.00004   0.00000  -0.00299  -0.00299  -3.13799
   D20       -0.00674  -0.00004   0.00000  -0.00353  -0.00353  -0.01027
   D21        3.09736  -0.00002   0.00000  -0.00393  -0.00392   3.09344
   D22       -0.04930   0.00001   0.00000  -0.00232  -0.00231  -0.05161
   D23       -0.00003  -0.00005   0.00000  -0.00179  -0.00179  -0.00182
   D24        3.13771   0.00005   0.00000   0.00230   0.00230   3.14001
   D25       -3.12479  -0.00005   0.00000  -0.00111  -0.00111  -3.12591
   D26        0.01295   0.00005   0.00000   0.00298   0.00298   0.01593
   D27        0.05437   0.00005   0.00000   0.00728   0.00728   0.06164
   D28        2.14419   0.00002   0.00000   0.00656   0.00656   2.15075
   D29       -2.03175   0.00013   0.00000   0.00808   0.00807  -2.02367
   D30       -3.10244   0.00005   0.00000   0.00667   0.00667  -3.09578
   D31       -1.01261   0.00002   0.00000   0.00595   0.00595  -1.00667
   D32        1.09463   0.00013   0.00000   0.00746   0.00746   1.10209
   D33       -0.08168  -0.00009   0.00000  -0.00869  -0.00870  -0.09038
   D34       -2.14719  -0.00011   0.00000  -0.00891  -0.00891  -2.15610
   D35        1.98046  -0.00009   0.00000  -0.00941  -0.00942   1.97105
   D36       -2.17596   0.00001   0.00000  -0.00759  -0.00759  -2.18356
   D37        2.04171  -0.00002   0.00000  -0.00781  -0.00781   2.03391
   D38       -0.11382  -0.00000   0.00000  -0.00831  -0.00831  -0.12213
   D39        1.99651   0.00004   0.00000  -0.00720  -0.00720   1.98931
   D40       -0.06900   0.00002   0.00000  -0.00741  -0.00741  -0.07642
   D41       -2.22453   0.00004   0.00000  -0.00792  -0.00792  -2.23245
   D42        0.08265   0.00006   0.00000   0.00713   0.00713   0.08978
   D43        2.20702   0.00018   0.00000   0.00817   0.00817   2.21519
   D44       -2.03165   0.00003   0.00000   0.00741   0.00741  -2.02424
         Item               Value     Threshold  Converged?
 Maximum Force            0.002821     0.000450     NO 
 RMS     Force            0.000395     0.000300     NO 
 Maximum Displacement     0.025595     0.001800     NO 
 RMS     Displacement     0.006025     0.001200     NO 
 Predicted change in Energy=-2.696986D-05
 GradGradGradGradGradGradGradGradGradGradGradGradGradGradGradGradGradGrad

                          Input orientation:                          
 ---------------------------------------------------------------------
 Center     Atomic      Atomic             Coordinates (Angstroms)
 Number     Number       Type             X           Y           Z
 ---------------------------------------------------------------------
      1         35           0        3.493480   -0.893919    0.015394
      2          6           0        1.820976   -0.002040    0.004099
      3          6           0        0.657647   -0.752489    0.000938
      4          6           0       -0.580431   -0.117193   -0.005866
      5         53           0       -2.347322   -1.217102   -0.007602
      6          6           0       -0.609143    1.265540   -0.009310
      7          6           0        0.562794    2.009161   -0.006868
      8          6           0        1.791544    1.387677   -0.001262
      9          6           0        0.191166    3.465958   -0.031150
     10          6           0       -1.348268    3.401760    0.045986
     11          8           0       -1.726565    2.014163   -0.019240
     12          1           0        0.710713   -1.831948    0.005525
     13          1           0        2.710581    1.958119   -0.000780
     14          1           0        0.616555    4.012707    0.810727
     15          1           0        0.533022    3.949743   -0.947416
     16          1           0       -1.835499    3.913383   -0.782768
     17          1           0       -1.732642    3.804126    0.983577
 ---------------------------------------------------------------------
                    Distance matrix (angstroms):
                    1          2          3          4          5
     1  Br   0.000000
     2  C    1.895481   0.000000
     3  C    2.839395   1.384383   0.000000
     4  C    4.147350   2.404186   1.391576   0.000000
     5  I    5.849782   4.341799   3.040687   2.081276   0.000000
     6  C    4.636312   2.740878   2.382708   1.383035   3.030640
     7  C    4.125203   2.372356   2.763290   2.414196   4.344830
     8  C    2.846497   1.390039   2.421991   2.809078   4.890310
     9  C    5.469550   3.832040   4.244282   3.665375   5.326869
    10  C    6.472737   4.650991   4.613406   3.602123   4.725978
    11  O    5.975535   4.080522   3.652292   2.420017   3.290372
    12  H    2.936629   2.140385   1.080772   2.146525   3.119261
    13  H    2.957586   2.152590   3.400285   3.890720   5.971973
    14  H    5.743191   4.268427   4.833688   4.376719   6.066723
    15  H    5.757810   4.263894   4.798530   4.320446   5.989650
    16  H    7.221165   5.414748   5.347927   4.292355   5.213896
    17  H    7.093755   5.298535   5.238492   4.205155   5.154900
                    6          7          8          9         10
     6  C    0.000000
     7  C    1.387953   0.000000
     8  C    2.403805   1.376990   0.000000
     9  C    2.341541   1.503647   2.623234   0.000000
    10  C    2.261151   2.365224   3.730575   1.542702   0.000000
    11  O    1.345054   2.289398   3.573500   2.405316   1.439718
    12  H    3.366997   3.843976   3.396207   5.323446   5.624299
    13  H    3.391210   2.148403   1.081681   2.936316   4.308195
    14  H    3.117968   2.164613   2.988429   1.090251   2.195134
    15  H    3.064233   2.156704   3.007203   1.091080   2.196903
    16  H    3.018817   3.159096   4.488361   2.207371   1.089029
    17  H    2.948304   3.077646   4.385091   2.201151   1.090283
                   11         12         13         14         15
    11  O    0.000000
    12  H    4.553406   0.000000
    13  H    4.437539   4.285338   0.000000
    14  H    3.189551   5.900611   3.043817   0.000000
    15  H    3.116682   5.862390   3.099105   1.761252   0.000000
    16  H    2.049847   6.333516   5.010130   2.926031   2.374514
    17  H    2.051742   6.220281   4.911103   2.364764   2.980465
                   16         17
    16  H    0.000000
    17  H    1.772707   0.000000
 Stoichiometry    C8H6BrIO
 Framework group  C1[X(C8H6BrIO)]
 Deg. of freedom    45
 Full point group                 C1      NOp   1
 Largest Abelian subgroup         C1      NOp   1
 Largest concise Abelian subgroup C1      NOp   1
                         Standard orientation:                         
 ---------------------------------------------------------------------
 Center     Atomic      Atomic             Coordinates (Angstroms)
 Number     Number       Type             X           Y           Z
 ---------------------------------------------------------------------
      1         35           0        3.493582   -0.894886    0.004546
      2          6           0        1.821168   -0.002787   -0.001656
      3          6           0        0.657736   -0.753083   -0.001263
      4          6           0       -0.580273   -0.117624   -0.004297
      5         53           0       -2.347306   -1.217301   -0.000637
      6          6           0       -0.608814    1.265112   -0.007665
      7          6           0        0.563223    2.008580   -0.008802
      8          6           0        1.791903    1.386934   -0.006937
      9          6           0        0.191714    3.465425   -0.031962
     10          6           0       -1.347486    3.401430    0.049869
     11          8           0       -1.726163    2.013883   -0.014193
     12          1           0        0.710674   -1.832549    0.003170
     13          1           0        2.711012    1.957255   -0.009263
     14          1           0        0.619740    4.012125    0.808609
     15          1           0        0.530837    3.949158   -0.949270
     16          1           0       -1.837174    3.913110   -0.777400
     17          1           0       -1.728947    3.803853    0.988624
 ---------------------------------------------------------------------
 Rotational constants (GHZ):           0.6644264           0.2737254           0.1943390
 Standard basis: def2TZVP (5D, 7F)
 There are   474 symmetry adapted cartesian basis functions of A   symmetry.
 There are   413 symmetry adapted basis functions of A   symmetry.
   413 basis functions,   730 primitive gaussians,   474 cartesian basis functions
    61 alpha electrons       61 beta electrons
       nuclear repulsion energy      1002.6127108973 Hartrees.
 NAtoms=   17 NActive=   17 NUniq=   17 SFac= 1.00D+00 NAtFMM=   60 NAOKFM=F Big=F
 Integral buffers will be    131072 words long.
 Raffenetti 2 integral format.
 Two-electron integral symmetry is turned on.
 Nuclear repulsion after empirical dispersion term =     1002.6020436004 Hartrees.
 One-electron integrals computed using PRISM.
   1 Symmetry operations used in ECPInt.
 ECPInt:  NShTT=   12090 NPrTT=   41358 LenC2=   11391 LenP2D=   28934.
 LDataN:  DoStor=T MaxTD1= 7 Len=  274
 NBasis=   413 RedAO= T EigKep=  6.11D-06  NBF=   413
 NBsUse=   413 1.00D-06 EigRej= -1.00D+00 NBFU=   413
 Defaulting to unpruned grid for atomic number  53.
 Initial guess from the checkpoint file:  "arbr48_wb97xd_QRC.chk"
 B after Tr=    -0.000000    0.000000    0.000000
         Rot=    1.000000    0.000025    0.000011    0.000087 Ang=   0.01 deg.
 ExpMin= 7.49D-02 ExpMax= 5.65D+05 ExpMxC= 5.46D+03 IAcc=3 IRadAn=         5 AccDes= 0.00D+00
 Harris functional with IExCor= 4639 and IRadAn=       5 diagonalized for initial guess.
 HarFok:  IExCor= 4639 AccDes= 0.00D+00 IRadAn=         5 IDoV= 1 UseB2=F ITyADJ=14
 ICtDFT=  3500011 ScaDFX=  1.000000  1.000000  1.000000  1.000000
 Defaulting to unpruned grid for atomic number  53.
 FoFCou: FMM=F IPFlag=           0 FMFlag=      100000 FMFlg1=           0
         NFxFlg=           0 DoJE=T BraDBF=F KetDBF=T FulRan=T
         wScrn=  0.000000 ICntrl=       500 IOpCl=  0 I1Cent=   200000004 NGrid=           0
         NMat0=    1 NMatS0=      1 NMatT0=    0 NMatD0=    1 NMtDS0=    0 NMtDT0=    0
 Petite list used in FoFCou.
 Requested convergence on RMS density matrix=1.00D-08 within 128 cycles.
 Requested convergence on MAX density matrix=1.00D-06.
 Requested convergence on             energy=1.00D-06.
 No special actions if energy rises.
 Integral accuracy reduced to 1.0D-05 until final iterations.
 Defaulting to unpruned grid for atomic number  53.
 Defaulting to unpruned grid for atomic number  53.
 Defaulting to unpruned grid for atomic number  53.
 Defaulting to unpruned grid for atomic number  53.
 Defaulting to unpruned grid for atomic number  53.
 Defaulting to unpruned grid for atomic number  53.
 Defaulting to unpruned grid for atomic number  53.
 Defaulting to unpruned grid for atomic number  53.
 Defaulting to unpruned grid for atomic number  53.
 Defaulting to unpruned grid for atomic number  53.
 Defaulting to unpruned grid for atomic number  53.
 Defaulting to unpruned grid for atomic number  53.
 Defaulting to unpruned grid for atomic number  53.
 Defaulting to unpruned grid for atomic number  53.
 Defaulting to unpruned grid for atomic number  53.
 Defaulting to unpruned grid for atomic number  53.
 Defaulting to unpruned grid for atomic number  53.
 Defaulting to unpruned grid for atomic number  53.
 Defaulting to unpruned grid for atomic number  53.
 Defaulting to unpruned grid for atomic number  53.
 Defaulting to unpruned grid for atomic number  53.
 Defaulting to unpruned grid for atomic number  53.
 Defaulting to unpruned grid for atomic number  53.
 Defaulting to unpruned grid for atomic number  53.
 Problem detected with inexpensive integrals.
 Switching to full accuracy and repeating last cycle.
 SCF Done:  E(RwB97XD) =  -3255.69080403     A.U. after   14 cycles
            NFock= 14  Conv=0.53D-08     -V/T= 2.0618
   1 Symmetry operations used in ECPInt.
 ECPInt:  NShTT=   12090 NPrTT=   41358 LenC2=   11391 LenP2D=   28934.
 LDataN:  DoStor=T MaxTD1= 8 Len=  415
 Calling FoFJK, ICntrl=      2127 FMM=F ISym2X=0 I1Cent= 0 IOpClX= 0 NMat=1 NMatS=1 NMatT=0.
 Defaulting to unpruned grid for atomic number  53.
 Defaulting to unpruned grid for atomic number  53.
 Defaulting to unpruned grid for atomic number  53.
 Defaulting to unpruned grid for atomic number  53.
 Defaulting to unpruned grid for atomic number  53.
 Defaulting to unpruned grid for atomic number  53.
 Defaulting to unpruned grid for atomic number  53.
 Defaulting to unpruned grid for atomic number  53.
 Defaulting to unpruned grid for atomic number  53.
 Defaulting to unpruned grid for atomic number  53.
 Defaulting to unpruned grid for atomic number  53.
 Defaulting to unpruned grid for atomic number  53.
 Defaulting to unpruned grid for atomic number  53.
 Defaulting to unpruned grid for atomic number  53.
 Defaulting to unpruned grid for atomic number  53.
 Defaulting to unpruned grid for atomic number  53.
 Defaulting to unpruned grid for atomic number  53.
 Defaulting to unpruned grid for atomic number  53.
 Defaulting to unpruned grid for atomic number  53.
 Defaulting to unpruned grid for atomic number  53.
 Defaulting to unpruned grid for atomic number  53.
 Defaulting to unpruned grid for atomic number  53.
 Defaulting to unpruned grid for atomic number  53.
 Defaulting to unpruned grid for atomic number  53.
 ***** Axes restored to original set *****
 -------------------------------------------------------------------
 Center     Atomic                   Forces (Hartrees/Bohr)
 Number     Number              X              Y              Z
 -------------------------------------------------------------------
      1       35          -0.000009744    0.000012132    0.000008384
      2        6          -0.000012829   -0.000088856   -0.000044971
      3        6           0.000057368    0.000009226    0.000015932
      4        6           0.000015500    0.000063707    0.000060353
      5       53          -0.000004196   -0.000012152   -0.000028724
      6        6           0.000003981   -0.000275265    0.000142868
      7        6           0.000135228   -0.000047267   -0.000127432
      8        6          -0.000039292    0.000055826    0.000117150
      9        6          -0.000128687    0.000126115    0.000124325
     10        6          -0.000064968    0.000101271   -0.000060525
     11        8           0.000002692    0.000053735   -0.000278989
     12        1          -0.000006968   -0.000003142   -0.000010496
     13        1          -0.000003735   -0.000001386   -0.000014376
     14        1           0.000036894    0.000041354   -0.000050297
     15        1          -0.000014079   -0.000091905   -0.000063869
     16        1          -0.000035475    0.000046058    0.000071528
     17        1           0.000068310    0.000010549    0.000139139
 -------------------------------------------------------------------
 Cartesian Forces:  Max     0.000278989 RMS     0.000085456

 GradGradGradGradGradGradGradGradGradGradGradGradGradGradGradGradGradGrad
 Berny optimization.
 Using GEDIIS/GDIIS optimizer.
 FormGI is forming the generalized inverse of G from B-inverse, IUseBI=4.
 Internal  Forces:  Max     0.000137982 RMS     0.000043831
 Search for a local minimum.
 Step number   2 out of a maximum of  102
 All quantities printed in internal units (Hartrees-Bohrs-Radians)
 Mixed Optimization -- En-DIIS/RFO-DIIS
 Swapping is turned off.
 Update second derivatives using D2CorX and points    1    2
 DE= -2.97D-05 DEPred=-2.70D-05 R= 1.10D+00
 TightC=F SS=  1.41D+00  RLast= 3.75D-02 DXNew= 5.0454D-01 1.1256D-01
 Trust test= 1.10D+00 RLast= 3.75D-02 DXMaxT set to 3.00D-01
 ITU=  1  0
     Eigenvalues ---    0.00432   0.01540   0.01838   0.02229   0.02253
     Eigenvalues ---    0.02259   0.02264   0.02287   0.02333   0.02342
     Eigenvalues ---    0.04275   0.04474   0.05503   0.05900   0.08005
     Eigenvalues ---    0.08827   0.11448   0.11729   0.14665   0.15999
     Eigenvalues ---    0.16000   0.18472   0.22799   0.23497   0.23628
     Eigenvalues ---    0.24840   0.24986   0.25000   0.25001   0.27607
     Eigenvalues ---    0.31156   0.34366   0.34492   0.34608   0.35791
     Eigenvalues ---    0.35901   0.36670   0.39346   0.42331   0.43691
     Eigenvalues ---    0.46725   0.47733   0.48113   0.49118   0.53717
 En-DIIS/RFO-DIIS/Sim-DIIS IScMMF=       -3 using points:     2    1
 RFO step:  Lambda=-9.49533363D-06.
 DidBck=F Rises=F RFO-DIIS coefs:    2.06157   -1.06157
 Iteration  1 RMS(Cart)=  0.00543587 RMS(Int)=  0.00001891
 Iteration  2 RMS(Cart)=  0.00002157 RMS(Int)=  0.00000699
 Iteration  3 RMS(Cart)=  0.00000000 RMS(Int)=  0.00000699
 Variable       Old X    -DE/DX   Delta X   Delta X   Delta X     New X
                                 (Linear)    (Quad)   (Total)
    R1        3.58194  -0.00001  -0.00005  -0.00005  -0.00009   3.58185
    R2        2.61611  -0.00004  -0.00004  -0.00005  -0.00008   2.61602
    R3        2.62679   0.00006   0.00019  -0.00002   0.00017   2.62696
    R4        2.62970   0.00002   0.00010  -0.00002   0.00008   2.62977
    R5        2.04236   0.00000  -0.00000   0.00001   0.00001   2.04237
    R6        3.93304   0.00001  -0.00002   0.00010   0.00007   3.93312
    R7        2.61356  -0.00004  -0.00038   0.00024  -0.00014   2.61341
    R8        2.62285   0.00005   0.00004   0.00011   0.00015   2.62300
    R9        2.54178   0.00014   0.00034   0.00001   0.00036   2.54214
   R10        2.60213  -0.00003  -0.00010   0.00001  -0.00009   2.60204
   R11        2.84148   0.00013  -0.00080   0.00113   0.00032   2.84180
   R12        2.04408  -0.00000  -0.00002   0.00000  -0.00002   2.04406
   R13        2.91528  -0.00002  -0.00391   0.00315  -0.00076   2.91452
   R14        2.06028  -0.00000  -0.00285   0.00240  -0.00045   2.05982
   R15        2.06184   0.00001  -0.00338   0.00289  -0.00049   2.06135
   R16        2.72067   0.00010  -0.00233   0.00226  -0.00007   2.72061
   R17        2.05797  -0.00002  -0.00870   0.00730  -0.00140   2.05657
   R18        2.06034   0.00010  -0.00423   0.00390  -0.00033   2.06000
    A1        2.07878   0.00001   0.00025  -0.00017   0.00009   2.07887
    A2        2.08188  -0.00001  -0.00004  -0.00000  -0.00004   2.08185
    A3        2.12252  -0.00000  -0.00022   0.00017  -0.00005   2.12247
    A4        2.09459  -0.00000   0.00018  -0.00015   0.00003   2.09461
    A5        2.09457   0.00001   0.00009  -0.00002   0.00007   2.09464
    A6        2.09403  -0.00001  -0.00027   0.00017  -0.00010   2.09393
    A7        2.11069  -0.00002  -0.00014   0.00005  -0.00009   2.11060
    A8        2.06566   0.00001   0.00010  -0.00007   0.00003   2.06569
    A9        2.10684   0.00001   0.00004   0.00002   0.00006   2.10690
   A10        2.11545   0.00001  -0.00030   0.00028  -0.00002   2.11542
   A11        2.18184   0.00009   0.00054  -0.00002   0.00054   2.18237
   A12        1.98590  -0.00009  -0.00024  -0.00027  -0.00052   1.98538
   A13        2.10791  -0.00002   0.00040  -0.00039   0.00001   2.10792
   A14        1.88637   0.00000  -0.00048   0.00030  -0.00020   1.88617
   A15        2.28880   0.00002   0.00008   0.00010   0.00019   2.28899
   A16        2.06025   0.00001  -0.00017   0.00018   0.00000   2.06025
   A17        2.10511  -0.00001   0.00001  -0.00002  -0.00001   2.10510
   A18        2.11783  -0.00001   0.00016  -0.00015   0.00001   2.11784
   A19        1.77777   0.00007  -0.00054   0.00049  -0.00009   1.77768
   A20        1.95731  -0.00003  -0.00069   0.00086   0.00018   1.95749
   A21        1.94519  -0.00004   0.00214  -0.00262  -0.00047   1.94472
   A22        1.95154  -0.00000  -0.00010   0.00038   0.00029   1.95183
   A23        1.95314  -0.00001  -0.00131   0.00115  -0.00015   1.95299
   A24        1.87953   0.00002   0.00045  -0.00023   0.00021   1.87975
   A25        1.87553  -0.00008   0.00185  -0.00223  -0.00041   1.87512
   A26        1.97018   0.00004   0.00054  -0.00009   0.00045   1.97063
   A27        1.95999  -0.00006  -0.00049  -0.00021  -0.00069   1.95930
   A28        1.87628   0.00001  -0.00104   0.00137   0.00034   1.87662
   A29        1.87760   0.00008  -0.00135   0.00143   0.00010   1.87769
   A30        1.90003   0.00001   0.00037  -0.00014   0.00024   1.90027
   A31        1.89421   0.00009  -0.00149   0.00148  -0.00004   1.89417
    D1        3.14037  -0.00000  -0.00482   0.00393  -0.00089   3.13948
    D2        0.00067  -0.00002  -0.00156   0.00072  -0.00084  -0.00017
    D3       -0.00161   0.00000  -0.00344   0.00278  -0.00065  -0.00226
    D4       -3.14131  -0.00001  -0.00017  -0.00043  -0.00061   3.14127
    D5       -3.13948  -0.00000   0.00578  -0.00518   0.00060  -3.13889
    D6        0.00187   0.00001   0.00146  -0.00042   0.00104   0.00291
    D7        0.00250  -0.00001   0.00439  -0.00403   0.00036   0.00286
    D8       -3.13934   0.00000   0.00008   0.00073   0.00081  -3.13853
    D9       -3.13982  -0.00003   0.00062  -0.00171  -0.00109  -3.14091
   D10        0.00000   0.00000  -0.00007   0.00001  -0.00006  -0.00006
   D11       -0.00012  -0.00002  -0.00264   0.00150  -0.00114  -0.00126
   D12        3.13971   0.00001  -0.00334   0.00323  -0.00011   3.13959
   D13        0.00065   0.00000   0.00253  -0.00146   0.00107   0.00171
   D14        3.13854  -0.00002   0.00436  -0.00391   0.00044   3.13898
   D15        3.14048   0.00003   0.00183   0.00026   0.00209  -3.14062
   D16       -0.00482   0.00001   0.00366  -0.00219   0.00147  -0.00335
   D17        0.00029  -0.00001  -0.00154   0.00016  -0.00138  -0.00109
   D18        3.12801  -0.00000  -0.00211   0.00013  -0.00198   3.12603
   D19       -3.13799   0.00001  -0.00318   0.00235  -0.00082  -3.13882
   D20       -0.01027   0.00002  -0.00375   0.00232  -0.00142  -0.01169
   D21        3.09344  -0.00003  -0.00416  -0.00121  -0.00536   3.08808
   D22       -0.05161  -0.00005  -0.00245  -0.00350  -0.00595  -0.05756
   D23       -0.00182   0.00002  -0.00190   0.00254   0.00064  -0.00118
   D24        3.14001   0.00000   0.00244  -0.00225   0.00019   3.14020
   D25       -3.12591   0.00000  -0.00118   0.00259   0.00140  -3.12450
   D26        0.01593  -0.00001   0.00317  -0.00221   0.00095   0.01688
   D27        0.06164   0.00002   0.00772  -0.00025   0.00747   0.06911
   D28        2.15075   0.00004   0.00696   0.00089   0.00784   2.15859
   D29       -2.02367   0.00001   0.00857  -0.00066   0.00791  -2.01576
   D30       -3.09578   0.00004   0.00708  -0.00029   0.00678  -3.08900
   D31       -1.00667   0.00006   0.00631   0.00085   0.00716  -0.99951
   D32        1.10209   0.00003   0.00792  -0.00070   0.00723   1.10932
   D33       -0.09038  -0.00005  -0.00923  -0.00154  -0.01078  -0.10116
   D34       -2.15610  -0.00003  -0.00946  -0.00173  -0.01119  -2.16729
   D35        1.97105  -0.00003  -0.01000  -0.00132  -0.01132   1.95973
   D36       -2.18356  -0.00005  -0.00806  -0.00301  -0.01107  -2.19463
   D37        2.03391  -0.00003  -0.00829  -0.00320  -0.01149   2.02242
   D38       -0.12213  -0.00003  -0.00882  -0.00279  -0.01161  -0.13374
   D39        1.98931  -0.00006  -0.00764  -0.00380  -0.01145   1.97786
   D40       -0.07642  -0.00005  -0.00787  -0.00399  -0.01186  -0.08828
   D41       -2.23245  -0.00004  -0.00841  -0.00357  -0.01199  -2.24444
   D42        0.08978   0.00006   0.00757   0.00303   0.01060   0.10038
   D43        2.21519   0.00007   0.00867   0.00243   0.01109   2.22628
   D44       -2.02424   0.00013   0.00787   0.00372   0.01159  -2.01264
         Item               Value     Threshold  Converged?
 Maximum Force            0.000138     0.000450     YES
 RMS     Force            0.000044     0.000300     YES
 Maximum Displacement     0.020629     0.001800     NO 
 RMS     Displacement     0.005436     0.001200     NO 
 Predicted change in Energy=-4.752592D-06
 GradGradGradGradGradGradGradGradGradGradGradGradGradGradGradGradGradGrad

                          Input orientation:                          
 ---------------------------------------------------------------------
 Center     Atomic      Atomic             Coordinates (Angstroms)
 Number     Number       Type             X           Y           Z
 ---------------------------------------------------------------------
      1         35           0        3.493408   -0.893667    0.023151
      2          6           0        1.820899   -0.001977    0.006855
      3          6           0        0.657622   -0.752414    0.001502
      4          6           0       -0.580499   -0.117147   -0.007912
      5         53           0       -2.347270   -1.217304   -0.014932
      6          6           0       -0.609291    1.265507   -0.011602
      7          6           0        0.562679    2.009218   -0.008137
      8          6           0        1.791403    1.387821    0.000394
      9          6           0        0.190712    3.466043   -0.035844
     10          6           0       -1.347882    3.401851    0.049525
     11          8           0       -1.726500    2.014763   -0.023423
     12          1           0        0.710611   -1.831879    0.006447
     13          1           0        2.710409    1.958295    0.001870
     14          1           0        0.620541    4.016047    0.801335
     15          1           0        0.527460    3.945828   -0.955786
     16          1           0       -1.839701    3.919376   -0.771851
     17          1           0       -1.725994    3.797287    0.992391
 ---------------------------------------------------------------------
                    Distance matrix (angstroms):
                    1          2          3          4          5
     1  Br   0.000000
     2  C    1.895431   0.000000
     3  C    2.839384   1.384340   0.000000
     4  C    4.147369   2.404204   1.391617   0.000000
     5  I    5.849761   4.341788   3.040686   2.081315   0.000000
     6  C    4.636310   2.740927   2.382696   1.382958   3.030665
     7  C    4.125153   2.372393   2.763280   2.414183   4.344915
     8  C    2.846494   1.390127   2.421996   2.809078   4.890350
     9  C    5.469767   3.832297   4.244382   3.665351   5.326869
    10  C    6.472269   4.650704   4.613271   3.602155   4.726471
    11  O    5.975664   4.080710   3.652660   2.420454   3.291153
    12  H    2.936746   2.140392   1.080776   2.146504   3.119101
    13  H    2.957571   2.152655   3.400276   3.890711   5.972004
    14  H    5.741448   4.268088   4.835217   4.379574   6.071421
    15  H    5.759850   4.264367   4.796542   4.316689   5.983912
    16  H    7.227687   5.420645   5.353533   4.296826   5.216899
    17  H    7.084252   5.290193   5.230991   4.199471   5.152359
                    6          7          8          9         10
     6  C    0.000000
     7  C    1.388031   0.000000
     8  C    2.403838   1.376942   0.000000
     9  C    2.341571   1.503817   2.623458   0.000000
    10  C    2.261244   2.364952   3.730127   1.542298   0.000000
    11  O    1.345244   2.289236   3.573411   2.404593   1.439683
    12  H    3.366937   3.843972   3.396265   5.323538   5.624161
    13  H    3.391246   2.148358   1.081672   2.936596   4.307651
    14  H    3.120709   2.164707   2.986636   1.090012   2.194800
    15  H    3.060687   2.156325   3.009191   1.090819   2.196240
    16  H    3.022402   3.162814   4.493334   2.206761   1.088290
    17  H    2.943627   3.071851   4.377404   2.200171   1.090108
                   11         12         13         14         15
    11  O    0.000000
    12  H    4.553796   0.000000
    13  H    4.437340   4.285398   0.000000
    14  H    3.192798   5.902389   3.039907   0.000000
    15  H    3.111052   5.860148   3.103652   1.760986   0.000000
    16  H    2.049515   6.339304   5.014776   2.921823   2.374443
    17  H    2.051650   6.212619   4.903539   2.364442   2.982535
                   16         17
    16  H    0.000000
    17  H    1.772114   0.000000
 Stoichiometry    C8H6BrIO
 Framework group  C1[X(C8H6BrIO)]
 Deg. of freedom    45
 Full point group                 C1      NOp   1
 Largest Abelian subgroup         C1      NOp   1
 Largest concise Abelian subgroup C1      NOp   1
                         Standard orientation:                         
 ---------------------------------------------------------------------
 Center     Atomic      Atomic             Coordinates (Angstroms)
 Number     Number       Type             X           Y           Z
 ---------------------------------------------------------------------
      1         35           0        3.493469   -0.895076    0.005345
      2          6           0        1.821119   -0.002972   -0.002172
      3          6           0        0.657643   -0.753118   -0.000989
      4          6           0       -0.580353   -0.117543   -0.003896
      5         53           0       -2.347409   -1.217260   -0.000999
      6          6           0       -0.608819    1.265116   -0.007865
      7          6           0        0.563337    2.008534   -0.010982
      8          6           0        1.791935    1.386832   -0.008912
      9          6           0        0.191589    3.465444   -0.037133
     10          6           0       -1.346537    3.401665    0.056589
     11          8           0       -1.725889    2.014649   -0.013870
     12          1           0        0.710389   -1.832595    0.004010
     13          1           0        2.711078    1.957076   -0.012593
     14          1           0        0.626083    4.015602    0.797533
     15          1           0        0.523468    3.944856   -0.959036
     16          1           0       -1.842668    3.919056   -0.762274
     17          1           0       -1.719437    3.797491    1.001365
 ---------------------------------------------------------------------
 Rotational constants (GHZ):           0.6643486           0.2737319           0.1943382
 Standard basis: def2TZVP (5D, 7F)
 There are   474 symmetry adapted cartesian basis functions of A   symmetry.
 There are   413 symmetry adapted basis functions of A   symmetry.
   413 basis functions,   730 primitive gaussians,   474 cartesian basis functions
    61 alpha electrons       61 beta electrons
       nuclear repulsion energy      1002.6164216249 Hartrees.
 NAtoms=   17 NActive=   17 NUniq=   17 SFac= 1.00D+00 NAtFMM=   60 NAOKFM=F Big=F
 Integral buffers will be    131072 words long.
 Raffenetti 2 integral format.
 Two-electron integral symmetry is turned on.
 Nuclear repulsion after empirical dispersion term =     1002.6057538444 Hartrees.
 One-electron integrals computed using PRISM.
   1 Symmetry operations used in ECPInt.
 ECPInt:  NShTT=   12090 NPrTT=   41358 LenC2=   11390 LenP2D=   28932.
 LDataN:  DoStor=T MaxTD1= 7 Len=  274
 NBasis=   413 RedAO= T EigKep=  6.12D-06  NBF=   413
 NBsUse=   413 1.00D-06 EigRej= -1.00D+00 NBFU=   413
 Defaulting to unpruned grid for atomic number  53.
 Initial guess from the checkpoint file:  "arbr48_wb97xd_QRC.chk"
 B after Tr=     0.000000   -0.000000    0.000000
         Rot=    1.000000   -0.000010   -0.000032    0.000037 Ang=  -0.01 deg.
 ExpMin= 7.49D-02 ExpMax= 5.65D+05 ExpMxC= 5.46D+03 IAcc=3 IRadAn=         5 AccDes= 0.00D+00
 Harris functional with IExCor= 4639 and IRadAn=       5 diagonalized for initial guess.
 HarFok:  IExCor= 4639 AccDes= 0.00D+00 IRadAn=         5 IDoV= 1 UseB2=F ITyADJ=14
 ICtDFT=  3500011 ScaDFX=  1.000000  1.000000  1.000000  1.000000
 Defaulting to unpruned grid for atomic number  53.
 FoFCou: FMM=F IPFlag=           0 FMFlag=      100000 FMFlg1=           0
         NFxFlg=           0 DoJE=T BraDBF=F KetDBF=T FulRan=T
         wScrn=  0.000000 ICntrl=       500 IOpCl=  0 I1Cent=   200000004 NGrid=           0
         NMat0=    1 NMatS0=      1 NMatT0=    0 NMatD0=    1 NMtDS0=    0 NMtDT0=    0
 Petite list used in FoFCou.
[...]
   zx        -0.930104D+00     -0.137827D+00     -0.153354D+00
   zy         0.294797D+01      0.436844D+00      0.486055D+00
   zz         0.162943D+03      0.241457D+02      0.268657D+02

 ----------------------------------------------------------------------
 Unable to Open any file for archive entry.
 1\1\GINC-DYNAMO\Freq\RwB97XD\def2TZVP\C8H6Br1I1O1\RPATON\18-Sep-2024\0
 \\#N Geom=AllCheck Guess=TCheck SCRF=Check GenChk RwB97XD/def2TZVP Fre
 q\\arbr48_wb97xd_QRC\\0,1\Br,3.4859213123,-0.8912735256,0.1428854335\C
 ,1.8166846649,0.002203633,0.0533933846\C,0.6537329499,-0.7471988568,0.
 0096394704\C,-0.5830947771,-0.1110493533,-0.0493786677\I,-2.3497282569
 ,-1.2095951033,-0.1113414876\C,-0.6092328882,1.2707702464,-0.062616076
 5\C,0.5636420719,2.0143394262,-0.0241554673\C,1.790322259,1.3923429869
 ,0.0333729273\C,0.1851410776,3.4679604246,-0.1107582082\C,-1.335454331
 ,3.393806498,0.1061528163\O,-1.7224450093,2.0272837162,-0.1258635485\H
 ,0.7053945745,-1.8266105434,0.0263099147\H,2.7097917979,1.96134899,0.0
 606681213\H,0.6748202385,4.0849644025,0.641766225\H,0.4358446974,3.873
 4353643,-1.0935838801\H,-1.9072804964,4.0182280312,-0.5765955546\H,-1.
 605451885,3.6466916631,1.1340875974\\Version=ES64L-G16RevC.01\State=1-
 A\HF=-3255.6910007\RMSD=2.900e-09\RMSF=6.287e-06\ZeroPoint=0.1211698\T
 hermal=0.1309044\ETot=-3255.5600962\HTot=-3255.5591521\GTot=-3255.6081
 171\Dipole=-0.0035818,1.3399355,0.0467767\DipoleDeriv=-0.4934721,0.186
 3728,-0.0202563,0.2138513,-0.1761694,0.0101127,-0.0249567,0.0098008,-0
 .0521706,0.7374115,-0.5208149,0.0460004,-0.4502308,-0.0044389,-0.02261
 16,0.0460773,-0.0219046,-0.0641717,-0.2705056,0.153185,-0.0133208,-0.1
 143561,-0.1549581,-0.003487,-0.0089975,0.0061689,-0.0608338,0.4630164,
 0.3750239,0.026642,0.6282988,0.1323893,0.0196221,0.0229752,0.0075422,-
 0.110278,-0.1574258,-0.0838509,-0.0054856,-0.1070651,-0.0206689,-0.002
 9237,-0.0024576,-0.0028811,0.0022818,0.5131034,-1.1786836,-0.0058929,-
 0.5303327,0.3933174,-0.0104248,0.0451523,-0.079449,0.0919352,-0.124812
 7,0.4080491,0.0032677,-0.1784348,0.1876615,-0.025232,-0.008985,-0.0510
 417,-0.0811587,-0.1759967,-0.0017206,-0.0132234,0.1114576,0.07727,0.00
 89995,-0.0041359,0.0176157,-0.0850272,-0.0532062,-0.0392645,0.0025463,
 0.0978423,-0.0150646,0.0035996,0.0206256,0.0286054,0.1636633,0.261863,
 0.0209968,0.0156794,-0.1936435,0.9023681,0.0783874,-0.0235374,0.126596
 ,0.3450005,-0.8915971,0.6793372,-0.0275384,0.5094766,-1.253176,-0.0769
 027,-0.0663324,0.0022602,-0.2229807,0.1065079,0.0057019,0.000055,0.006
 7546,0.0223102,0.0010663,-0.0027916,0.0025246,0.1160875,0.0090294,-0.0
 490681,-0.0031107,-0.050143,0.0657615,-0.0016244,-0.0033838,-0.0077539
 ,0.1230369,0.0245388,-0.0328193,-0.0347178,-0.029343,-0.0385725,-0.034
 5853,-0.0501809,-0.0963255,0.0061583,0.0281251,0.016499,0.0335218,-0.0
 047127,-0.0434523,0.0362913,0.0478618,0.0951995,-0.058507,-0.0043148,0
 .0739948,-0.0338437,0.0579551,-0.0448738,0.028715,-0.0737889,0.0794749
 ,0.0024063,0.0277353,-0.0129386,0.0296768,0.0326254,-0.0297033,-0.0090
 025,0.0868556,-0.1164322,-0.1154421\Polar=186.1229134,-0.981066,163.04
 97614,3.4365722,-0.2416426,85.6116185\Quadrupole=-5.4848319,9.1217646,
 -3.6369327,1.2875163,-0.3287792,0.2887557\PG=C01 [X(C8H6Br1I1O1)]\NIma
 g=0\\0.17090065,-0.07556608,0.06996659,0.00852624,-0.00430192,0.009619
 15,-0.12109517,0.04844837,-0.00544411,0.53729856,0.04865034,-0.0569381
 2,0.00281081,0.05942058,0.60980585,-0.00543721,0.00268677,-0.01797322,
 0.01840950,-0.00356705,0.11717169,-0.03406120,-0.00408398,-0.00168401,
 -0.25552181,-0.06777469,-0.00833156,0.64578267,0.01937044,0.00347884,0
 .00086027,-0.13984803,-0.18797814,-0.00482098,0.00033053,0.75874693,-0
 .00201638,-0.00014006,0.00322320,-0.00714629,-0.00183717,-0.06577458,0
 .02259666,-0.00750166,0.13639629,-0.00049489,-0.00019406,-0.00016411,-
 0.06356700,-0.03729792,-0.00258095,-0.27397949,0.12219533,-0.01083287,
 0.53354635,-0.00291370,-0.00128769,-0.00005604,0.03022748,0.06826692,0
 .00033255,0.06010813,-0.16311463,0.00418883,-0.05798013,0.60803227,-0.
 00010463,-0.00001301,0.00391538,-0.00309178,-0.00183839,0.01064634,-0.
 01014059,0.00686770,-0.05833296,0.01872381,-0.00721124,0.10385840,-0.0
 0070412,-0.00012841,-0.00002049,0.00037467,0.00357005,-0.00020325,-0.0
 2694310,-0.01767681,-0.00111124,-0.09851702,-0.05032589,-0.00294842,0.
 13750222,0.00004163,-0.00002964,0.00001243,0.00154122,0.00100687,0.000
 07321,-0.00182032,0.00161316,-0.00013440,-0.04682451,-0.05527213,-0.00
 157729,0.07238167,0.06670298,-0.00002938,-0.00000501,0.00013673,-0.000
 15146,0.00019779,0.00344512,-0.00120496,-0.00069003,0.00212013,-0.0029
 1780,-0.00186124,-0.01438575,0.00471969,0.00247558,0.00693621,0.001384
 55,0.00012229,0.00019820,-0.02056861,-0.04054775,-0.00028111,0.0390883
 5,0.03556731,0.00106664,-0.11194269,0.02745975,-0.00270458,-0.01563425
 ,-0.02706651,-0.00073892,0.65710706,-0.00072830,0.00179644,-0.00011495
 ,-0.03877666,-0.07064046,-0.00056692,0.09114242,-0.02003201,0.00374611
 ,-0.03991912,-0.33189417,0.00025771,-0.00737529,-0.01074751,-0.0000086
 4,-0.00956513,0.78957015,0.00025086,-0.00006389,-0.00078380,-0.0003442
 4,-0.00177164,-0.00447843,0.00111481,0.00212045,0.00337304,-0.00235294
 ,0.00267127,-0.06466009,-0.00076242,-0.00094958,0.00368179,0.02065221,
 0.00029899,0.15853608,0.00126169,-0.00320999,-0.00012451,0.03207979,0.
 09631238,-0.00020213,-0.07595060,-0.00849378,-0.00292118,0.03962107,-0
 .07737853,0.00196947,0.00295812,0.00362184,-0.00001534,-0.23259751,-0.
 04419951,-0.00513732,0.76008973,0.00179907,-0.00380092,0.00013830,0.03
 264690,-0.02257541,0.00158585,-0.00500176,-0.00139772,-0.00003176,-0.0
 1902056,-0.02835204,-0.00016639,-0.00066092,-0.00292110,-0.00005072,-0
 .13545937,-0.17494366,-0.00506090,-0.06309013,0.62892393,-0.00027299,0
 .00019351,0.00359789,-0.00118796,0.00278271,0.00878727,-0.00122637,-0.
 00120691,-0.00232497,0.00154031,-0.00093845,0.00941717,0.00008232,0.00
 033335,0.00324565,-0.00321400,-0.00303126,-0.07634844,0.02704993,-0.01
 657207,0.16063856,-0.01554721,0.03231265,-0.00129967,-0.11231064,-0.04
 375513,-0.00130402,0.03814586,-0.02205032,0.00162316,-0.01859250,0.030
 23205,-0.00091040,-0.00108546,-0.00058171,0.00000671,-0.06079457,-0.03
 105570,-0.00307867,-0.32193495,0.12495129,-0.01270339,0.75621429,0.007
 95507,-0.01420792,0.00049529,0.02608168,-0.32303524,0.00480679,-0.0785
 1893,-0.03177955,-0.00277049,0.03573389,-0.05527414,0.00169428,-0.0009
 2553,-0.00033187,-0.00004313,0.02781921,0.07651238,0.00071477,0.055293
 72,-0.17531520,0.00640671,0.03956530,0.67851494,-0.00099880,0.00169439
 ,0.00303268,-0.00177775,0.00268375,-0.06371057,0.00150464,-0.00044964,
 0.00844402,-0.00096003,0.00121721,-0.00181012,0.00000451,-0.00002968,-
 0.00056559,-0.00252371,-0.00126952,0.00401964,-0.01170432,0.00721953,-
 0.06124310,0.02469149,-0.00794408,0.13625359,-0.00069025,0.00116574,-0
 .00012672,-0.00423670,-0.00033574,-0.00101640,0.00034843,-0.00036022,0
 .00012863,-0.00312013,0.00050439,-0.00033628,-0.00054913,-0.00110860,-
 0.00011202,0.00449258,-0.02066920,0.00107988,-0.08840666,0.02919225,-0
 .00099703,0.00235636,0.02828662,-0.00045691,0.46180580,-0.00059282,0.0
 0039139,0.00007355,0.00084192,0.00326018,0.00003595,-0.00073425,-0.000
 67172,-0.00029631,-0.00273869,-0.00049798,-0.00002129,0.00021144,-0.00
 021191,0.00003845,-0.01259926,-0.03790250,0.00249826,0.01897142,-0.196
 43839,0.00661285,0.00426196,-0.00869445,0.00025266,0.08167814,0.533987
 69,0.00013374,-0.00017062,0.00036331,0.00065079,0.00069820,0.00623573,
 -0.00107461,0.00064962,-0.00100253,-0.00025061,-0.00134477,0.00405307,
 -0.00011581,-0.00019240,-0.00030595,-0.00160053,0.00226348,0.01066089,
 -0.00302020,0.00807168,-0.06952680,-0.00007086,0.00003019,0.00120812,0
 .01400761,0.01497764,0.58438376,-0.00020655,0.00005318,0.00006805,-0.0
 0143004,-0.00141714,0.00018010,0.00249570,0.00049159,-0.00030334,-0.00
 696161,0.00423278,0.00017860,-0.00027565,-0.00059073,0.00012371,0.0119
 0715,0.02369975,0.00550913,-0.02726969,0.02349827,-0.00124070,-0.00077
 970,0.00117740,-0.00041426,-0.16998396,0.00555372,0.02103965,0.5026927
 4,-0.00072081,-0.00003547,0.00001112,0.00123798,0.00138146,0.00058270,
 -0.00052402,-0.00140473,-0.00017548,-0.00116172,0.00325968,-0.00009599
 ,-0.00001082,-0.00044835,0.00006363,0.03152949,-0.06463017,-0.00101460
 ,0.02253155,-0.00138571,-0.00550591,-0.00081226,-0.00891848,-0.0004385
 7,-0.00362249,-0.07201001,0.00023301,-0.11255528,0.49118368,-0.0001965
 3,0.00013183,-0.00017499,0.00035177,0.00052500,0.00018936,-0.00067623,
 0.00065240,0.00120067,-0.00140673,-0.00036480,0.00229828,0.00005231,0.
 00000858,-0.00018469,0.00075725,0.00243109,-0.00231186,-0.00488707,0.0
 0137306,0.00075849,0.00001547,0.00016235,0.00090694,0.01749452,0.00094
 865,-0.08903734,0.01679511,-0.03030087,0.61482862,-0.00209061,0.001091
 04,-0.00017000,0.00165174,0.00733549,0.00014109,-0.00501256,-0.0050627
 2,0.00009802,0.00248807,0.00854392,-0.00014471,0.00259412,-0.00071202,
 0.00020540,-0.25552088,0.06783956,-0.01444636,-0.07616964,0.01984898,-
 0.00707757,0.00407701,-0.01249289,0.00003330,-0.01910048,-0.02573643,-
 0.00841041,-0.09640691,-0.01276924,-0.00487400,0.43439775,0.00226830,-
 0.00091830,0.00017213,0.00300312,0.00262191,-0.00023403,-0.00809282,-0
 .00291219,-0.00011426,0.04603919,-0.03293753,0.00193369,0.00147712,-0.
 00005035,-0.00006611,0.10601358,-0.14739521,0.00113717,0.00826166,-0.0
 0010342,0.00172576,-0.00109608,-0.00331127,0.00021953,-0.01904411,-0.0
 1993004,-0.00574703,-0.04224510,-0.16336525,-0.02764867,-0.07249542,0.
 42973780,-0.00023752,0.00013661,-0.00009680,-0.00047621,0.00037884,-0.
 00117379,-0.00004467,-0.00115474,0.00465778,0.00054600,0.00188228,0.00
 421188,0.00015130,-0.00017542,-0.00180115,-0.00974609,-0.00262832,-0.0
 4588767,-0.00363513,0.00036450,0.01481991,0.00050683,0.00015613,0.0051
 7863,-0.00193643,0.00179303,0.00071024,-0.01061840,-0.02217951,-0.0703
 8466,0.02862078,0.04173604,0.07829576,0.00025264,-0.00081621,0.0001430
 3,0.00401842,-0.02661067,0.00034358,-0.05572493,0.01353142,-0.00100156
 ,0.00059947,0.02774582,-0.00053314,0.00009774,0.00091004,0.00006856,-0
 .00436636,0.00159256,-0.00047315,-0.00128522,0.00020214,0.00001473,-0.
 00440057,-0.00263121,-0.00041973,0.00008226,-0.00001872,-0.00000397,-0
 .00034722,-0.00004994,-0.00012467,0.00023787,0.00165937,0.00013216,0.0
 6048336,0.00048310,0.00105626,-0.00002560,0.00379508,-0.01231549,0.000
 38751,0.01305914,-0.34804292,0.00465896,-0.00177606,-0.00914023,0.0000
 8759,-0.00034405,0.00086220,-0.00005066,0.00208865,0.00080722,0.000146
 97,-0.00016708,0.00077780,0.00001308,-0.00278936,0.00014485,-0.0000486
 6,0.00008131,0.00001025,-0.00004921,0.00017779,0.00013267,0.00006542,-
 0.00017767,-0.00054523,-0.00003710,-0.01443463,0.36677425,0.00010802,-
 0.00007248,-0.00258734,-0.00008482,-0.00111006,0.00376691,-0.00104849,
 0.00471773,-0.03751874,0.00010566,0.00120260,0.00233226,0.00010939,0.0
 0002209,-0.00194287,-0.00040365,0.00028347,0.00612102,-0.00005344,-0.0
 0011801,-0.00111571,-0.00049673,0.00003694,0.00540831,0.00005091,0.000
 13165,0.00005924,-0.00007052,0.00000628,-0.00019351,0.00003576,0.00011
 306,0.00029945,0.00178280,-0.00514239,0.02523667,0.00106112,0.00071511
 ,0.00011812,0.00304515,0.00344907,-0.00004146,0.00147358,0.00090589,-0
 .00017400,-0.00004021,0.00095420,0.00005376,-0.00002459,-0.00004826,0.
 00001446,-0.00189279,0.00304197,-0.00054246,-0.01785386,-0.01655143,-0
 .00060680,-0.26569641,-0.13027040,-0.00688071,0.00138069,-0.00046267,0
 .00018365,-0.00012221,-0.00069776,-0.00006443,-0.00153832,0.00012343,0
 .00005552,0.00029247,0.00008445,0.00000816,0.28020861,-0.00039846,0.00
 057496,-0.00005930,-0.02744481,-0.01116283,-0.00086403,0.00134565,-0.0
 0563911,0.00025691,0.00103932,-0.00053231,0.00003110,-0.00004676,0.000
 04932,-0.00000961,0.00289314,-0.00095957,0.00032730,0.01307962,0.01243
 945,0.00029528,-0.12712145,-0.13826794,-0.00347360,-0.00062804,0.00080
 206,0.00006844,0.00001164,0.00033960,-0.00000301,0.00106868,0.00018022
 ,-0.00001114,-0.00131968,-0.00049320,-0.00008348,0.13775579,0.14264672
 ,0.00018488,-0.00001865,-0.00227442,0.00028742,0.00002554,0.00276772,0
 .00000336,0.00025141,0.00560252,-0.00005475,0.00015085,-0.00121164,0.0
 0001901,-0.00000076,-0.00043931,-0.00056734,0.00001771,0.00837838,-0.0
 0059248,-0.00091750,0.00431283,-0.00733527,-0.00318948,-0.03819245,0.0
 0055417,-0.00001122,-0.00374663,-0.00019816,-0.00026935,-0.00013778,0.
 00002070,0.00017941,-0.00041400,0.00002765,0.00000708,0.00021344,0.007
 84672,0.00363435,0.02547633,0.00006524,-0.00006167,-0.00003619,0.00033
 874,-0.00009217,-0.00017405,-0.00032829,0.00043205,0.00013355,0.000380
 83,-0.00078760,-0.00037103,0.00009277,0.00009123,0.00002001,-0.0034869
 0,0.00360887,-0.00022686,0.00631190,0.00572049,0.00965180,0.00041402,-
 0.00008191,-0.00014270,-0.10137860,-0.06651429,-0.08371232,-0.00973560
 ,-0.01677541,-0.02140518,-0.00418746,-0.00411424,0.00012477,0.00000015
 ,-0.00003536,-0.00009533,-0.00021721,-0.00015933,0.00005246,0.10869138
 ,0.00007240,0.00001613,0.00005666,-0.00061497,-0.00082824,0.00090232,0
 .00065057,-0.00009900,-0.00012639,-0.00085803,0.00035772,0.00087036,-0
 .00013731,-0.00032186,-0.00006638,0.00142871,-0.00454443,0.00014135,-0
 .01432482,-0.01794086,-0.02027650,-0.00108527,0.00210179,0.00054727,-0
 .06816392,-0.12926022,-0.10650349,0.00176456,0.00039483,0.00133537,0.0
 0020474,-0.00019081,-0.00048455,0.00003956,0.00002016,-0.00001530,0.00
 059962,-0.00001030,-0.00076053,0.07459222,0.14201265,0.00003463,-0.000
 00535,-0.00001301,-0.00017202,-0.00038212,-0.00001232,0.00038493,-0.00
 003068,0.00000400,0.00001427,0.00042184,-0.00002196,0.00004126,0.00006
 761,0.00001496,0.00056171,-0.00004555,-0.00008409,0.00294503,0.0032822
 3,0.00350299,-0.00018559,-0.00001883,0.00052900,-0.08671518,-0.1088061
 8,-0.18238455,0.00289134,0.00412894,0.00344720,0.00250538,0.00278817,0
 .00029373,0.00000797,0.00001105,-0.00003007,0.00008210,-0.00024132,-0.
 00009664,0.09040345,0.11539602,0.19320314,0.00002518,0.00000090,0.0000
 3564,-0.00008622,-0.00094331,0.00055516,0.00061282,0.00049287,-0.00013
 447,-0.00034509,0.00022749,0.00035549,0.00002212,0.00003024,0.00000694
 ,-0.00219941,0.00049582,-0.00042385,0.00395885,0.00332177,-0.01014293,
 -0.00024464,0.00120451,0.00011970,-0.06112678,-0.02161721,0.04985353,-
 0.00645711,-0.00790413,0.03129144,-0.00018149,-0.00308678,-0.00084834,
 0.00000531,-0.00002722,0.00005192,-0.00018349,-0.00000260,-0.00031095,
 0.00371296,0.00582068,-0.01318916,0.06614351,0.00006947,0.00000590,-0.
 00007240,-0.00091234,-0.00132184,-0.00125648,0.00107248,-0.00045034,0.
 00021611,-0.00032245,0.00094113,-0.00106693,-0.00010106,-0.00017761,0.
 00009407,0.00228491,-0.00395939,0.00007997,-0.00566634,-0.01601180,0.0
 2802943,-0.00139781,0.00151075,-0.00029449,-0.02397334,-0.08040227,0.0
 8757781,0.00173853,-0.00035902,-0.00157949,-0.00103767,0.00110880,-0.0
 0022445,0.00002434,0.00003176,0.00001092,0.00028411,0.00007718,0.00087
 948,0.00444305,0.00773326,-0.01673890,0.02249543,0.08974283,-0.0000796
 2,0.00002575,0.00000580,0.00023403,0.00082354,0.00009253,-0.00047236,-
 0.00016844,-0.00006490,0.00002468,-0.00014015,0.00001329,-0.00001001,-
 0.00000286,0.00000789,-0.00041039,-0.00002208,0.00014266,-0.00171099,0
 .00226647,0.00209222,0.00084328,-0.00050343,0.00061516,0.05281271,0.08
 473002,-0.26474178,0.00063951,-0.00071932,-0.00244603,0.00003408,0.000
 39552,-0.00078264,-0.00001131,0.00000029,-0.00005464,-0.00006777,0.000
 11865,-0.00023820,0.00497559,0.00850317,-0.02025154,-0.05775321,-0.095
 10556,0.28275083,-0.00009427,0.00013054,0.00003818,-0.00004766,0.00007
 049,-0.00005179,-0.00023490,0.00002875,-0.00010119,0.00054169,-0.00038
 287,-0.00003423,0.00006567,0.00007377,0.00002679,-0.00234122,-0.000451
 74,0.00058198,-0.00455536,-0.00063695,0.00023027,0.00027992,0.00123195
 ,-0.00028657,-0.01293539,0.01612591,-0.01755333,-0.12813509,0.08402337
 ,-0.09377879,0.00816655,-0.01010971,0.00594531,0.00003987,-0.00001168,
 0.00000911,0.00005411,-0.00004334,0.00001583,-0.00239065,0.00037785,0.
 00012873,0.00186094,-0.00014871,0.00000155,0.13388868,0.00008982,-0.00
 001014,0.00001524,-0.00000988,0.00008214,0.00000104,-0.00037023,-0.000
 35118,-0.00022700,0.00182750,-0.00092168,-0.00022575,0.00004350,0.0001
 1863,0.00002593,-0.00549937,-0.00327037,0.00212125,-0.00132005,-0.0009
 3381,0.00003353,0.00019881,0.00046299,-0.00001790,-0.00166242,0.005555
 93,-0.00142533,0.07728614,-0.12770993,0.09314073,0.01775775,-0.0329493
 1,0.01547390,0.00012274,-0.00004654,0.00002798,0.00005579,-0.00002149,
 0.00001638,0.00018710,-0.00028914,-0.00035298,0.00013671,0.00065552,-0
 .00039864,-0.08574857,0.15289351,0.00001151,-0.00001637,-0.00001128,0.
 00007549,-0.00009556,0.00000262,0.00005373,-0.00011260,-0.00002875,0.0
 0033707,-0.00008643,-0.00005570,-0.00000400,0.00000550,0.00000683,0.00
 105883,-0.00265910,0.00016978,0.00147627,-0.00093274,-0.00014766,-0.00
 002562,-0.00032088,0.00011257,0.00528811,-0.00427805,0.00477531,-0.095
 67002,0.10223422,-0.17043605,0.00494380,-0.00567786,0.00913155,0.00002
 876,-0.00001251,-0.00000865,-0.00000558,0.00000468,0.00000751,0.000468
 73,0.00014997,0.00039642,-0.00020647,-0.00037450,0.00147092,0.09883202
 ,-0.10470432,0.17302318,0.00003320,0.00002058,-0.00005764,0.00005676,-
 0.00003388,-0.00000550,-0.00019050,0.00014571,0.00009586,0.00038318,-0
 .00046728,0.00003867,0.00002591,0.00006103,-0.00002240,-0.00263448,0.0
 0131972,-0.00140061,-0.00025767,-0.00076003,0.00010037,-0.00010082,0.0
 0057154,0.00021184,-0.00893804,0.00336983,0.02994366,-0.06898425,0.018
 28149,0.06065574,0.00659526,-0.00856153,-0.00853986,0.00001473,-0.0000
 0642,-0.00000875,0.00005337,-0.00002938,0.00004676,0.00171673,-0.00036
 659,0.00026116,-0.00551748,0.00114742,0.00095023,0.00583712,-0.0030953
 4,-0.01666261,0.07190698,0.00012053,-0.00005829,-0.00001559,0.00036235
 ,0.00037045,-0.00008519,-0.00078795,0.00003431,0.00028805,0.00125802,-
 0.00163318,0.00047385,0.00004907,0.00015916,-0.00004391,-0.00646964,0.
 00223325,-0.00339712,-0.00022195,-0.00002114,0.00110488,0.00022305,-0.
 00011164,0.00013180,-0.00134034,0.00201199,0.00086278,0.01712292,-0.05
 642478,-0.04087766,0.00679391,-0.02903981,-0.03502610,0.00005305,-0.00
 003381,-0.00001100,0.00006108,-0.00002275,0.00000527,-0.00045304,0.000
 84830,0.00052603,-0.00064515,0.00087513,0.00019706,-0.00452905,0.00673
 486,0.01687654,-0.01159687,0.07407797,0.00012317,-0.00006149,0.0000207
 3,-0.00013236,-0.00032418,0.00001760,0.00024572,0.00001608,0.00002579,
 0.00022900,-0.00006431,-0.00026785,-0.00000416,0.00006404,0.00003002,-
 0.00210452,0.00104778,-0.00052890,0.00056343,-0.00045152,-0.00046630,-
 0.00027670,0.00028686,-0.00018684,0.00028043,0.00132032,-0.00170409,0.
 06109020,-0.04656031,-0.28832264,-0.00151528,-0.01091253,0.00294179,0.
 00001828,-0.00001183,0.00001424,0.00002072,0.00000878,-0.00000764,0.00
 033331,0.00033065,0.00150273,0.00073956,-0.00017457,0.00138840,0.00599
 613,-0.00350407,-0.01840860,-0.06560692,0.05899030,0.30395157\\0.00000
 223,-0.00000073,-0.00000026,-0.00000860,-0.00000154,0.00000415,0.00000
 910,-0.00000247,-0.00000078,-0.00001259,0.00000850,-0.00000262,0.00000
 093,0.00000085,0.00000447,0.00000425,-0.00000108,-0.00000458,0.0000035
 7,0.00001642,0.00000176,0.00000054,0.00000387,-0.00000827,0.00000867,-
 0.00001425,0.00001373,-0.00000315,-0.00000989,-0.00000743,-0.00000702,
 0.00000502,0.00000821,-0.00000096,0.00000059,0.00000085,0.00000105,-0.
 00000215,0.00000301,0.00000513,0.00000186,-0.00000940,0.00000149,0.000
 00072,-0.00000118,0.00000261,-0.00000263,0.00000843,-0.00000725,-0.000
 00308,-0.00001008\\\@
 The archive entry for this job was punched.


 FIREWORKS ENDED
 AND SPECTATORS GONE AWAY....
 AH, HOW VAST AND DARK
                     SHIKI
 Job cpu time:       0 days  8 hours 29 minutes 22.4 seconds.
 Elapsed time:       0 days  0 hours 21 minutes 21.8 seconds.
 File lengths (MBytes):  RWF=    310 Int=      0 D2E=      0 Chk=     15 Scr=      1
 Normal termination of Gaussian 16 at Wed Sep 18 22:59:15 2024.
