 Entering Gaussian System, Link 0=/usr/local/Gaussian/G16C/g16/g16
 Input=arbr47_wb97xd.com
 Output=arbr47_wb97xd.log
 Initial command:
 /usr/local/Gaussian/G16C/g16/l1.exe "/home/rpaton/opt/Gau-761508.inp" -scrdir="/home/rpaton/opt/"
 Entering Link 1 = /usr/local/Gaussian/G16C/g16/l1.exe PID=    761509.
  
 Copyright (c) 1988-2019, Gaussian, Inc.  All Rights Reserved.
  
 This is part of the Gaussian(R) 16 program.  It is based on
 the Gaussian(R) 09 system (copyright 2009, Gaussian, Inc.),
 the Gaussian(R) 03 system (copyright 2003, Gaussian, Inc.),
 the Gaussian(R) 98 system (copyright 1998, Gaussian, Inc.),
 the Gaussian(R) 94 system (copyright 1995, Gaussian, Inc.),
 the Gaussian 92(TM) system (copyright 1992, Gaussian, Inc.),
 the Gaussian 90(TM) system (copyright 1990, Gaussian, Inc.),
 the Gaussian 88(TM) system (copyright 1988, Gaussian, Inc.),
 the Gaussian 86(TM) system (copyright 1986, Carnegie Mellon
 University), and the Gaussian 82(TM) system (copyright 1983,
 Carnegie Mellon University). Gaussian is a federally registered
 trademark of Gaussian, Inc.
  
 This software contains proprietary and confidential information,
 including trade secrets, belonging to Gaussian, Inc.
  
 This software is provided under written license and may be
 used, copied, transmitted, or stored only in accord with that
 written license.
  
 The following legend is applicable only to US Government
 contracts under FAR:
  
                    RESTRICTED RIGHTS LEGEND
  
 Use, reproduction and disclosure by the US Government is
 subject to restrictions as set forth in subparagraphs (a)
 and (c) of the Commercial Computer Software - Restricted
 Rights clause in FAR 52.227-19.
  
 Gaussian, Inc.
 340 Quinnipiac St., Bldg. 40, Wallingford CT 06492
  
  
 ---------------------------------------------------------------
 Warning -- This program may not be used in any manner that
 competes with the business of Gaussian, Inc. or will provide
 assistance to any competitor of Gaussian, Inc.  The licensee
 of this program is prohibited from giving any competitor of
 Gaussian, Inc. access to this program.  By using this program,
 the user acknowledges that Gaussian, Inc. is engaged in the
 business of creating and licensing software in the field of
 computational chemistry and represents and warrants to the
 licensee that it is not a competitor of Gaussian, Inc. and that
 it will not use this program in any manner prohibited above.
 ---------------------------------------------------------------
  

 Cite this work as:
 Gaussian 16, Revision C.01,
 M. J. Frisch, G. W. Trucks, H. B. Schlegel, G. E. Scuseria, 
 M. A. Robb, J. R. Cheeseman, G. Scalmani, V. Barone, 
 G. A. Petersson, H. Nakatsuji, X. Li, M. Caricato, A. V. Marenich, 
 J. Bloino, B. G. Janesko, R. Gomperts, B. Mennucci, H. P. Hratchian, 
 J. V. Ortiz, A. F. Izmaylov, J. L. Sonnenberg, D. Williams-Young, 
 F. Ding, F. Lipparini, F. Egidi, J. Goings, B. Peng, A. Petrone, 
 T. Henderson, D. Ranasinghe, V. G. Zakrzewski, J. Gao, N. Rega, 
 G. Zheng, W. Liang, M. Hada, M. Ehara, K. Toyota, R. Fukuda, 
 J. Hasegawa, M. Ishida, T. Nakajima, Y. Honda, O. Kitao, H. Nakai, 
 T. Vreven, K. Throssell, J. A. Montgomery, Jr., J. E. Peralta, 
 F. Ogliaro, M. J. Bearpark, J. J. Heyd, E. N. Brothers, K. N. Kudin, 
 V. N. Staroverov, T. A. Keith, R. Kobayashi, J. Normand, 
 K. Raghavachari, A. P. Rendell, J. C. Burant, S. S. Iyengar, 
 J. Tomasi, M. Cossi, J. M. Millam, M. Klene, C. Adamo, R. Cammi, 
 J. W. Ochterski, R. L. Martin, K. Morokuma, O. Farkas, 
 J. B. Foresman, and D. J. Fox, Gaussian, Inc., Wallingford CT, 2019.
 
 ******************************************
 Gaussian 16:  ES64L-G16RevC.01  3-Jul-2019
                17-Sep-2024 
 ******************************************
 %nprocshared=24
 Will use up to   24 processors via shared memory.
 %mem=96GB
 --------------------------
 # opt freq wb97xd/def2tzvp
 --------------------------
 1/18=20,19=15,26=3,38=1/1,3;
 2/9=110,12=2,17=6,18=5,40=1/2;
 3/5=44,7=101,11=2,25=1,30=1,71=1,74=-58/1,2,3;
 4//1;
 5/5=2,38=5/2;
 6/7=2,8=2,9=2,10=2,28=1/1;
 7//1,2,3,16;
 1/18=20,19=15,26=3/3(2);
 2/9=110/2;
 99//99;
 2/9=110/2;
 3/5=44,7=101,11=2,25=1,30=1,71=1,74=-58/1,2,3;
 4/5=5,16=3,69=1/1;
 5/5=2,38=5/2;
 7//1,2,3,16;
 1/18=20,19=15,26=3/3(-5);
 2/9=110/2;
 6/7=2,8=2,9=2,10=2,19=2,28=1/1;
 99/9=1/99;
 --------------------------
 arbr47_rdkit_conf_1_wb97xd
 --------------------------
 Symbolic Z-matrix:
 Charge =  0 Multiplicity = 1
 O                    -3.5967   -0.5784   -0.2191 
 C                    -2.4383   -0.2242    0.0026 
 C                    -2.0827    1.2009    0.3647 
 O                    -0.9061    1.6887   -0.2618 
 C                     0.1612    0.8367   -0.1928 
 C                     1.4195    1.423    -0.3391 
 C                     2.571     0.6368   -0.2903 
 C                     2.4558   -0.7384   -0.1059 
 Br                    4.0116   -1.8097   -0.0394 
 C                     1.1999   -1.3333    0.0218 
 C                     0.0376   -0.5471   -0.0275 
 C                    -1.3066   -1.2119    0.0645 
 H                    -2.909     1.8497    0.056 
 H                    -1.9821    1.279     1.4536 
 H                     1.5033    2.4971   -0.486 
 H                     3.5456    1.105    -0.3988 
 H                     1.1214   -2.4111    0.1496 
 H                    -1.3836   -1.7486    1.0162 
 H                    -1.4218   -1.9141   -0.7683 
 

 GradGradGradGradGradGradGradGradGradGradGradGradGradGradGradGradGradGrad
 Berny optimization.
 Initialization pass.
                           ----------------------------
                           !    Initial Parameters    !
                           ! (Angstroms and Degrees)  !
 --------------------------                            --------------------------
 ! Name  Definition              Value          Derivative Info.                !
 --------------------------------------------------------------------------------
 ! R1    R(1,2)                  1.2315         estimate D2E/DX2                !
 ! R2    R(2,3)                  1.5128         estimate D2E/DX2                !
 ! R3    R(2,12)                 1.5034         estimate D2E/DX2                !
 ! R4    R(3,4)                  1.4195         estimate D2E/DX2                !
 ! R5    R(3,13)                 1.095          estimate D2E/DX2                !
 ! R6    R(3,14)                 1.0963         estimate D2E/DX2                !
 ! R7    R(4,5)                  1.3674         estimate D2E/DX2                !
 ! R8    R(5,6)                  1.3959         estimate D2E/DX2                !
 ! R9    R(5,11)                 1.3991         estimate D2E/DX2                !
 ! R10   R(6,7)                  1.3952         estimate D2E/DX2                !
 ! R11   R(6,15)                 1.0873         estimate D2E/DX2                !
 ! R12   R(7,8)                  1.3923         estimate D2E/DX2                !
 ! R13   R(7,16)                 1.0867         estimate D2E/DX2                !
 ! R14   R(8,9)                  1.8901         estimate D2E/DX2                !
 ! R15   R(8,10)                 1.3955         estimate D2E/DX2                !
 ! R16   R(10,11)                1.4041         estimate D2E/DX2                !
 ! R17   R(10,17)                1.0882         estimate D2E/DX2                !
 ! R18   R(11,12)                1.5024         estimate D2E/DX2                !
 ! R19   R(12,18)                1.0953         estimate D2E/DX2                !
 ! R20   R(12,19)                1.0954         estimate D2E/DX2                !
 ! A1    A(1,2,3)              122.3553         estimate D2E/DX2                !
 ! A2    A(1,2,12)             121.7732         estimate D2E/DX2                !
 ! A3    A(3,2,12)             115.6014         estimate D2E/DX2                !
 ! A4    A(2,3,4)              114.3896         estimate D2E/DX2                !
 ! A5    A(2,3,13)             108.2589         estimate D2E/DX2                !
 ! A6    A(2,3,14)             109.0517         estimate D2E/DX2                !
 ! A7    A(4,3,13)             107.3051         estimate D2E/DX2                !
 ! A8    A(4,3,14)             109.7451         estimate D2E/DX2                !
 ! A9    A(13,3,14)            107.8813         estimate D2E/DX2                !
 ! A10   A(3,4,5)              114.2423         estimate D2E/DX2                !
 ! A11   A(4,5,6)              115.8875         estimate D2E/DX2                !
 ! A12   A(4,5,11)             123.5916         estimate D2E/DX2                !
 ! A13   A(6,5,11)             120.4938         estimate D2E/DX2                !
 ! A14   A(5,6,7)              120.242          estimate D2E/DX2                !
 ! A15   A(5,6,15)             119.9037         estimate D2E/DX2                !
 ! A16   A(7,6,15)             119.8533         estimate D2E/DX2                !
 ! A17   A(6,7,8)              119.5347         estimate D2E/DX2                !
 ! A18   A(6,7,16)             119.6007         estimate D2E/DX2                !
 ! A19   A(8,7,16)             120.8645         estimate D2E/DX2                !
 ! A20   A(7,8,9)              119.761          estimate D2E/DX2                !
 ! A21   A(7,8,10)             120.5069         estimate D2E/DX2                !
 ! A22   A(9,8,10)             119.7308         estimate D2E/DX2                !
 ! A23   A(8,10,11)            120.2028         estimate D2E/DX2                !
 ! A24   A(8,10,17)            119.8605         estimate D2E/DX2                !
 ! A25   A(11,10,17)           119.9337         estimate D2E/DX2                !
 ! A26   A(5,11,10)            119.0011         estimate D2E/DX2                !
 ! A27   A(5,11,12)            121.5952         estimate D2E/DX2                !
 ! A28   A(10,11,12)           119.3867         estimate D2E/DX2                !
 ! A29   A(2,12,11)            112.3502         estimate D2E/DX2                !
 ! A30   A(2,12,18)            107.7449         estimate D2E/DX2                !
 ! A31   A(2,12,19)            108.1007         estimate D2E/DX2                !
 ! A32   A(11,12,18)           109.4459         estimate D2E/DX2                !
 ! A33   A(11,12,19)           109.3408         estimate D2E/DX2                !
 ! A34   A(18,12,19)           109.821          estimate D2E/DX2                !
 ! D1    D(1,2,3,4)           -138.7151         estimate D2E/DX2                !
 ! D2    D(1,2,3,13)           -19.1434         estimate D2E/DX2                !
 ! D3    D(1,2,3,14)            97.9857         estimate D2E/DX2                !
 ! D4    D(12,2,3,4)            47.1606         estimate D2E/DX2                !
 ! D5    D(12,2,3,13)          166.7322         estimate D2E/DX2                !
 ! D6    D(12,2,3,14)          -76.1387         estimate D2E/DX2                !
 ! D7    D(1,2,12,11)          164.4831         estimate D2E/DX2                !
 ! D8    D(1,2,12,18)          -74.8857         estimate D2E/DX2                !
 ! D9    D(1,2,12,19)           43.7445         estimate D2E/DX2                !
 ! D10   D(3,2,12,11)          -21.3552         estimate D2E/DX2                !
 ! D11   D(3,2,12,18)           99.276          estimate D2E/DX2                !
 ! D12   D(3,2,12,19)         -142.0938         estimate D2E/DX2                !
 ! D13   D(2,3,4,5)            -47.507          estimate D2E/DX2                !
 ! D14   D(13,3,4,5)          -167.612          estimate D2E/DX2                !
 ! D15   D(14,3,4,5)            75.4179         estimate D2E/DX2                !
 ! D16   D(3,4,5,6)           -157.6231         estimate D2E/DX2                !
 ! D17   D(3,4,5,11)            24.266          estimate D2E/DX2                !
 ! D18   D(4,5,6,7)           -179.6894         estimate D2E/DX2                !
 ! D19   D(4,5,6,15)             0.659          estimate D2E/DX2                !
 ! D20   D(11,5,6,7)            -1.5156         estimate D2E/DX2                !
 ! D21   D(11,5,6,15)          178.8328         estimate D2E/DX2                !
 ! D22   D(4,5,11,10)          179.5699         estimate D2E/DX2                !
 ! D23   D(4,5,11,12)            1.0776         estimate D2E/DX2                !
 ! D24   D(6,5,11,10)            1.5423         estimate D2E/DX2                !
 ! D25   D(6,5,11,12)         -176.95           estimate D2E/DX2                !
 ! D26   D(5,6,7,8)              0.5385         estimate D2E/DX2                !
 ! D27   D(5,6,7,16)          -179.5944         estimate D2E/DX2                !
 ! D28   D(15,6,7,8)          -179.8097         estimate D2E/DX2                !
 ! D29   D(15,6,7,16)            0.0573         estimate D2E/DX2                !
 ! D30   D(6,7,8,9)            179.9788         estimate D2E/DX2                !
 ! D31   D(6,7,8,10)             0.3855         estimate D2E/DX2                !
 ! D32   D(16,7,8,9)             0.1135         estimate D2E/DX2                !
 ! D33   D(16,7,8,10)         -179.4799         estimate D2E/DX2                !
 ! D34   D(7,8,10,11)           -0.3421         estimate D2E/DX2                !
 ! D35   D(7,8,10,17)          179.0223         estimate D2E/DX2                !
 ! D36   D(9,8,10,11)         -179.9355         estimate D2E/DX2                !
 ! D37   D(9,8,10,17)           -0.5712         estimate D2E/DX2                !
 ! D38   D(8,10,11,5)           -0.6178         estimate D2E/DX2                !
 ! D39   D(8,10,11,12)         177.9084         estimate D2E/DX2                !
 ! D40   D(17,10,11,5)        -179.9817         estimate D2E/DX2                !
 ! D41   D(17,10,11,12)         -1.4555         estimate D2E/DX2                !
 ! D42   D(5,11,12,2)           -1.8062         estimate D2E/DX2                !
 ! D43   D(5,11,12,18)        -121.4515         estimate D2E/DX2                !
 ! D44   D(5,11,12,19)         118.2155         estimate D2E/DX2                !
 ! D45   D(10,11,12,2)         179.7072         estimate D2E/DX2                !
 ! D46   D(10,11,12,18)         60.0619         estimate D2E/DX2                !
 ! D47   D(10,11,12,19)        -60.2711         estimate D2E/DX2                !
 --------------------------------------------------------------------------------
 Trust Radius=3.00D-01 FncErr=1.00D-07 GrdErr=1.00D-06 EigMax=2.50D+02 EigMin=1.00D-04
 Number of steps in this run=    111 maximum allowed number of steps=    114.
 GradGradGradGradGradGradGradGradGradGradGradGradGradGradGradGradGradGrad

                          Input orientation:                          
 ---------------------------------------------------------------------
 Center     Atomic      Atomic             Coordinates (Angstroms)
 Number     Number       Type             X           Y           Z
 ---------------------------------------------------------------------
      1          8           0       -3.596700   -0.578400   -0.219100
      2          6           0       -2.438300   -0.224200    0.002600
      3          6           0       -2.082700    1.200900    0.364700
      4          8           0       -0.906100    1.688700   -0.261800
      5          6           0        0.161200    0.836700   -0.192800
      6          6           0        1.419500    1.423000   -0.339100
      7          6           0        2.571000    0.636800   -0.290300
      8          6           0        2.455800   -0.738400   -0.105900
      9         35           0        4.011600   -1.809700   -0.039400
     10          6           0        1.199900   -1.333300    0.021800
     11          6           0        0.037600   -0.547100   -0.027500
     12          6           0       -1.306600   -1.211900    0.064500
     13          1           0       -2.909000    1.849700    0.056000
     14          1           0       -1.982100    1.279000    1.453600
     15          1           0        1.503300    2.497100   -0.486000
     16          1           0        3.545600    1.105000   -0.398800
     17          1           0        1.121400   -2.411100    0.149600
     18          1           0       -1.383600   -1.748600    1.016200
     19          1           0       -1.421800   -1.914100   -0.768300
 ---------------------------------------------------------------------
                    Distance matrix (angstroms):
                    1          2          3          4          5
     1  O    0.000000
     2  C    1.231462   0.000000
     3  C    2.408096   1.512772   0.000000
     4  O    3.518649   2.465103   1.419450   0.000000
     5  C    4.015596   2.814443   2.340627   1.367404   0.000000
     6  C    5.402061   4.208640   3.579115   2.342005   1.395876
     7  C    6.286677   5.091188   4.733303   3.632841   2.420042
     8  C    6.055673   4.922234   4.957855   4.149396   2.784543
     9  Br   7.709385   6.642047   6.809369   6.039208   4.674671
    10  C    4.861613   3.803547   4.161155   3.694340   2.415337
    11  C    3.639482   2.497049   2.775788   2.438087   1.399108
    12  C    2.392971   1.503372   2.552265   2.946244   2.533259
    13  H    2.538559   2.127316   1.094993   2.034337   3.242560
    14  H    2.975700   2.138488   1.096323   2.065969   2.738612
    15  H    5.961538   4.814604   3.906817   2.551271   2.155024
    16  H    7.340203   6.142878   5.680659   4.491894   3.401262
    17  H    5.074958   4.180383   4.833122   4.592207   3.404031
    18  H    2.791621   2.112717   3.100442   3.698151   3.245283
    19  H    2.610729   2.117385   3.379897   3.674596   3.225522
                    6          7          8          9         10
     6  C    0.000000
     7  C    1.395150   0.000000
     8  C    2.408309   1.392282   0.000000
     9  Br   4.154414   2.850200   1.890137   0.000000
    10  C    2.788488   2.420458   1.395528   2.852430   0.000000
    11  C    2.426528   2.808701   2.427022   4.169769   1.404095
    12  C    3.812770   4.310378   3.795905   5.352701   2.509801
    13  H    4.367389   5.623295   5.958654   7.829113   5.197665
    14  H    3.847778   4.917756   5.118291   6.906052   4.358817
    15  H    1.087333   2.153833   3.394141   5.003953   3.875807
    16  H    2.150579   1.086659   2.161383   2.973517   3.409475
    17  H    3.876598   3.403608   2.154955   2.958151   1.088186
    18  H    4.444463   4.799577   4.125604   5.497837   2.799246
    19  H    4.403798   4.762145   4.105707   5.483068   2.799089
                   11         12         13         14         15
    11  C    0.000000
    12  C    1.502430   0.000000
    13  H    3.799220   3.455597   0.000000
    14  H    3.099595   2.930952   1.771476   0.000000
    15  H    3.409641   4.685645   4.492358   4.170591   0.000000
    16  H    3.895300   5.396899   6.513316   5.832421   2.473163
    17  H    2.163442   2.709337   5.865774   4.994894   4.963896
    18  H    2.133711   1.095312   4.024499   3.117031   5.349464
    19  H    2.132445   1.095405   4.130064   3.930224   5.300433
                   16         17         18         19
    16  H    0.000000
    17  H    4.305862   0.000000
    18  H    5.868754   2.732202   0.000000
    19  H    5.824651   2.749075   1.792565   0.000000
 Stoichiometry    C9H7BrO2
 Framework group  C1[X(C9H7BrO2)]
 Deg. of freedom    51
 Full point group                 C1      NOp   1
 Largest Abelian subgroup         C1      NOp   1
 Largest concise Abelian subgroup C1      NOp   1
                         Standard orientation:                         
 ---------------------------------------------------------------------
 Center     Atomic      Atomic             Coordinates (Angstroms)
 Number     Number       Type             X           Y           Z
 ---------------------------------------------------------------------
      1          8           0       -4.386546   -1.442081   -0.293370
      2          6           0       -3.386041   -0.779652   -0.016465
      3          6           0       -3.469571    0.658446    0.445461
      4          8           0       -2.483662    1.512242   -0.114766
      5          6           0       -1.213258    1.008447   -0.069403
      6          6           0       -0.182514    1.946939   -0.141997
      7          6           0        1.149122    1.531995   -0.110189
      8          6           0        1.442876    0.174257   -0.016874
      9         35           0        3.244725   -0.395054    0.026090
     10          6           0        0.417123   -0.770444    0.036687
     11          6           0       -0.924827   -0.358635    0.004071
     12          6           0       -2.014033   -1.393433    0.015046
     13          1           0       -4.447698    1.055820    0.154994
     14          1           0       -3.405974    0.687153    1.539560
     15          1           0       -0.417828    3.005785   -0.217925
     16          1           0        1.943275    2.271991   -0.160718
     17          1           0        0.658759   -1.829941    0.093479
     18          1           0       -1.937681   -1.993549    0.928140
     19          1           0       -1.909817   -2.039175   -0.863628
 ---------------------------------------------------------------------
 Rotational constants (GHZ):           2.0323273           0.2999339           0.2636997
 Standard basis: def2TZVP (5D, 7F)
 There are   493 symmetry adapted cartesian basis functions of A   symmetry.
 There are   431 symmetry adapted basis functions of A   symmetry.
   431 basis functions,   731 primitive gaussians,   493 cartesian basis functions
    56 alpha electrons       56 beta electrons
       nuclear repulsion energy       903.4108364314 Hartrees.
 NAtoms=   19 NActive=   19 NUniq=   19 SFac= 1.00D+00 NAtFMM=   60 NAOKFM=F Big=F
 Integral buffers will be    131072 words long.
 Raffenetti 2 integral format.
 Two-electron integral symmetry is turned on.
 Nuclear repulsion after empirical dispersion term =      903.3998399348 Hartrees.
 One-electron integrals computed using PRISM.
   1 Symmetry operations used in ECPInt.
 ECPInt:  NShTT=   13695 NPrTT=   45780 LenC2=   12846 LenP2D=   31922.
 LDataN:  DoStor=T MaxTD1= 6 Len=  172
 NBasis=   431 RedAO= T EigKep=  7.76D-06  NBF=   431
 NBsUse=   431 1.00D-06 EigRej= -1.00D+00 NBFU=   431
 ExpMin= 9.52D-02 ExpMax= 5.65D+05 ExpMxC= 5.46D+03 IAcc=3 IRadAn=         5 AccDes= 0.00D+00
 Harris functional with IExCor= 4639 and IRadAn=       5 diagonalized for initial guess.
 HarFok:  IExCor= 4639 AccDes= 0.00D+00 IRadAn=         5 IDoV= 1 UseB2=F ITyADJ=14
 ICtDFT=  3500011 ScaDFX=  1.000000  1.000000  1.000000  1.000000
 FoFCou: FMM=F IPFlag=           0 FMFlag=      100000 FMFlg1=           0
         NFxFlg=           0 DoJE=T BraDBF=F KetDBF=T FulRan=T
         wScrn=  0.000000 ICntrl=       500 IOpCl=  0 I1Cent=   200000004 NGrid=           0
         NMat0=    1 NMatS0=      1 NMatT0=    0 NMatD0=    1 NMtDS0=    0 NMtDT0=    0
 Petite list used in FoFCou.
 Requested convergence on RMS density matrix=1.00D-08 within 128 cycles.
 Requested convergence on MAX density matrix=1.00D-06.
 Requested convergence on             energy=1.00D-06.
 No special actions if energy rises.
 Integral accuracy reduced to 1.0D-05 until final iterations.
 Initial convergence to 1.0D-05 achieved.  Increase integral accuracy.
 SCF Done:  E(RwB97XD) =  -3071.84020876     A.U. after   17 cycles
            NFock= 17  Conv=0.47D-08     -V/T= 2.0020

 **********************************************************************

            Population analysis using the SCF Density.

 **********************************************************************

 Orbital symmetries:
       Occupied  (A) (A) (A) (A) (A) (A) (A) (A) (A) (A) (A) (A)
                 (A) (A) (A) (A) (A) (A) (A) (A) (A) (A) (A) (A)
                 (A) (A) (A) (A) (A) (A) (A) (A) (A) (A) (A) (A)
                 (A) (A) (A) (A) (A) (A) (A) (A) (A) (A) (A) (A)
                 (A) (A) (A) (A) (A) (A) (A) (A)
       Virtual   (A) (A) (A) (A) (A) (A) (A) (A) (A) (A) (A) (A)
                 (A) (A) (A) (A) (A) (A) (A) (A) (A) (A) (A) (A)
                 (A) (A) (A) (A) (A) (A) (A) (A) (A) (A) (A) (A)
                 (A) (A) (A) (A) (A) (A) (A) (A) (A) (A) (A) (A)
                 (A) (A) (A) (A) (A) (A) (A) (A) (A) (A) (A) (A)
                 (A) (A) (A) (A) (A) (A) (A) (A) (A) (A) (A) (A)
                 (A) (A) (A) (A) (A) (A) (A) (A) (A) (A) (A) (A)
                 (A) (A) (A) (A) (A) (A) (A) (A) (A) (A) (A) (A)
                 (A) (A) (A) (A) (A) (A) (A) (A) (A) (A) (A) (A)
                 (A) (A) (A) (A) (A) (A) (A) (A) (A) (A) (A) (A)
                 (A) (A) (A) (A) (A) (A) (A) (A) (A) (A) (A) (A)
                 (A) (A) (A) (A) (A) (A) (A) (A) (A) (A) (A) (A)
                 (A) (A) (A) (A) (A) (A) (A) (A) (A) (A) (A) (A)
                 (A) (A) (A) (A) (A) (A) (A) (A) (A) (A) (A) (A)
                 (A) (A) (A) (A) (A) (A) (A) (A) (A) (A) (A) (A)
                 (A) (A) (A) (A) (A) (A) (A) (A) (A) (A) (A) (A)
                 (A) (A) (A) (A) (A) (A) (A) (A) (A) (A) (A) (A)
                 (A) (A) (A) (A) (A) (A) (A) (A) (A) (A) (A) (A)
                 (A) (A) (A) (A) (A) (A) (A) (A) (A) (A) (A) (A)
                 (A) (A) (A) (A) (A) (A) (A) (A) (A) (A) (A) (A)
                 (A) (A) (A) (A) (A) (A) (A) (A) (A) (A) (A) (A)
                 (A) (A) (A) (A) (A) (A) (A) (A) (A) (A) (A) (A)
                 (A) (A) (A) (A) (A) (A) (A) (A) (A) (A) (A) (A)
                 (A) (A) (A) (A) (A) (A) (A) (A) (A) (A) (A) (A)
                 (A) (A) (A) (A) (A) (A) (A) (A) (A) (A) (A) (A)
                 (A) (A) (A) (A) (A) (A) (A) (A) (A) (A) (A) (A)
                 (A) (A) (A) (A) (A) (A) (A) (A) (A) (A) (A) (A)
                 (A) (A) (A) (A) (A) (A) (A) (A) (A) (A) (A) (A)
                 (A) (A) (A) (A) (A) (A) (A) (A) (A) (A) (A) (A)
                 (A) (A) (A) (A) (A) (A) (A) (A) (A) (A) (A) (A)
                 (A) (A) (A) (A) (A) (A) (A) (A) (A) (A) (A) (A)
                 (A) (A) (A)
 The electronic state is 1-A.
 Alpha  occ. eigenvalues -- -483.13393 -62.68234 -56.47351 -56.46993 -56.46988
 Alpha  occ. eigenvalues --  -19.30548 -19.26209 -10.40029 -10.36921 -10.36473
 Alpha  occ. eigenvalues --  -10.35405 -10.32445 -10.32039 -10.31666 -10.31362
 Alpha  occ. eigenvalues --  -10.30856  -8.82353  -6.64515  -6.63363  -6.63345
 Alpha  occ. eigenvalues --   -2.74909  -2.74564  -2.74553  -2.73620  -2.73620
 Alpha  occ. eigenvalues --   -1.19817  -1.15531  -0.99144  -0.92966  -0.91227
 Alpha  occ. eigenvalues --   -0.86172  -0.84424  -0.79591  -0.72929  -0.72179
 Alpha  occ. eigenvalues --   -0.65232  -0.63699  -0.61018  -0.59261  -0.56646
 Alpha  occ. eigenvalues --   -0.55596  -0.55021  -0.54072  -0.52835  -0.51199
 Alpha  occ. eigenvalues --   -0.50193  -0.48313  -0.46611  -0.45714  -0.44364
 Alpha  occ. eigenvalues --   -0.43584  -0.39024  -0.37863  -0.35395  -0.34867
 Alpha  occ. eigenvalues --   -0.30961
 Alpha virt. eigenvalues --    0.01405   0.03193   0.04663   0.07012   0.10516
 Alpha virt. eigenvalues --    0.13400   0.13923   0.14883   0.16245   0.17224
 Alpha virt. eigenvalues --    0.17690   0.18105   0.19632   0.21456   0.21656
 Alpha virt. eigenvalues --    0.22123   0.23215   0.24560   0.26026   0.26416
 Alpha virt. eigenvalues --    0.27367   0.27837   0.28971   0.29969   0.30769
 Alpha virt. eigenvalues --    0.31083   0.31990   0.32330   0.33739   0.34837
 Alpha virt. eigenvalues --    0.35588   0.35938   0.36799   0.37309   0.37638
 Alpha virt. eigenvalues --    0.37924   0.38991   0.40680   0.41070   0.41610
 Alpha virt. eigenvalues --    0.43396   0.44069   0.44234   0.44809   0.46075
 Alpha virt. eigenvalues --    0.47208   0.47897   0.48521   0.48666   0.49211
 Alpha virt. eigenvalues --    0.49730   0.50532   0.51412   0.51584   0.52207
 Alpha virt. eigenvalues --    0.53285   0.54883   0.55112   0.56743   0.58601
 Alpha virt. eigenvalues --    0.59599   0.60163   0.61179   0.62422   0.63602
 Alpha virt. eigenvalues --    0.64933   0.65842   0.68122   0.69075   0.70501
 Alpha virt. eigenvalues --    0.70805   0.73018   0.73538   0.75061   0.75278
 Alpha virt. eigenvalues --    0.77056   0.78042   0.79203   0.79661   0.81384
 Alpha virt. eigenvalues --    0.81801   0.84208   0.86172   0.86860   0.88420
 Alpha virt. eigenvalues --    0.89622   0.90170   0.91749   0.93794   0.95581
 Alpha virt. eigenvalues --    0.96212   0.97167   0.98473   1.00515   1.00926
 Alpha virt. eigenvalues --    1.01646   1.02875   1.04276   1.05056   1.08169
 Alpha virt. eigenvalues --    1.09179   1.10129   1.12418   1.14559   1.15319
 Alpha virt. eigenvalues --    1.16810   1.17362   1.18536   1.22434   1.23254
 Alpha virt. eigenvalues --    1.25488   1.26248   1.26976   1.28637   1.30144
 Alpha virt. eigenvalues --    1.31145   1.32177   1.34617   1.36427   1.39637
 Alpha virt. eigenvalues --    1.40629   1.41193   1.42457   1.43119   1.44650
 Alpha virt. eigenvalues --    1.45029   1.48738   1.49820   1.51053   1.52086
 Alpha virt. eigenvalues --    1.53580   1.54144   1.55039   1.56759   1.57832
 Alpha virt. eigenvalues --    1.59671   1.61023   1.61399   1.61735   1.63421
 Alpha virt. eigenvalues --    1.64682   1.65841   1.66593   1.67600   1.68773
 Alpha virt. eigenvalues --    1.70300   1.70961   1.71585   1.73543   1.73669
 Alpha virt. eigenvalues --    1.75436   1.76198   1.78082   1.79037   1.80248
 Alpha virt. eigenvalues --    1.80887   1.82334   1.83140   1.85543   1.87572
 Alpha virt. eigenvalues --    1.90850   1.91371   1.93390   1.94145   1.95864
 Alpha virt. eigenvalues --    1.98322   1.99445   1.99926   2.02764   2.04172
 Alpha virt. eigenvalues --    2.05658   2.06318   2.07613   2.10150   2.11765
 Alpha virt. eigenvalues --    2.13644   2.15231   2.16951   2.18329   2.22016
 Alpha virt. eigenvalues --    2.23476   2.23822   2.25806   2.28015   2.28635
 Alpha virt. eigenvalues --    2.30780   2.33047   2.34050   2.37325   2.42357
 Alpha virt. eigenvalues --    2.43372   2.43889   2.45995   2.50427   2.50656
 Alpha virt. eigenvalues --    2.54301   2.54930   2.56237   2.57381   2.59460
 Alpha virt. eigenvalues --    2.62893   2.64118   2.65931   2.66591   2.68324
 Alpha virt. eigenvalues --    2.69943   2.70552   2.71631   2.74127   2.75234
 Alpha virt. eigenvalues --    2.77168   2.77364   2.79288   2.81440   2.83246
 Alpha virt. eigenvalues --    2.84246   2.86228   2.87194   2.88228   2.90228
 Alpha virt. eigenvalues --    2.92027   2.93327   2.94109   2.95005   2.96783
 Alpha virt. eigenvalues --    2.98120   2.99257   3.00806   3.02331   3.03491
 Alpha virt. eigenvalues --    3.05661   3.06640   3.07486   3.09361   3.10077
 Alpha virt. eigenvalues --    3.12704   3.13216   3.14397   3.14539   3.18053
 Alpha virt. eigenvalues --    3.19519   3.20498   3.21976   3.23029   3.24355
 Alpha virt. eigenvalues --    3.24734   3.27652   3.29038   3.30317   3.31000
 Alpha virt. eigenvalues --    3.32967   3.33359   3.34060   3.36192   3.37314
 Alpha virt. eigenvalues --    3.39158   3.40437   3.40965   3.41922   3.43336
 Alpha virt. eigenvalues --    3.44546   3.45371   3.47269   3.47971   3.48671
 Alpha virt. eigenvalues --    3.48917   3.51206   3.52064   3.52747   3.56095
 Alpha virt. eigenvalues --    3.56857   3.58084   3.58615   3.59242   3.62989
 Alpha virt. eigenvalues --    3.64238   3.67744   3.69928   3.72877   3.75248
 Alpha virt. eigenvalues --    3.77266   3.79299   3.79579   3.82420   3.86377
 Alpha virt. eigenvalues --    3.88064   3.88743   3.89795   3.94100   3.98460
 Alpha virt. eigenvalues --    3.99720   4.02620   4.04928   4.07510   4.10133
 Alpha virt. eigenvalues --    4.10628   4.12078   4.13111   4.16644   4.19956
 Alpha virt. eigenvalues --    4.21103   4.24402   4.26683   4.27006   4.27993
 Alpha virt. eigenvalues --    4.29152   4.30391   4.31387   4.32944   4.35148
 Alpha virt. eigenvalues --    4.39287   4.40907   4.41345   4.44464   4.48962
 Alpha virt. eigenvalues --    4.50600   4.55805   4.57398   4.61431   4.63918
 Alpha virt. eigenvalues --    4.67273   4.72736   4.73521   4.76015   4.78988
 Alpha virt. eigenvalues --    4.83645   4.84373   4.87589   4.90199   4.98324
 Alpha virt. eigenvalues --    5.02441   5.07469   5.15055   5.22202   5.25773
 Alpha virt. eigenvalues --    5.27336   5.27589   5.38638   5.45545   5.50084
 Alpha virt. eigenvalues --    5.52178   5.59281   5.63856   5.66496   5.76163
 Alpha virt. eigenvalues --    5.93015   5.99497   6.06641   6.17455   6.37812
 Alpha virt. eigenvalues --    6.40653   6.46073   6.54682   6.59289   6.63669
 Alpha virt. eigenvalues --    6.77653   6.87573   6.89167   6.99735   7.08420
 Alpha virt. eigenvalues --    7.12353   7.27791   7.48129   7.86468  22.14177
 Alpha virt. eigenvalues --   22.56844  22.68683  22.75859  22.84775  22.93573
 Alpha virt. eigenvalues --   22.96225  23.10861  23.46503  43.97383  44.36825
          Condensed to atoms (all electrons):
               1          2          3          4          5          6
     1  O    7.834511   0.658655  -0.082415   0.002807   0.002050  -0.000117
     2  C    0.658655   4.726511   0.366510  -0.024182  -0.042036   0.000381
     3  C   -0.082415   0.366510   4.991385   0.228349  -0.053112  -0.007126
     4  O    0.002807  -0.024182   0.228349   7.921037   0.322945  -0.039523
     5  C    0.002050  -0.042036  -0.053112   0.322945   5.020823   0.297501
     6  C   -0.000117   0.000381  -0.007126  -0.039523   0.297501   5.201198
     7  C    0.000011  -0.000277   0.000777   0.001906   0.105498   0.301148
     8  C   -0.000017   0.000622  -0.000737   0.000584  -0.126366   0.099000
     9  Br  -0.000000   0.000010  -0.000019   0.000002  -0.004039   0.020784
    10  C   -0.000643  -0.003559  -0.000042   0.003850   0.084177  -0.149788
    11  C    0.023389   0.070813   0.096457  -0.087831   0.247009   0.078862
    12  C   -0.140424   0.179348  -0.314475   0.025663  -0.047175   0.024454
    13  H    0.008081  -0.029116   0.384001  -0.024567   0.006484  -0.000586
    14  H    0.004251  -0.039453   0.384250  -0.044097   0.006263   0.005755
    15  H   -0.000003   0.000177  -0.000041   0.007772  -0.069566   0.447716
    16  H    0.000000  -0.000004   0.000040  -0.000127   0.015235  -0.064448
    17  H    0.000041   0.000312   0.000244  -0.000107   0.011085  -0.004463
    18  H    0.002143  -0.009801   0.005224  -0.000288  -0.003925  -0.001007
    19  H    0.005817  -0.005901   0.012798  -0.000931  -0.007372  -0.000014
               7          8          9         10         11         12
     1  O    0.000011  -0.000017  -0.000000  -0.000643   0.023389  -0.140424
     2  C   -0.000277   0.000622   0.000010  -0.003559   0.070813   0.179348
     3  C    0.000777  -0.000737  -0.000019  -0.000042   0.096457  -0.314475
     4  O    0.001906   0.000584   0.000002   0.003850  -0.087831   0.025663
     5  C    0.105498  -0.126366  -0.004039   0.084177   0.247009  -0.047175
     6  C    0.301148   0.099000   0.020784  -0.149788   0.078862   0.024454
     7  C    5.156425   0.326259  -0.087100   0.080623  -0.137938  -0.004943
     8  C    0.326259   4.925388   0.372766   0.319667   0.087043   0.005156
     9  Br  -0.087100   0.372766  34.837792  -0.091512   0.022052  -0.000979
    10  C    0.080623   0.319667  -0.091512   5.411142   0.201401  -0.029565
    11  C   -0.137938   0.087043   0.022052   0.201401   5.648899  -0.138010
    12  C   -0.004943   0.005156  -0.000979  -0.029565  -0.138010   5.809126
    13  H    0.000050  -0.000021   0.000000   0.000283  -0.005024   0.018138
    14  H   -0.000766   0.000204   0.000002  -0.002225  -0.007652   0.012343
    15  H   -0.055756   0.011763  -0.000193  -0.004465   0.017875  -0.000271
    16  H    0.453574  -0.069072  -0.005128   0.019917  -0.006679   0.000037
    17  H    0.015172  -0.055890  -0.002696   0.437405  -0.055810   0.001243
    18  H    0.000330   0.000418  -0.000010   0.000184  -0.030954   0.378775
    19  H   -0.000032   0.000246  -0.000014  -0.003803  -0.006134   0.352451
              13         14         15         16         17         18
     1  O    0.008081   0.004251  -0.000003   0.000000   0.000041   0.002143
     2  C   -0.029116  -0.039453   0.000177  -0.000004   0.000312  -0.009801
     3  C    0.384001   0.384250  -0.000041   0.000040   0.000244   0.005224
     4  O   -0.024567  -0.044097   0.007772  -0.000127  -0.000107  -0.000288
     5  C    0.006484   0.006263  -0.069566   0.015235   0.011085  -0.003925
     6  C   -0.000586   0.005755   0.447716  -0.064448  -0.004463  -0.001007
     7  C    0.000050  -0.000766  -0.055756   0.453574   0.015172   0.000330
     8  C   -0.000021   0.000204   0.011763  -0.069072  -0.055890   0.000418
     9  Br   0.000000   0.000002  -0.000193  -0.005128  -0.002696  -0.000010
    10  C    0.000283  -0.002225  -0.004465   0.019917   0.437405   0.000184
    11  C   -0.005024  -0.007652   0.017875  -0.006679  -0.055810  -0.030954
    12  C    0.018138   0.012343  -0.000271   0.000037   0.001243   0.378775
    13  H    0.520622  -0.021243  -0.000152  -0.000000  -0.000002  -0.000351
    14  H   -0.021243   0.585822   0.000067  -0.000001  -0.000041  -0.001640
    15  H   -0.000152   0.000067   0.515852  -0.007448   0.000022   0.000013
    16  H   -0.000000  -0.000001  -0.007448   0.521488   0.000074  -0.000000
    17  H   -0.000002  -0.000041   0.000022   0.000074   0.509296   0.000269
    18  H   -0.000351  -0.001640   0.000013  -0.000000   0.000269   0.522959
    19  H   -0.000407   0.000025   0.000029  -0.000001   0.000183  -0.013466
              19
     1  O    0.005817
     2  C   -0.005901
     3  C    0.012798
     4  O   -0.000931
     5  C   -0.007372
     6  C   -0.000014
     7  C   -0.000032
     8  C    0.000246
     9  Br  -0.000014
    10  C   -0.003803
    11  C   -0.006134
    12  C    0.352451
    13  H   -0.000407
    14  H    0.000025
    15  H    0.000029
    16  H   -0.000001
    17  H    0.000183
    18  H   -0.013466
    19  H    0.519346
 Mulliken charges:
               1
     1  O   -0.318136
     2  C    0.150989
     3  C   -0.012067
     4  O   -0.293261
     5  C    0.234522
     6  C   -0.209728
     7  C   -0.154961
     8  C    0.102987
     9  Br  -0.061718
    10  C   -0.273046
    11  C   -0.017768
    12  C   -0.130889
    13  H    0.143812
    14  H    0.118138
    15  H    0.136610
    16  H    0.142543
    17  H    0.143663
    18  H    0.151128
    19  H    0.147179
 Sum of Mulliken charges =  -0.00000
 Mulliken charges with hydrogens summed into heavy atoms:
               1
     1  O   -0.318136
     2  C    0.150989
     3  C    0.249883
     4  O   -0.293261
     5  C    0.234522
     6  C   -0.073117
     7  C   -0.012417
     8  C    0.102987
     9  Br  -0.061718
    10  C   -0.129382
    11  C   -0.017768
    12  C    0.167419
 Electronic spatial extent (au):  <R**2>=           3600.7793
 Charge=             -0.0000 electrons
 Dipole moment (field-independent basis, Debye):
    X=              0.3006    Y=              0.8634    Z=              1.1844  Tot=              1.4962
 Quadrupole moment (field-independent basis, Debye-Ang):
   XX=            -94.9644   YY=            -78.3811   ZZ=            -81.5773
   XY=             -4.9246   XZ=             -5.1619   YZ=             -0.7313
 Traceless Quadrupole moment (field-independent basis, Debye-Ang):
   XX=             -9.9901   YY=              6.5932   ZZ=              3.3970
   XY=             -4.9246   XZ=             -5.1619   YZ=             -0.7313
 Octapole moment (field-independent basis, Debye-Ang**2):
  XXX=            142.1376  YYY=             -3.8843  ZZZ=              1.8043  XYY=             44.7575
  XXY=             39.0541  XXZ=             19.3631  XZZ=             17.6788  YZZ=             -7.4991
  YYZ=              0.9869  XYZ=              1.2853
 Hexadecapole moment (field-independent basis, Debye-Ang**3):
 XXXX=          -3617.6970 YYYY=           -656.5345 ZZZZ=           -113.8959 XXXY=           -267.7599
 XXXZ=            -69.1462 YYYX=            -37.0346 YYYZ=             -6.7601 ZZZX=              1.0941
 ZZZY=              2.6650 XXYY=           -726.2561 XXZZ=           -559.4527 YYZZ=           -136.7473
 XXYZ=            -11.6452 YYXZ=             -7.5574 ZZXY=             -9.4440
 N-N= 9.033998399348D+02 E-N=-9.119341711963D+03  KE= 3.065714034732D+03
   1 Symmetry operations used in ECPInt.
 ECPInt:  NShTT=   13695 NPrTT=   45780 LenC2=   12846 LenP2D=   31922.
 LDataN:  DoStor=T MaxTD1= 7 Len=  274
 Calling FoFJK, ICntrl=      2127 FMM=F ISym2X=0 I1Cent= 0 IOpClX= 0 NMat=1 NMatS=1 NMatT=0.
 ***** Axes restored to original set *****
 -------------------------------------------------------------------
 Center     Atomic                   Forces (Hartrees/Bohr)
 Number     Number              X              Y              Z
 -------------------------------------------------------------------
      1        8           0.041433741    0.017215304    0.006992479
      2        6          -0.040155970   -0.018732469    0.000175406
      3        6          -0.010353729    0.010733429   -0.007309205
      4        8          -0.001673304   -0.013869719    0.003121950
      5        6           0.008187127    0.002962922   -0.002263635
      6        6           0.008013491   -0.008248033    0.001554337
      7        6          -0.007888025    0.003651608   -0.001169186
      8        6          -0.011789182    0.001000472    0.000249652
      9       35           0.000638164   -0.000636115    0.000163020
     10        6           0.004108369    0.011829127   -0.001348379
     11        6           0.012267709    0.000307977    0.001590285
     12        6           0.003046485    0.004538120   -0.008109202
     13        1           0.004349878   -0.001589479    0.000867407
     14        1           0.000840059   -0.002824084    0.001503911
     15        1          -0.002190178   -0.003838249    0.000945178
     16        1          -0.003038163   -0.002523580    0.000520222
     17        1          -0.000604882    0.004005744   -0.000360849
     18        1          -0.002891339   -0.002271874   -0.002799819
     19        1          -0.002300250   -0.001711101    0.005676427
 -------------------------------------------------------------------
 Cartesian Forces:  Max     0.041433741 RMS     0.009818316

 GradGradGradGradGradGradGradGradGradGradGradGradGradGradGradGradGradGrad
 Berny optimization.
 FormGI is forming the generalized inverse of G from B-inverse, IUseBI=4.
 Internal  Forces:  Max     0.045185829 RMS     0.005560085
 Search for a local minimum.
 Step number   1 out of a maximum of  111
 All quantities printed in internal units (Hartrees-Bohrs-Radians)
 Mixed Optimization -- RFO/linear search
 Second derivative matrix not updated -- first step.
 ITU=  0
     Eigenvalues ---    0.00671   0.00830   0.01423   0.01519   0.01997
     Eigenvalues ---    0.02078   0.02099   0.02136   0.02148   0.02165
     Eigenvalues ---    0.02166   0.02176   0.04426   0.05611   0.06892
     Eigenvalues ---    0.07601   0.09878   0.10761   0.11957   0.12389
     Eigenvalues ---    0.15999   0.16000   0.16000   0.18741   0.20496
     Eigenvalues ---    0.22057   0.22514   0.23514   0.24383   0.24736
     Eigenvalues ---    0.24841   0.24999   0.30133   0.31206   0.31772
     Eigenvalues ---    0.34092   0.34195   0.34206   0.34242   0.35023
     Eigenvalues ---    0.35123   0.35202   0.40151   0.41571   0.41794
     Eigenvalues ---    0.45128   0.45871   0.46340   0.46666   0.50006
     Eigenvalues ---    0.90480
 RFO step:  Lambda=-6.61021269D-03 EMin= 6.71035798D-03
 Linear search not attempted -- first point.
 Iteration  1 RMS(Cart)=  0.01871004 RMS(Int)=  0.00056707
 Iteration  2 RMS(Cart)=  0.00055615 RMS(Int)=  0.00038833
 Iteration  3 RMS(Cart)=  0.00000022 RMS(Int)=  0.00038833
 Variable       Old X    -DE/DX   Delta X   Delta X   Delta X     New X
                                 (Linear)    (Quad)   (Total)
    R1        2.32713  -0.04519   0.00000  -0.04958  -0.04958   2.27755
    R2        2.85872  -0.00271   0.00000  -0.00503  -0.00498   2.85374
    R3        2.84096   0.00080   0.00000   0.00570   0.00564   2.84660
    R4        2.68237  -0.00314   0.00000  -0.00567  -0.00557   2.67681
    R5        2.06924  -0.00447   0.00000  -0.01280  -0.01280   2.05643
    R6        2.07175   0.00137   0.00000   0.00394   0.00394   2.07569
    R7        2.58402  -0.00252   0.00000  -0.00680  -0.00674   2.57728
    R8        2.63782  -0.00639   0.00000  -0.01341  -0.01342   2.62440
    R9        2.64393  -0.00781   0.00000  -0.02014  -0.02020   2.62373
   R10        2.63645  -0.01321   0.00000  -0.02768  -0.02768   2.60877
   R11        2.05476  -0.00409   0.00000  -0.01142  -0.01142   2.04334
   R12        2.63103  -0.00656   0.00000  -0.01363  -0.01361   2.61742
   R13        2.05349  -0.00386   0.00000  -0.01077  -0.01077   2.04271
   R14        3.57184   0.00089   0.00000   0.00459   0.00459   3.57644
   R15        2.63717  -0.01296   0.00000  -0.02774  -0.02773   2.60943
   R16        2.65335  -0.01194   0.00000  -0.02655  -0.02656   2.62680
   R17        2.05637  -0.00397   0.00000  -0.01112  -0.01112   2.04526
   R18        2.83918   0.00585   0.00000   0.01620   0.01610   2.85528
   R19        2.06984  -0.00112   0.00000  -0.00320  -0.00320   2.06664
   R20        2.07002  -0.00298   0.00000  -0.00854  -0.00854   2.06148
    A1        2.13550  -0.00509   0.00000  -0.01975  -0.02140   2.11410
    A2        2.12534   0.00495   0.00000   0.01829   0.01665   2.14199
    A3        2.01763   0.00033   0.00000   0.01088   0.00946   2.02709
    A4        1.99648  -0.00402   0.00000  -0.01286  -0.01290   1.98357
    A5        1.88947   0.00253   0.00000   0.02243   0.02234   1.91181
    A6        1.90331  -0.00145   0.00000  -0.02415  -0.02423   1.87908
    A7        1.87283   0.00161   0.00000   0.00372   0.00388   1.87670
    A8        1.91541   0.00079   0.00000  -0.00104  -0.00165   1.91376
    A9        1.88288   0.00088   0.00000   0.01458   0.01471   1.89760
   A10        1.99390   0.00842   0.00000   0.04237   0.04200   2.03590
   A11        2.02262   0.00319   0.00000   0.01594   0.01601   2.03863
   A12        2.15708  -0.00341   0.00000  -0.01936  -0.01941   2.13767
   A13        2.10301   0.00023   0.00000   0.00319   0.00316   2.10617
   A14        2.09862   0.00024   0.00000   0.00116   0.00111   2.09973
   A15        2.09272  -0.00207   0.00000  -0.01228  -0.01227   2.08045
   A16        2.09183   0.00183   0.00000   0.01116   0.01117   2.10300
   A17        2.08627  -0.00110   0.00000  -0.00486  -0.00488   2.08140
   A18        2.08743   0.00154   0.00000   0.00840   0.00839   2.09582
   A19        2.10948  -0.00044   0.00000  -0.00352  -0.00353   2.10595
   A20        2.09022   0.00013   0.00000   0.00104   0.00104   2.09127
   A21        2.10324   0.00037   0.00000   0.00040   0.00040   2.10365
   A22        2.08970  -0.00050   0.00000  -0.00143  -0.00143   2.08827
   A23        2.09793   0.00242   0.00000   0.00840   0.00838   2.10631
   A24        2.09196  -0.00029   0.00000   0.00131   0.00132   2.09328
   A25        2.09324  -0.00213   0.00000  -0.00975  -0.00974   2.08350
   A26        2.07696  -0.00216   0.00000  -0.00815  -0.00809   2.06887
   A27        2.12224  -0.00064   0.00000  -0.00638  -0.00661   2.11563
   A28        2.08369   0.00279   0.00000   0.01430   0.01442   2.09812
   A29        1.96088   0.00059   0.00000   0.01670   0.01612   1.97700
   A30        1.88050  -0.00167   0.00000  -0.02364  -0.02350   1.85700
   A31        1.88671  -0.00049   0.00000   0.00451   0.00366   1.89038
   A32        1.91019   0.00247   0.00000   0.01161   0.01189   1.92208
   A33        1.90836   0.00202   0.00000   0.03095   0.03062   1.93898
   A34        1.91674  -0.00312   0.00000  -0.04271  -0.04293   1.87380
    D1       -2.42103  -0.00163   0.00000   0.02532   0.02471  -2.39633
    D2       -0.33412  -0.00036   0.00000   0.03775   0.03713  -0.29699
    D3        1.71017   0.00130   0.00000   0.05439   0.05349   1.76366
    D4        0.82311  -0.00400   0.00000  -0.07805  -0.07758   0.74553
    D5        2.91003  -0.00273   0.00000  -0.06562  -0.06516   2.84487
    D6       -1.32887  -0.00106   0.00000  -0.04898  -0.04880  -1.37767
    D7        2.87077  -0.00125   0.00000  -0.02986  -0.03057   2.84020
    D8       -1.30700   0.00106   0.00000  -0.02092  -0.02178  -1.32879
    D9        0.76348  -0.00381   0.00000  -0.08197  -0.08249   0.68099
   D10       -0.37272   0.00045   0.00000   0.07041   0.07106  -0.30166
   D11        1.73269   0.00277   0.00000   0.07935   0.07985   1.81254
   D12       -2.48000  -0.00211   0.00000   0.01830   0.01914  -2.46087
   D13       -0.82915   0.00039   0.00000   0.01116   0.01079  -0.81836
   D14       -2.92538  -0.00143   0.00000  -0.01177  -0.01203  -2.93742
   D15        1.31629  -0.00380   0.00000  -0.03064  -0.03087   1.28542
   D16       -2.75104   0.00106   0.00000   0.01806   0.01825  -2.73279
   D17        0.42352   0.00059   0.00000   0.02596   0.02591   0.44943
   D18       -3.13617  -0.00009   0.00000   0.01927   0.01912  -3.11705
   D19        0.01150  -0.00014   0.00000   0.01270   0.01265   0.02415
   D20       -0.02645   0.00029   0.00000   0.01116   0.01114  -0.01531
   D21        3.12122   0.00025   0.00000   0.00459   0.00467   3.12589
   D22        3.13409   0.00057   0.00000  -0.01132  -0.01094   3.12314
   D23        0.01881   0.00101   0.00000  -0.00150  -0.00120   0.01760
   D24        0.02692   0.00002   0.00000  -0.00328  -0.00320   0.02372
   D25       -3.08836   0.00046   0.00000   0.00654   0.00654  -3.08182
   D26        0.00940  -0.00044   0.00000  -0.01225  -0.01225  -0.00285
   D27       -3.13451  -0.00008   0.00000  -0.00376  -0.00371  -3.13823
   D28       -3.13827  -0.00041   0.00000  -0.00577  -0.00577   3.13914
   D29        0.00100  -0.00005   0.00000   0.00272   0.00276   0.00376
   D30        3.14122   0.00028   0.00000   0.00823   0.00824  -3.13372
   D31        0.00673   0.00023   0.00000   0.00536   0.00541   0.01214
   D32        0.00198  -0.00008   0.00000  -0.00038  -0.00035   0.00163
   D33       -3.13251  -0.00013   0.00000  -0.00325  -0.00319  -3.13570
   D34       -0.00597   0.00010   0.00000   0.00256   0.00257  -0.00341
   D35        3.12453  -0.00014   0.00000  -0.00094  -0.00100   3.12353
   D36       -3.14047   0.00005   0.00000  -0.00032  -0.00027  -3.14074
   D37       -0.00997  -0.00019   0.00000  -0.00383  -0.00384  -0.01381
   D38       -0.01078  -0.00024   0.00000  -0.00359  -0.00365  -0.01443
   D39        3.10509  -0.00072   0.00000  -0.01350  -0.01360   3.09148
   D40       -3.14127  -0.00000   0.00000  -0.00016  -0.00017  -3.14145
   D41       -0.02540  -0.00048   0.00000  -0.01007  -0.01013  -0.03553
   D42       -0.03152  -0.00063   0.00000  -0.04398  -0.04387  -0.07539
   D43       -2.11973  -0.00057   0.00000  -0.03279  -0.03276  -2.15249
   D44        2.06325   0.00050   0.00000  -0.00660  -0.00630   2.05695
   D45        3.13648  -0.00011   0.00000  -0.03379  -0.03363   3.10285
   D46        1.04828  -0.00006   0.00000  -0.02260  -0.02253   1.02575
   D47       -1.05193   0.00101   0.00000   0.00359   0.00394  -1.04799
         Item               Value     Threshold  Converged?
 Maximum Force            0.045186     0.000450     NO 
 RMS     Force            0.005560     0.000300     NO 
 Maximum Displacement     0.074933     0.001800     NO 
 RMS     Displacement     0.018757     0.001200     NO 
 Predicted change in Energy=-3.515096D-03
 GradGradGradGradGradGradGradGradGradGradGradGradGradGradGradGradGradGrad

                          Input orientation:                          
 ---------------------------------------------------------------------
 Center     Atomic      Atomic             Coordinates (Angstroms)
 Number     Number       Type             X           Y           Z
 ---------------------------------------------------------------------
      1          8           0       -3.579747   -0.552645   -0.204603
      2          6           0       -2.445427   -0.228683    0.042253
      3          6           0       -2.094573    1.205442    0.359578
      4          8           0       -0.906022    1.651988   -0.268458
      5          6           0        0.175461    0.824811   -0.189570
      6          6           0        1.425453    1.412913   -0.332223
      7          6           0        2.567955    0.638968   -0.293622
      8          6           0        2.453052   -0.728769   -0.107765
      9         35           0        4.009481   -1.803329   -0.039468
     10          6           0        1.210622   -1.316930    0.023347
     11          6           0        0.053382   -0.548350   -0.024559
     12          6           0       -1.302651   -1.210012    0.055080
     13          1           0       -2.902244    1.858230    0.034385
     14          1           0       -1.990362    1.289672    1.449783
     15          1           0        1.492009    2.482796   -0.474015
     16          1           0        3.539217    1.100908   -0.401930
     17          1           0        1.131224   -2.388692    0.151423
     18          1           0       -1.391459   -1.775178    0.987121
     19          1           0       -1.445371   -1.913039   -0.766757
 ---------------------------------------------------------------------
                    Distance matrix (angstroms):
                    1          2          3          4          5
     1  O    0.000000
     2  C    1.205227   0.000000
     3  C    2.369580   1.510135   0.000000
     4  O    3.466019   2.450149   1.416505   0.000000
     5  C    3.999900   2.834192   2.366326   1.363838   0.000000
     6  C    5.378823   4.221230   3.593357   2.344568   1.388774
     7  C    6.262755   5.098983   4.742018   3.618751   2.401955
     8  C    6.036146   4.926224   4.963917   4.120340   2.758209
     9  Br   7.693365   6.644699   6.816995   6.012805   4.650737
    10  C    4.856308   3.814621   4.171298   3.657842   2.388293
    11  C    3.637590   2.520059   2.799475   2.412764   1.388417
    12  C    2.384268   1.506355   2.560132   2.907410   2.526890
    13  H    2.515640   2.136341   1.088217   2.029569   3.254287
    14  H    2.942323   2.119817   1.098408   2.063836   2.755788
    15  H    5.916857   4.808540   3.897446   2.546184   2.136146
    16  H    7.311144   6.146631   5.685984   4.481257   3.381742
    17  H    5.068636   4.179711   4.833932   4.544642   3.369920
    18  H    2.775499   2.096490   3.126064   3.682064   3.255731
    19  H    2.592730   2.119354   3.378612   3.639865   3.233584
                    6          7          8          9         10
     6  C    0.000000
     7  C    1.380504   0.000000
     8  C    2.386031   1.385081   0.000000
     9  Br   4.136076   2.847351   1.892569   0.000000
    10  C    2.761273   2.401741   1.380853   2.841503   0.000000
    11  C    2.413253   2.793778   2.407880   4.150411   1.390041
    12  C    3.804247   4.303709   3.789910   5.345999   2.515747
    13  H    4.365968   5.614024   5.949115   7.822047   5.195906
    14  H    3.854676   4.923528   5.122888   6.912499   4.367539
    15  H    1.081288   2.142405   3.372223   4.989726   3.842455
    16  H    2.137804   1.080958   2.148024   2.964308   3.383660
    17  H    3.843526   3.380679   2.137698   2.943374   1.082304
    18  H    4.454166   4.810963   4.132071   5.497711   2.812415
    19  H    4.415021   4.779475   4.127283   5.504216   2.834415
                   11         12         13         14         15
    11  C    0.000000
    12  C    1.510948   0.000000
    13  H    3.811933   3.460237   0.000000
    14  H    3.119118   2.943902   1.777115   0.000000
    15  H    3.385189   4.661212   4.467440   4.153487   0.000000
    16  H    3.874727   5.384505   6.500487   5.834443   2.471006
    17  H    2.139993   2.705978   5.858235   4.996039   4.924706
    18  H    2.148527   1.093618   4.048683   3.156904   5.345994
    19  H    2.158586   1.090886   4.121502   3.932864   5.295023
                   16         17         18         19
    16  H    0.000000
    17  H    4.275738   0.000000
    18  H    5.874768   2.727402   0.000000
    19  H    5.836360   2.776354   1.760114   0.000000
 Stoichiometry    C9H7BrO2
 Framework group  C1[X(C9H7BrO2)]
 Deg. of freedom    51
 Full point group                 C1      NOp   1
 Largest Abelian subgroup         C1      NOp   1
 Largest concise Abelian subgroup C1      NOp   1
                         Standard orientation:                         
 ---------------------------------------------------------------------
 Center     Atomic      Atomic             Coordinates (Angstroms)
 Number     Number       Type             X           Y           Z
 ---------------------------------------------------------------------
      1          8           0       -4.380302   -1.409823   -0.287896
      2          6           0       -3.393781   -0.786931    0.014350
      3          6           0       -3.483031    0.660418    0.435922
      4          8           0       -2.471986    1.478944   -0.124694
      5          6           0       -1.196019    1.000753   -0.067315
      6          6           0       -0.172681    1.937347   -0.132634
      7          6           0        1.146366    1.530656   -0.110066
      8          6           0        1.436615    0.179448   -0.018190
      9         35           0        3.239336   -0.394994    0.026893
     10          6           0        0.420638   -0.754161    0.035845
     11          6           0       -0.910826   -0.356227    0.003193
     12          6           0       -2.013274   -1.389447   -0.002422
     13          1           0       -4.443591    1.070090    0.129799
     14          1           0       -3.419036    0.692858    1.531984
     15          1           0       -0.422051    2.987221   -0.201635
     16          1           0        1.940028    2.262965   -0.157963
     17          1           0        0.658423   -1.808598    0.090648
     18          1           0       -1.941359   -2.021337    0.887265
     19          1           0       -1.934908   -2.042509   -0.872710
 ---------------------------------------------------------------------
 Rotational constants (GHZ):           2.0682743           0.3006544           0.2647873
 Standard basis: def2TZVP (5D, 7F)
 There are   493 symmetry adapted cartesian basis functions of A   symmetry.
 There are   431 symmetry adapted basis functions of A   symmetry.
   431 basis functions,   731 primitive gaussians,   493 cartesian basis functions
    56 alpha electrons       56 beta electrons
       nuclear repulsion energy       906.5195789006 Hartrees.
 NAtoms=   19 NActive=   19 NUniq=   19 SFac= 1.00D+00 NAtFMM=   60 NAOKFM=F Big=F
 Integral buffers will be    131072 words long.
 Raffenetti 2 integral format.
 Two-electron integral symmetry is turned on.
 Nuclear repulsion after empirical dispersion term =      906.5086005110 Hartrees.
 One-electron integrals computed using PRISM.
   1 Symmetry operations used in ECPInt.
 ECPInt:  NShTT=   13695 NPrTT=   45780 LenC2=   12852 LenP2D=   31950.
 LDataN:  DoStor=T MaxTD1= 6 Len=  172
 NBasis=   431 RedAO= T EigKep=  7.04D-06  NBF=   431
 NBsUse=   431 1.00D-06 EigRej= -1.00D+00 NBFU=   431
 Initial guess from the checkpoint file:  "/home/rpaton/opt/Gau-761509.chk"
 B after Tr=     0.000000   -0.000000   -0.000000
         Rot=    1.000000   -0.000195    0.000094    0.000311 Ang=  -0.04 deg.
 ExpMin= 9.52D-02 ExpMax= 5.65D+05 ExpMxC= 5.46D+03 IAcc=3 IRadAn=         5 AccDes= 0.00D+00
 Harris functional with IExCor= 4639 and IRadAn=       5 diagonalized for initial guess.
 HarFok:  IExCor= 4639 AccDes= 0.00D+00 IRadAn=         5 IDoV= 1 UseB2=F ITyADJ=14
 ICtDFT=  3500011 ScaDFX=  1.000000  1.000000  1.000000  1.000000
 FoFCou: FMM=F IPFlag=           0 FMFlag=      100000 FMFlg1=           0
         NFxFlg=           0 DoJE=T BraDBF=F KetDBF=T FulRan=T
         wScrn=  0.000000 ICntrl=       500 IOpCl=  0 I1Cent=   200000004 NGrid=           0
         NMat0=    1 NMatS0=      1 NMatT0=    0 NMatD0=    1 NMtDS0=    0 NMtDT0=    0
 Petite list used in FoFCou.
 Requested convergence on RMS density matrix=1.00D-08 within 128 cycles.
 Requested convergence on MAX density matrix=1.00D-06.
 Requested convergence on             energy=1.00D-06.
 No special actions if energy rises.
 Integral accuracy reduced to 1.0D-05 until final iterations.
 Initial convergence to 1.0D-05 achieved.  Increase integral accuracy.
 SCF Done:  E(RwB97XD) =  -3071.84346276     A.U. after   20 cycles
            NFock= 20  Conv=0.71D-08     -V/T= 2.0019
   1 Symmetry operations used in ECPInt.
 ECPInt:  NShTT=   13695 NPrTT=   45780 LenC2=   12852 LenP2D=   31950.
 LDataN:  DoStor=T MaxTD1= 7 Len=  274
 Calling FoFJK, ICntrl=      2127 FMM=F ISym2X=0 I1Cent= 0 IOpClX= 0 NMat=1 NMatS=1 NMatT=0.
 ***** Axes restored to original set *****
 -------------------------------------------------------------------
 Center     Atomic                   Forces (Hartrees/Bohr)
 Number     Number              X              Y              Z
 -------------------------------------------------------------------
      1        8           0.004231384    0.000033718    0.003944261
      2        6          -0.007436431   -0.001659379   -0.009376373
      3        6           0.002188590    0.002715028    0.002723737
      4        8           0.000029538   -0.002860436   -0.000044205
      5        6          -0.002964876    0.003292409   -0.000813004
      6        6           0.001340029    0.000215056    0.000213441
      7        6          -0.000040191    0.001589709   -0.000264747
      8        6          -0.000938416   -0.001213879    0.000159986
      9       35           0.000553982   -0.000340678    0.000014612
     10        6           0.001033365   -0.000355151    0.000198186
     11        6          -0.001357244   -0.002665414    0.001123015
     12        6           0.003465936    0.004151026    0.000661842
     13        1           0.001150904   -0.000521647   -0.000473835
     14        1           0.000184922    0.000423492    0.000954579
     15        1          -0.000780438    0.000374599    0.000144993
     16        1           0.000264401   -0.000257282   -0.000015413
     17        1          -0.000119368   -0.000393275    0.000155121
     18        1           0.000051720   -0.002001268   -0.000025928
     19        1          -0.000857806   -0.000526628    0.000719733
 -------------------------------------------------------------------
 Cartesian Forces:  Max     0.009376373 RMS     0.002237978

 GradGradGradGradGradGradGradGradGradGradGradGradGradGradGradGradGradGrad
 Berny optimization.
 Using GEDIIS/GDIIS optimizer.
 FormGI is forming the generalized inverse of G from B-inverse, IUseBI=4.
 Internal  Forces:  Max     0.004799367 RMS     0.000906328
 Search for a local minimum.
 Step number   2 out of a maximum of  111
 All quantities printed in internal units (Hartrees-Bohrs-Radians)
 Mixed Optimization -- En-DIIS/RFO-DIIS
 Update second derivatives using D2CorX and points    1    2
 DE= -3.25D-03 DEPred=-3.52D-03 R= 9.26D-01
 TightC=F SS=  1.41D+00  RLast= 2.48D-01 DXNew= 5.0454D-01 7.4546D-01
 Trust test= 9.26D-01 RLast= 2.48D-01 DXMaxT set to 5.05D-01
 ITU=  1  0
 Use linear search instead of GDIIS.
     Eigenvalues ---    0.00699   0.00890   0.01461   0.01526   0.02009
     Eigenvalues ---    0.02080   0.02101   0.02133   0.02148   0.02165
     Eigenvalues ---    0.02168   0.02176   0.04241   0.05724   0.06517
     Eigenvalues ---    0.07660   0.10024   0.10949   0.11888   0.12395
     Eigenvalues ---    0.15859   0.16000   0.16001   0.18717   0.20408
     Eigenvalues ---    0.22258   0.22467   0.23541   0.24411   0.24730
     Eigenvalues ---    0.25000   0.25298   0.30503   0.31181   0.31970
     Eigenvalues ---    0.33903   0.34142   0.34208   0.34268   0.35055
     Eigenvalues ---    0.35161   0.35253   0.40124   0.41339   0.41712
     Eigenvalues ---    0.45133   0.45956   0.46200   0.47225   0.50374
     Eigenvalues ---    0.82547
 RFO step:  Lambda=-1.17505087D-03 EMin= 6.99335158D-03
 Quartic linear search produced a step of -0.02628.
 Iteration  1 RMS(Cart)=  0.02051703 RMS(Int)=  0.00128108
 Iteration  2 RMS(Cart)=  0.00101462 RMS(Int)=  0.00060754
 Iteration  3 RMS(Cart)=  0.00000063 RMS(Int)=  0.00060753
 Variable       Old X    -DE/DX   Delta X   Delta X   Delta X     New X
                                 (Linear)    (Quad)   (Total)
    R1        2.27755  -0.00480   0.00130  -0.01762  -0.01631   2.26124
    R2        2.85374   0.00261   0.00013   0.00564   0.00615   2.85989
    R3        2.84660   0.00109  -0.00015   0.00413   0.00435   2.85094
    R4        2.67681  -0.00181   0.00015  -0.00588  -0.00570   2.67110
    R5        2.05643  -0.00103   0.00034  -0.00613  -0.00580   2.05064
    R6        2.07569   0.00100  -0.00010   0.00384   0.00374   2.07943
    R7        2.57728  -0.00253   0.00018  -0.00616  -0.00633   2.57095
    R8        2.62440   0.00062   0.00035  -0.00214  -0.00179   2.62261
    R9        2.62373   0.00158   0.00053  -0.00103  -0.00090   2.62283
   R10        2.60877   0.00035   0.00073  -0.00613  -0.00542   2.60336
   R11        2.04334   0.00030   0.00030  -0.00202  -0.00172   2.04162
   R12        2.61742   0.00181   0.00036   0.00053   0.00088   2.61830
   R13        2.04271   0.00013   0.00028  -0.00234  -0.00206   2.04065
   R14        3.57644   0.00065  -0.00012   0.00452   0.00440   3.58084
   R15        2.60943  -0.00013   0.00073  -0.00714  -0.00641   2.60302
   R16        2.62680   0.00083   0.00070  -0.00493  -0.00422   2.62257
   R17        2.04526   0.00042   0.00029  -0.00163  -0.00133   2.04392
   R18        2.85528  -0.00184  -0.00042  -0.00084  -0.00134   2.85394
   R19        2.06664   0.00101   0.00008   0.00207   0.00216   2.06879
   R20        2.06148  -0.00009   0.00022  -0.00240  -0.00217   2.05930
    A1        2.11410   0.00173   0.00056   0.00422   0.00090   2.11500
    A2        2.14199   0.00003  -0.00044   0.00716   0.00280   2.14479
    A3        2.02709  -0.00176  -0.00025  -0.01142  -0.01345   2.01364
    A4        1.98357  -0.00025   0.00034  -0.01436  -0.01331   1.97027
    A5        1.91181  -0.00035  -0.00059   0.00416   0.00312   1.91493
    A6        1.87908   0.00094   0.00064   0.00396   0.00462   1.88370
    A7        1.87670  -0.00031  -0.00010  -0.00303  -0.00337   1.87334
    A8        1.91376  -0.00019   0.00004   0.00183   0.00168   1.91544
    A9        1.89760   0.00017  -0.00039   0.00840   0.00802   1.90562
   A10        2.03590   0.00058  -0.00110   0.00765   0.00637   2.04227
   A11        2.03863  -0.00024  -0.00042   0.00456   0.00427   2.04289
   A12        2.13767   0.00042   0.00051  -0.00461  -0.00441   2.13326
   A13        2.10617  -0.00016  -0.00008   0.00055   0.00056   2.10673
   A14        2.09973  -0.00013  -0.00003  -0.00066  -0.00073   2.09900
   A15        2.08045  -0.00076   0.00032  -0.00763  -0.00729   2.07316
   A16        2.10300   0.00089  -0.00029   0.00829   0.00802   2.11102
   A17        2.08140   0.00010   0.00013  -0.00063  -0.00056   2.08084
   A18        2.09582   0.00030  -0.00022   0.00393   0.00373   2.09955
   A19        2.10595  -0.00040   0.00009  -0.00333  -0.00322   2.10274
   A20        2.09127  -0.00018  -0.00003  -0.00052  -0.00053   2.09074
   A21        2.10365   0.00023  -0.00001   0.00117   0.00113   2.10477
   A22        2.08827  -0.00005   0.00004  -0.00064  -0.00059   2.08767
   A23        2.10631  -0.00034  -0.00022   0.00029   0.00006   2.10637
   A24        2.09328   0.00027  -0.00003   0.00181   0.00178   2.09506
   A25        2.08350   0.00008   0.00026  -0.00212  -0.00186   2.08164
   A26        2.06887   0.00031   0.00021  -0.00069  -0.00047   2.06840
   A27        2.11563  -0.00079   0.00017  -0.00597  -0.00579   2.10984
   A28        2.09812   0.00047  -0.00038   0.00665   0.00627   2.10439
   A29        1.97700   0.00100  -0.00042   0.00576   0.00616   1.98316
   A30        1.85700   0.00048   0.00062   0.00181   0.00226   1.85926
   A31        1.89038  -0.00097  -0.00010  -0.00430  -0.00486   1.88552
   A32        1.92208  -0.00037  -0.00031   0.00220   0.00165   1.92373
   A33        1.93898   0.00058  -0.00080   0.01586   0.01482   1.95380
   A34        1.87380  -0.00083   0.00113  -0.02373  -0.02250   1.85130
    D1       -2.39633  -0.00071  -0.00065  -0.11236  -0.11277  -2.50909
    D2       -0.29699  -0.00152  -0.00098  -0.12284  -0.12364  -0.42063
    D3        1.76366  -0.00098  -0.00141  -0.10825  -0.10960   1.65406
    D4        0.74553   0.00083   0.00204   0.03049   0.03244   0.77796
    D5        2.84487   0.00002   0.00171   0.02002   0.02156   2.86643
    D6       -1.37767   0.00057   0.00128   0.03461   0.03560  -1.34207
    D7        2.84020   0.00104   0.00080   0.12408   0.12480   2.96500
    D8       -1.32879   0.00151   0.00057   0.13153   0.13218  -1.19661
    D9        0.68099   0.00032   0.00217   0.10290   0.10502   0.78602
   D10       -0.30166  -0.00053  -0.00187  -0.02129  -0.02315  -0.32482
   D11        1.81254  -0.00006  -0.00210  -0.01384  -0.01578   1.79676
   D12       -2.46087  -0.00125  -0.00050  -0.04246  -0.04293  -2.50380
   D13       -0.81836  -0.00116  -0.00028  -0.02788  -0.02867  -0.84704
   D14       -2.93742  -0.00034   0.00032  -0.02185  -0.02191  -2.95932
   D15        1.28542  -0.00026   0.00081  -0.03115  -0.03048   1.25494
   D16       -2.73279   0.00069  -0.00048   0.01976   0.01915  -2.71365
   D17        0.44943   0.00037  -0.00068   0.00570   0.00473   0.45417
   D18       -3.11705  -0.00021  -0.00050  -0.00425  -0.00491  -3.12196
   D19        0.02415  -0.00016  -0.00033  -0.00448  -0.00495   0.01920
   D20       -0.01531   0.00013  -0.00029   0.00940   0.00914  -0.00616
   D21        3.12589   0.00018  -0.00012   0.00917   0.00910   3.13500
   D22        3.12314   0.00030   0.00029   0.01214   0.01257   3.13571
   D23        0.01760   0.00039   0.00003   0.01194   0.01208   0.02969
   D24        0.02372  -0.00003   0.00008  -0.00253  -0.00244   0.02128
   D25       -3.08182   0.00006  -0.00017  -0.00273  -0.00292  -3.08474
   D26       -0.00285  -0.00011   0.00032  -0.00895  -0.00867  -0.01151
   D27       -3.13823  -0.00004   0.00010  -0.00337  -0.00327  -3.14149
   D28        3.13914  -0.00016   0.00015  -0.00871  -0.00862   3.13052
   D29        0.00376  -0.00009  -0.00007  -0.00313  -0.00322   0.00054
   D30       -3.13372   0.00005  -0.00022   0.00496   0.00476  -3.12896
   D31        0.01214   0.00002  -0.00014   0.00181   0.00168   0.01382
   D32        0.00163  -0.00002   0.00001  -0.00063  -0.00062   0.00100
   D33       -3.13570  -0.00005   0.00008  -0.00378  -0.00370  -3.13941
   D34       -0.00341   0.00007  -0.00007   0.00506   0.00502   0.00161
   D35        3.12353   0.00003   0.00003   0.00328   0.00331   3.12684
   D36       -3.14074   0.00004   0.00001   0.00191   0.00194  -3.13880
   D37       -0.01381   0.00000   0.00010   0.00014   0.00024  -0.01357
   D38       -0.01443  -0.00006   0.00010  -0.00464  -0.00458  -0.01901
   D39        3.09148  -0.00017   0.00036  -0.00470  -0.00435   3.08713
   D40       -3.14145  -0.00002   0.00000  -0.00291  -0.00292   3.13882
   D41       -0.03553  -0.00013   0.00027  -0.00297  -0.00269  -0.03822
   D42       -0.07539   0.00026   0.00115  -0.00025   0.00110  -0.07429
   D43       -2.15249  -0.00074   0.00086  -0.00787  -0.00703  -2.15952
   D44        2.05695   0.00016   0.00017   0.01022   0.01061   2.06756
   D45        3.10285   0.00036   0.00088  -0.00030   0.00075   3.10361
   D46        1.02575  -0.00065   0.00059  -0.00792  -0.00738   1.01837
   D47       -1.04799   0.00026  -0.00010   0.01017   0.01026  -1.03773
         Item               Value     Threshold  Converged?
 Maximum Force            0.004799     0.000450     NO 
 RMS     Force            0.000906     0.000300     NO 
 Maximum Displacement     0.150247     0.001800     NO 
 RMS     Displacement     0.020488     0.001200     NO 
 Predicted change in Energy=-6.494870D-04
 GradGradGradGradGradGradGradGradGradGradGradGradGradGradGradGradGradGrad

                          Input orientation:                          
 ---------------------------------------------------------------------
 Center     Atomic      Atomic             Coordinates (Angstroms)
 Number     Number       Type             X           Y           Z
 ---------------------------------------------------------------------
      1          8           0       -3.590206   -0.560602   -0.125096
      2          6           0       -2.449603   -0.223292    0.005621
      3          6           0       -2.089866    1.204856    0.353936
      4          8           0       -0.905699    1.643942   -0.280804
      5          6           0        0.177015    0.823687   -0.204387
      6          6           0        1.426333    1.413816   -0.334819
      7          6           0        2.566707    0.642117   -0.291067
      8          6           0        2.451111   -0.725565   -0.101810
      9         35           0        4.010053   -1.799526   -0.018459
     10          6           0        1.211910   -1.313486    0.025187
     11          6           0        0.055516   -0.548604   -0.035749
     12          6           0       -1.303411   -1.203857    0.033466
     13          1           0       -2.889006    1.869925    0.043115
     14          1           0       -1.971459    1.267597    1.446134
     15          1           0        1.484483    2.484016   -0.470859
     16          1           0        3.539061    1.100781   -0.392411
     17          1           0        1.131568   -2.383769    0.158955
     18          1           0       -1.402444   -1.772367    0.963780
     19          1           0       -1.452062   -1.919569   -0.774733
 ---------------------------------------------------------------------
                    Distance matrix (angstroms):
                    1          2          3          4          5
     1  O    0.000000
     2  C    1.196594   0.000000
     3  C    2.365868   1.513388   0.000000
     4  O    3.477187   2.439722   1.413486   0.000000
     5  C    4.014286   2.835383   2.365537   1.360487   0.000000
     6  C    5.395180   4.221245   3.589109   2.343981   1.387826
     7  C    6.275480   5.099051   4.734593   3.614050   2.398147
     8  C    6.043613   4.927557   4.955270   4.112757   2.753583
     9  Br   7.701314   6.649230   6.809846   6.007571   4.648440
    10  C    4.863099   3.820417   4.165555   3.650243   2.385628
    11  C    3.646836   2.526492   2.798060   2.406500   1.387943
    12  C    2.380829   1.508655   2.554039   2.892559   2.521740
    13  H    2.535239   2.139168   1.085151   2.022251   3.249055
    14  H    2.903689   2.127545   1.100387   2.063927   2.745400
    15  H    5.928045   4.799332   3.884908   2.540633   2.130064
    16  H    7.325168   6.146194   5.679144   4.479215   3.378681
    17  H    5.069494   4.185208   4.826374   4.535008   3.366150
    18  H    2.727696   2.101010   3.115817   3.669729   3.255581
    19  H    2.615431   2.116931   3.382709   3.638830   3.241086
                    6          7          8          9         10
     6  C    0.000000
     7  C    1.377638   0.000000
     8  C    2.383572   1.385545   0.000000
     9  Br   4.135367   2.849418   1.894898   0.000000
    10  C    2.759304   2.399974   1.377461   2.840378   0.000000
    11  C    2.412401   2.790893   2.403030   4.147706   1.387806
    12  C    3.799915   4.300088   3.787281   5.347001   2.517723
    13  H    4.355803   5.602142   5.939228   7.814453   5.191526
    14  H    3.839032   4.899392   5.091950   6.879736   4.337617
    15  H    1.080378   2.143857   3.372236   4.993185   3.839450
    16  H    2.136569   1.079868   2.145605   2.962001   3.379157
    17  H    3.840879   3.379072   2.135142   2.942531   1.081598
    18  H    4.454223   4.812332   4.132937   5.500969   2.815382
    19  H    4.426075   4.790268   4.136814   5.515529   2.846744
                   11         12         13         14         15
    11  C    0.000000
    12  C    1.510242   0.000000
    13  H    3.811262   3.458662   0.000000
    14  H    3.098902   2.924039   1.781335   0.000000
    15  H    3.380541   4.650496   4.446199   4.134982   0.000000
    16  H    3.870758   5.379801   6.488552   5.811532   2.478060
    17  H    2.136265   2.708702   5.854259   4.961661   4.921031
    18  H    2.149954   1.094758   4.040270   3.130148   5.339414
    19  H    2.167586   1.089736   4.134483   3.919190   5.301622
                   16         17         18         19
    16  H    0.000000
    17  H    4.271078   0.000000
    18  H    5.874751   2.728145   0.000000
    19  H    5.846365   2.786108   1.745439   0.000000
 Stoichiometry    C9H7BrO2
 Framework group  C1[X(C9H7BrO2)]
 Deg. of freedom    51
 Full point group                 C1      NOp   1
 Largest Abelian subgroup         C1      NOp   1
 Largest concise Abelian subgroup C1      NOp   1
                         Standard orientation:                         
 ---------------------------------------------------------------------
 Center     Atomic      Atomic             Coordinates (Angstroms)
 Number     Number       Type             X           Y           Z
 ---------------------------------------------------------------------
      1          8           0       -4.390445   -1.418636   -0.219848
      2          6           0       -3.399440   -0.775706   -0.029090
      3          6           0       -3.475906    0.662894    0.434511
      4          8           0       -2.466600    1.476425   -0.128880
      5          6           0       -1.192051    1.003145   -0.079298
      6          6           0       -0.168821    1.939520   -0.126839
      7          6           0        1.146942    1.531903   -0.104441
      8          6           0        1.434700    0.179195   -0.020116
      9         35           0        3.238769   -0.398038    0.032567
     10          6           0        0.420527   -0.751860    0.024480
     11          6           0       -0.908419   -0.354035   -0.016050
     12          6           0       -2.016912   -1.379512   -0.037748
     13          1           0       -4.431950    1.089328    0.148704
     14          1           0       -3.390153    0.670266    1.531527
     15          1           0       -0.424980    2.987650   -0.181819
     16          1           0        1.943515    2.260069   -0.141318
     17          1           0        0.655508   -1.806342    0.076495
     18          1           0       -1.953172   -2.024373    0.844628
     19          1           0       -1.943046   -2.040856   -0.900703
 ---------------------------------------------------------------------
 Rotational constants (GHZ):           2.0720408           0.3006965           0.2647287
 Standard basis: def2TZVP (5D, 7F)
 There are   493 symmetry adapted cartesian basis functions of A   symmetry.
 There are   431 symmetry adapted basis functions of A   symmetry.
   431 basis functions,   731 primitive gaussians,   493 cartesian basis functions
    56 alpha electrons       56 beta electrons
       nuclear repulsion energy       907.0547513781 Hartrees.
 NAtoms=   19 NActive=   19 NUniq=   19 SFac= 1.00D+00 NAtFMM=   60 NAOKFM=F Big=F
 Integral buffers will be    131072 words long.
 Raffenetti 2 integral format.
 Two-electron integral symmetry is turned on.
 Nuclear repulsion after empirical dispersion term =      907.0437616330 Hartrees.
 One-electron integrals computed using PRISM.
   1 Symmetry operations used in ECPInt.
 ECPInt:  NShTT=   13695 NPrTT=   45780 LenC2=   12854 LenP2D=   31962.
 LDataN:  DoStor=T MaxTD1= 6 Len=  172
 NBasis=   431 RedAO= T EigKep=  7.00D-06  NBF=   431
[...]
 0,-0.00042596,-0.00484663,0.00010297,-0.00506781,0.00746707,0.00223460
 ,0.00672068,0.00540541,-0.01115483,0.10394263,-0.15626031,0.03537258,0
 .03027200,0.66981207,-0.00059590,0.00114256,0.00016869,0.00007235,-0.0
 0120919,0.00119690,0.01471017,-0.01732195,0.00170768,-0.02904225,0.045
 07711,-0.06732344,0.00137072,-0.09061493,0.19254536,-0.00016116,-0.001
 63533,-0.00004770,-0.00090078,0.00295773,0.00054358,0.00314651,0.00187
 200,-0.00424000,-0.05486530,-0.00789261,-0.00190666,-0.27612905,-0.052
 63648,0.00205697,0.69090352,0.00011461,0.00089367,0.00003288,0.0009333
 4,-0.00132570,-0.00075292,0.00291350,-0.00096336,0.00371522,0.02863365
 ,0.01604015,-0.00414862,-0.13180689,-0.18205315,0.01537981,-0.00251012
 ,0.74670378,0.00011749,0.00036461,0.00001135,-0.00103240,-0.00108450,0
 .00018654,0.00083773,0.00058178,-0.00049703,-0.00764094,-0.00190747,0.
 00824298,0.01441725,0.01843849,-0.07311502,0.02631573,-0.10309940,0.15
 126418,-0.00076894,0.00035170,0.00047220,0.00077699,-0.00138083,-0.000
 40872,-0.00146339,-0.00048786,-0.00135460,0.00095772,-0.00078799,0.002
 82351,-0.05927061,-0.01809269,-0.00107962,-0.28380188,0.13471923,-0.03
 533206,0.75010611,-0.00013766,-0.00008236,-0.00006872,0.00043654,-0.00
 000862,0.00004437,-0.00090978,0.00071752,0.00023799,-0.00648393,-0.005
 63056,0.00091188,0.04090114,0.07690189,-0.00984843,0.06131327,-0.19523
 717,0.02557737,0.03895275,0.66623163,0.00005750,0.00006176,-0.00002481
 ,0.00026616,-0.00006069,-0.00013310,-0.00095515,0.00059631,0.00054166,
 0.00232171,0.00114203,0.00684648,-0.00988240,-0.01296308,0.00529716,-0
 .02249337,0.02966041,-0.06744900,0.02462288,-0.09178488,0.15508394,0.0
 0086150,-0.00003906,-0.00018823,-0.00179231,0.00051971,0.00008563,0.00
 040453,-0.00013002,-0.00017983,0.00044040,0.00251873,0.00004830,-0.028
 17954,-0.04171210,0.00570776,0.04507084,0.02177107,-0.00201971,-0.1182
 3032,0.00558431,-0.00331625,0.55565618,-0.00038174,-0.00001247,0.00015
 596,0.00064022,0.00005490,-0.00014111,-0.00009911,-0.00055356,-0.00087
 502,0.00283452,0.00391215,0.00167236,-0.04217158,-0.06272181,0.0063363
 6,0.08414513,-0.03335826,0.01067643,-0.06390274,-0.31972827,0.04331088
 ,0.06934717,0.59273049,-0.00028549,0.00024535,0.00026880,-0.00084848,-
 0.00069427,-0.00011957,0.00011824,-0.00003002,0.00020478,-0.00017866,-
 0.00060592,-0.00123636,0.00595423,0.00751898,-0.00685918,-0.01221233,0
 .00862446,0.00736609,0.00807408,0.04687500,-0.07471403,0.01219992,-0.0
 8131869,0.13534956,-0.00078310,-0.00009123,0.00053401,0.00055414,-0.00
 031867,-0.00064005,0.00085938,0.00022804,-0.00046784,-0.00248346,0.001
 03048,-0.00034880,0.00130573,-0.00006203,0.00038074,0.00146623,0.00090
 325,-0.00008754,-0.01162646,0.00794992,-0.00236221,-0.11039592,0.05191
 512,-0.01454583,0.15386146,0.00036829,0.00019494,-0.00021078,-0.000339
 02,-0.00018826,0.00019764,-0.00061382,-0.00016423,0.00041474,0.0018596
 0,-0.00051003,0.00003195,-0.00007222,0.00138666,-0.00050996,-0.0038433
 9,-0.00289701,0.00097980,0.03187115,-0.01766890,0.00560515,0.05194597,
 -0.06531110,0.01148781,-0.08188249,0.08290817,-0.00009369,-0.00007619,
 0.00008980,-0.00005093,0.00009091,-0.00003763,0.00025897,0.00001296,-0
 .00018821,-0.00061719,0.00001868,-0.00051295,0.00019815,-0.00030347,-0
 .00043232,0.00070111,0.00117069,0.00385806,-0.00663770,0.00436789,0.00
 231983,-0.01458320,0.01144127,-0.02175520,0.02308110,-0.01800413,0.014
 08020,-0.00238560,0.00123530,0.00196836,0.00057044,-0.00543468,-0.0036
 4426,-0.00133299,0.00058265,0.00176817,0.00012236,-0.00902923,-0.00124
 070,0.04907116,0.08508194,-0.01126260,-0.07531942,0.00407709,-0.003702
 62,0.02771867,-0.08555815,0.01507586,-0.28260997,-0.06090340,-0.000716
 86,-0.03177252,-0.00011204,-0.00196118,0.67328263,-0.00139208,0.001013
 35,0.00170518,-0.00174586,-0.00344990,-0.00215806,-0.00112855,0.000380
 02,0.00130739,-0.00156757,-0.00546124,0.00071432,0.02677562,-0.0291979
 4,0.00822779,0.00061125,-0.00203922,0.00035056,-0.03015357,-0.01926530
 ,0.00327313,-0.12979624,-0.16649881,0.01000458,0.02351904,0.00168838,0
 .00162736,0.01447968,0.74034130,-0.00052533,0.00023206,-0.00014830,0.0
 0231337,-0.00096160,-0.00036306,-0.00070346,0.00056158,-0.00006166,-0.
 00012929,0.00161874,0.00604026,-0.00190907,0.00893422,0.00332009,-0.00
 393399,0.00016576,-0.00374344,0.00618838,0.00041007,0.00978569,0.01035
 687,0.01355409,-0.06748419,-0.00626684,0.00031975,0.00299970,0.0316144
 2,-0.10325360,0.15766771,0.00148681,0.00149299,0.00091545,-0.03342220,
 -0.00267990,0.00135228,0.00851542,0.00176037,-0.00291305,-0.01148582,0
 .04849589,-0.00790799,-0.13203012,-0.06929004,0.00931753,0.02989156,-0
 .03116072,0.00576045,-0.01263142,0.03051725,-0.00562974,-0.06116885,-0
 .02127584,-0.00097322,-0.00125339,-0.00033600,-0.00041889,-0.26993789,
 0.13267574,-0.03596254,0.68646486,0.00707255,-0.00329604,-0.00778851,0
 .01219759,0.01862074,0.00991837,-0.00458938,-0.00184355,0.00217244,0.0
 1803944,-0.03391751,0.00601554,0.01237083,-0.29790304,0.03626099,-0.08
 269854,-0.01597518,-0.00121663,0.02755205,-0.06361507,0.01142158,0.041
 68241,0.07147621,-0.00837499,-0.00473357,-0.00034315,0.00055607,0.0568
 2795,-0.19329552,0.02764176,-0.02814305,0.66552137,0.00315370,-0.00441
 054,-0.00141661,0.01099067,0.01018208,-0.00042930,0.00146810,0.0002982
 9,0.00090768,-0.00751588,0.01214616,0.00507603,-0.00259972,0.02954096,
 -0.08131926,0.01390340,0.00055691,0.01055326,-0.00312949,0.01165267,-0
 .00550597,-0.01108369,-0.00960949,0.00946986,0.00015599,0.00084691,0.0
 0389466,-0.02618608,0.02964430,-0.07107294,0.04805877,-0.07928666,0.18
 401967,-0.03972256,0.01783523,0.03476820,-0.11069943,0.04165981,0.0163
 2631,0.00783042,-0.00102221,0.00483328,-0.00087135,0.00356022,0.000704
 85,-0.00352653,-0.01127428,0.00023384,0.00064264,0.00152214,-0.0004832
 2,-0.00059514,-0.00125878,0.00041490,0.00107789,0.00366337,-0.00140446
 ,-0.00050973,-0.00014602,0.00003061,-0.03062641,-0.01192262,-0.0024892
 0,-0.19059042,-0.04474551,-0.00660671,0.47056831,-0.00156254,0.0232590
 3,0.00418132,0.03831216,-0.14952823,-0.02284296,0.02175835,-0.01844923
 ,-0.01396971,-0.00428956,0.00738138,-0.00091662,-0.03194387,-0.0160947
 5,-0.00013285,0.00076289,-0.00512699,0.00147122,0.00094209,-0.00062591
 ,-0.00003014,0.00247487,-0.00086926,0.00232760,0.00144123,-0.00021603,
 0.00007532,0.01575465,0.01326751,0.00033828,-0.04981521,-0.12006449,0.
 00286801,0.02423832,0.58181449,0.03437492,-0.00721359,0.00216734,0.012
 24152,-0.01981437,-0.08860382,0.00843492,0.00033014,0.01881401,-0.0012
 6653,-0.00222942,-0.00217497,0.00452277,0.00146110,0.00592988,0.000464
 57,0.00343870,0.00451134,-0.00124154,0.00019069,-0.00096506,-0.0007073
 0,0.00063193,0.00659616,0.00007958,0.00000548,0.00016413,-0.00350362,-
 0.00176739,0.00397495,-0.00934554,0.00382818,-0.06620796,0.00824529,-0
 .05678070,0.50634189,0.00022366,-0.00077305,-0.00002688,0.00611571,-0.
 00179462,0.00263775,-0.21362130,0.10308565,-0.08045028,-0.02998097,0.0
 1293383,-0.00198108,-0.00088825,-0.00388907,0.00259115,-0.00080711,0.0
 0106462,0.00003770,-0.00019763,-0.00022319,-0.00011623,0.00008848,-0.0
 0005324,0.00004605,-0.00010648,0.00009081,-0.00001422,0.00004557,0.000
 11197,-0.00011670,-0.00039108,-0.00017877,-0.00005672,-0.00044105,-0.0
 0089877,-0.00080370,0.24333865,-0.00195057,0.00344238,-0.00258039,0.02
 726569,-0.01792417,0.01289382,0.11172358,-0.11439683,0.05559074,-0.009
 97028,0.00613411,-0.00294756,-0.00140920,-0.00048193,0.00110462,-0.000
 28656,0.00036447,0.00003902,-0.00004011,-0.00007791,-0.00002056,-0.000
 00937,0.00002324,-0.00000863,-0.00000426,0.00001135,-0.00000338,-0.000
 00031,0.00004874,0.00002732,-0.00102075,0.00027195,0.00018104,-0.00226
 543,-0.00292972,-0.00158058,-0.11306620,0.11969644,0.00103563,0.000988
 50,-0.00021080,-0.00039729,-0.00380978,0.00071594,-0.09041808,0.055842
 11,-0.08701396,0.02583789,-0.01247055,0.00572119,0.00302940,0.00182303
 ,-0.00134906,0.00095784,-0.00082072,0.00015468,0.00014117,0.00031136,0
 .00004001,-0.00005365,-0.00008362,-0.00001472,0.00002557,-0.00003021,0
 .00000447,0.00003132,-0.00011762,0.00010038,0.00026283,0.00016192,0.00
 011710,-0.00014485,-0.00027489,-0.00062426,0.08165461,-0.05666911,0.09
 208262,-0.00003357,-0.00088864,0.00113536,0.00014351,0.00106141,-0.005
 11389,-0.05899752,-0.01903157,-0.05697051,-0.00793510,0.00790713,0.035
 87769,0.00622529,-0.00186789,0.00368078,-0.00078854,-0.00051101,-0.000
 51335,0.00028741,-0.00036159,-0.00014733,0.00013012,0.00035018,0.00004
 429,-0.00002072,0.00000924,0.00000666,-0.00017692,0.00012921,-0.000157
 20,-0.00022311,0.00019193,-0.00109214,-0.00029949,-0.00049822,0.000166
 83,-0.00356221,-0.00972727,-0.02204408,0.06515154,0.00092267,0.0002221
 8,0.00411118,-0.00878634,-0.01194809,-0.03262571,-0.02082098,-0.079739
 57,-0.08757535,-0.00139477,0.00665896,0.01163802,0.00162120,-0.0009192
 2,-0.00020846,0.00027671,-0.00006095,-0.00023782,-0.00005508,0.0002912
 2,-0.00005421,-0.00019563,-0.00025557,0.00005932,-0.00003799,0.0000427
 5,-0.00000484,0.00055523,-0.00000864,0.00010986,-0.00030663,0.00002475
 ,-0.00021446,0.00117745,-0.00297965,0.00412731,0.00380948,0.00709286,0
 .01529748,0.02317679,0.08127518,0.00042067,0.00032129,0.00086805,-0.00
 108618,-0.00135802,0.00084442,-0.05272077,-0.07903092,-0.25476844,0.01
 528093,-0.00222940,-0.02305660,-0.00484298,0.00291399,-0.00063698,0.00
 148550,-0.00021584,0.00006952,-0.00035052,0.00030481,-0.00016332,-0.00
 010873,-0.00036325,0.00004439,0.00017138,-0.00011392,0.00002436,0.0001
 8793,0.00005093,0.00025242,0.00021783,-0.00058867,0.00026249,-0.000117
 42,0.00010544,-0.00093735,-0.00330932,-0.00523689,-0.00960795,0.044937
 20,0.08555005,0.28682742,-0.00005705,0.00032331,0.00006451,0.00045676,
 -0.00057953,-0.00028890,-0.00032133,0.00028502,0.00041050,0.00265101,0
 .00089143,-0.00006010,0.00397154,-0.02858207,0.00474771,-0.06057520,-0
 .01721709,0.00191261,0.00627146,0.02649826,-0.00426313,-0.00287535,0.0
 0244352,-0.00088026,-0.00058834,0.00108270,-0.00025621,-0.00151085,0.0
 0031539,-0.00010602,-0.00492861,-0.00198926,-0.00032591,0.00025922,-0.
 00122722,0.00046970,0.00002180,0.00000569,-0.00002535,-0.00000132,-0.0
 0001716,-0.00003732,0.05672995,-0.00005640,0.00013764,0.00004898,0.000
 26260,-0.00023461,-0.00014426,-0.00015400,0.00010078,0.00005091,0.0007
 7656,0.00110731,-0.00093169,0.00272900,-0.01103247,0.00296324,-0.01871
 822,-0.33699013,0.04906506,-0.00329849,-0.01077227,0.00219802,0.002314
 65,0.00091705,0.00121446,0.00015894,-0.00048150,0.00010673,-0.00004849
 ,0.00070626,-0.00030603,-0.00255087,0.00052073,0.00078138,0.00025411,-
 0.00036140,0.00015957,0.00000269,0.00000907,0.00001548,0.00001721,0.00
 000234,-0.00002019,0.01834539,0.35598888,0.00001772,-0.00004725,-0.000
 02175,-0.00009496,0.00010406,0.00003702,0.00043909,-0.00024639,-0.0001
 8995,-0.00002960,-0.00112540,-0.00406627,-0.00214551,0.00157500,0.0054
 2250,0.00320353,0.04931176,-0.04444679,0.00047996,0.00364435,0.0022164
 9,-0.00107166,0.00100019,0.00706660,-0.00006505,0.00015399,0.00014198,
 0.00036361,-0.00034494,-0.00080336,0.00009995,0.00093878,0.00542648,-0
 .00005659,0.00017763,-0.00020613,0.00005172,0.00000682,-0.00004569,0.0
 0016771,0.00003488,-0.00003072,-0.00158722,-0.05423926,0.03427955,-0.0
 0005861,-0.00010671,0.00003410,0.00001029,0.00017245,0.00000604,0.0000
 6583,0.00007724,-0.00045235,-0.00149214,-0.00039881,0.00039035,-0.0011
 3137,0.00335891,-0.00095484,-0.01754123,-0.01281828,0.00093547,-0.2915
 8994,-0.11553199,0.00691034,0.00038801,0.00240314,-0.00062878,0.001124
 09,0.00065010,0.00009113,0.00157660,0.00002015,-0.00024931,0.00016359,
 0.00073494,-0.00008062,0.00002520,-0.00005028,0.00007797,-0.00008999,-
 0.00002837,0.00007430,0.00000337,-0.00001201,0.00004178,0.00087039,0.0
 0021752,0.00017451,0.30750097,-0.00001237,0.00005635,0.00001081,0.0000
 4164,-0.00009985,-0.00006418,0.00007329,-0.00002989,0.00026609,0.00099
 414,0.00031184,-0.00033708,0.00285522,-0.00117591,0.00173519,0.0170812
 0,0.01171236,-0.00033008,-0.11310285,-0.11307821,0.00731413,-0.0284195
 9,-0.00881218,0.00059583,-0.00044648,0.00047054,-0.00056061,0.00043450
 ,-0.00553469,0.00200256,0.00097542,-0.00081518,-0.00007501,-0.00008101
 ,0.00007356,-0.00003653,0.00006181,0.00001906,-0.00005158,-0.00000809,
 0.00001069,-0.00000810,-0.00040523,0.00057110,-0.00083410,0.12130813,0
 .11666730,-0.00001409,-0.00007276,-0.00001723,0.00001477,0.00015981,0.
 00005038,-0.00010048,0.00001702,-0.00005870,-0.00034291,-0.00014736,-0
 .00000188,-0.00104441,0.00141693,0.00740205,-0.00364747,-0.00225130,0.
 00398136,0.00630193,0.00712018,-0.03870471,0.00509408,0.00255139,0.002
 89746,0.00025026,-0.00048684,-0.00232322,-0.00055508,0.00204271,0.0051
 9063,-0.00010001,0.00009448,-0.00113512,0.00003387,-0.00023018,-0.0004
 6679,-0.00003848,-0.00002639,0.00001439,0.00002185,0.00001031,-0.00000
 224,0.00029847,-0.00081901,-0.00421667,-0.00637119,-0.00963272,0.02714
 967,0.00010483,-0.00016253,-0.00004395,-0.00022110,0.00014823,0.000315
 90,0.00062478,0.00006140,-0.00055009,-0.00063473,0.00191014,-0.0000489
 3,-0.00373380,0.00152421,-0.00102701,-0.00114884,0.00039396,-0.0001091
 8,-0.00510672,-0.00213933,-0.00029184,0.00163926,-0.02810078,0.0045566
 3,0.00043225,-0.00064032,0.00028490,-0.05901130,-0.01843413,0.00183424
 ,0.00518027,0.02568987,-0.00405345,0.00167048,0.00107989,-0.00023211,-
 0.00004701,-0.00004234,0.00002560,-0.00004220,-0.00005900,0.00004462,0
 .00006851,-0.00000142,0.00004342,0.00015683,-0.00140335,0.00031187,0.0
 6051236,-0.00000624,0.00009918,-0.00002472,0.00014221,-0.00019377,-0.0
 0025326,-0.00038529,0.00013778,0.00033612,0.00040796,-0.00107565,0.000
 03995,0.00227878,0.00121416,0.00129751,0.00026071,0.00068948,-0.000278
 05,-0.00270830,0.00083368,0.00057920,0.00285751,-0.01000097,0.00227303
 ,0.00045565,0.00102774,-0.00053313,-0.02086619,-0.33365350,0.04912129,
 -0.00295411,-0.01286250,0.00270917,-0.00113972,0.00087287,-0.00080674,
 0.00004125,0.00001342,-0.00003336,0.00002888,0.00001615,-0.00004663,-0
 .00001131,-0.00008523,-0.00006885,0.00001415,-0.00040329,0.00016112,0.
 02071856,0.35293472,0.00020894,-0.00008820,-0.00020307,0.00020933,0.00
 025496,0.00024118,0.00010852,-0.00004285,-0.00003187,-0.00014517,0.000
 09417,-0.00026692,-0.00096349,0.00143185,0.00696038,-0.00031304,-0.000
 25235,-0.00094104,-0.00002352,0.00032161,0.00548915,-0.00013566,0.0010
 8978,0.00294677,0.00011279,-0.00066926,-0.00230879,0.00140293,0.049319
 52,-0.04617161,0.00128176,0.00402100,0.00396148,0.00056315,-0.00138323
 ,-0.00390168,-0.00001658,-0.00000398,0.00000232,-0.00001921,-0.0000303
 9,-0.00000911,0.00001966,-0.00008636,-0.00052281,0.00000765,0.00003269
 ,0.00025194,-0.00140587,-0.05443079,0.03457624,0.00073892,-0.00258048,
 0.00081233,0.00299143,0.02124713,-0.01398535,-0.00230916,0.00085020,0.
 00369528,0.00098396,-0.00038488,0.00006041,-0.00680313,0.00000913,-0.0
 0065368,0.00078354,-0.00155938,-0.00029006,-0.00014002,0.00025897,0.00
 004854,-0.00003168,-0.00022072,-0.00007292,0.00002509,0.00004955,-0.00
 003949,0.00211560,-0.00114001,0.00003841,0.00010929,-0.02771777,0.0143
 4699,-0.05136943,-0.01039929,0.00603867,0.00007336,0.00029796,-0.00006
 572,0.00007838,0.00088663,-0.00015279,-0.00042255,-0.00018593,0.000061
 55,-0.00000858,0.00005624,-0.00002434,-0.00045025,0.00088175,-0.000037
 36,0.05365331,-0.00217175,0.00425911,-0.00058625,-0.00157021,-0.022355
 13,0.00967037,0.00279401,-0.00030604,-0.00221597,-0.00004771,0.0011900
 5,-0.00005519,-0.00163909,0.00106163,0.00055633,0.00030335,-0.00068653
 ,0.00004519,0.00011471,0.00033163,-0.00008476,-0.00027250,-0.00020881,
 -0.00042740,-0.00006684,0.00004967,-0.00000063,0.00178747,0.00093829,-
 0.00047241,-0.00121353,-0.01024000,0.00329674,-0.01032118,-0.26058108,
 0.11550806,-0.00005360,-0.00059385,-0.00000815,-0.00002870,-0.00068354
 ,-0.00001127,-0.00015141,-0.00005810,0.00001470,-0.00002422,0.00004284
 ,0.00007948,-0.00055544,0.00039926,0.00039247,0.01292441,0.28210776,-0
 .00227355,0.00109494,0.00013550,0.00070932,-0.01630511,0.00568173,0.00
 231195,-0.00121998,-0.00136256,-0.00008492,0.00023580,-0.00000639,-0.0
 0038044,0.00048645,0.00070571,-0.00052244,-0.00030764,0.00018827,0.000
 27491,-0.00037040,0.00011813,0.00025153,0.00026063,-0.00008527,0.00001
 961,-0.00003399,-0.00002429,-0.00019719,-0.00021657,0.00021009,-0.0013
 0067,-0.00500693,0.00090165,0.00699024,0.11747403,-0.10379916,-0.00009
 192,-0.00048956,-0.00001881,-0.00002448,-0.00034365,0.00004398,-0.0000
 5889,-0.00004985,-0.00006891,-0.00000426,-0.00001811,-0.00000685,0.000
 34341,0.00004642,0.00009342,-0.00658804,-0.12304347,0.11054532,-0.0041
 2206,0.00109752,-0.00229515,0.00694441,0.00072417,0.02420385,-0.002187
 78,-0.00002213,-0.00276084,0.00260188,0.00001823,-0.00028789,-0.002297
 15,0.00199093,-0.00025382,0.00013367,0.00053705,0.00087665,-0.00069588
 ,0.00019199,-0.00026023,-0.00047329,-0.00063322,0.00175387,-0.00008825
 ,0.00005789,0.00002009,0.00018087,-0.00135741,0.00020328,-0.01374888,-
 0.00756370,-0.02934719,-0.05282261,-0.00607947,-0.05801639,0.00022587,
 0.00052810,0.00007288,0.00006106,-0.00074057,-0.00006181,-0.00002004,-
 0.00006483,-0.00005217,0.00002669,-0.00000262,-0.00008865,0.00000638,-
 0.00001626,-0.00085484,-0.00001809,0.00019224,0.00062584,0.06629320,0.
 00109332,0.00008087,0.00180708,-0.00516287,-0.00369662,-0.02228313,0.0
 0237987,-0.00067476,0.00256169,0.00028979,0.00029859,0.00068446,-0.002
 23895,-0.00056173,-0.00023575,0.00063700,0.00030976,0.00056441,-0.0004
 9318,0.00048299,-0.00016429,-0.00044188,-0.00078296,0.00023351,0.00004
 190,0.00000002,0.00001850,0.00113603,0.00002092,-0.00004370,-0.0051710
 1,-0.00226452,-0.01110846,-0.00973390,-0.04884211,-0.03945183,-0.00027
 159,-0.00072266,-0.00007030,0.00005099,0.00095814,-0.00002341,-0.00001
 042,-0.00004544,-0.00005595,0.00001394,0.00001356,0.00001314,0.0000123
 9,0.00003648,0.00002937,0.00672649,0.00533284,0.02780700,0.01114209,0.
 05005663,0.00125382,-0.00102140,0.00243131,-0.00117947,-0.00233615,-0.
 01663942,0.00063075,-0.00062691,0.00084204,0.00081321,-0.00082033,-0.0
 0002091,-0.00040193,0.00178518,0.00037888,-0.00031522,-0.00020780,-0.0
 0019530,0.00017876,0.00010219,-0.00007853,-0.00029618,-0.00029009,0.00
 005808,-0.00002687,0.00001589,0.00000542,0.00055761,-0.00040958,0.0003
 0663,-0.00271519,-0.00076871,0.00249679,-0.06184207,-0.03245759,-0.280
 61253,0.00000310,-0.00027636,-0.00006784,0.00004382,0.00035648,-0.0000
 2434,-0.00003383,-0.00000718,0.00002842,-0.00000228,-0.00000920,-0.000
 00447,0.00000186,-0.00008827,-0.00016599,-0.00319244,-0.00265785,-0.01
 325155,0.06652253,0.03971766,0.30451330\\-0.00000005,0.00000135,-0.000
 00100,-0.00000117,0.00000376,0.00000333,0.00000250,0.00000583,0.000002
 68,-0.00000249,-0.00000072,-0.00000118,0.00000233,0.00000290,0.0000010
 0,-0.00000036,-0.00000161,0.00000174,0.00000238,-0.00000281,-0.0000021
 0,0.00000014,0.00000011,0.00000172,-0.00000137,-0.00000255,-0.00000070
 ,-0.00000349,-0.00000141,-0.00000045,0.00000268,-0.00000433,-0.0000005
 9,0.00000015,-0.00000216,-0.00000288,-0.00000051,0.00000055,-0.0000005
 6,0.00000156,0.00000083,-0.00000247,0.00000138,-0.00000033,0.00000022,
 0.00000081,-0.00000213,0.00000040,-0.00000152,-0.00000099,0.,-0.000001
 94,0.00000204,0.00000072,-0.00000105,0.00000166,0.00000012\\\@
 The archive entry for this job was punched.


 WE HAVE SEEN THAT MAN ON THE AVERAGE DOES NOT LIVE ABOVE
 TWO-AND-TWENTY YEARS.  DURING THESE TWO AND TWENTY
 YEARS HE IS LIABLE TO TWO AND TWENTY THOUSAND EVILS,
 MANY OF WHICH ARE INCURABLE.  YET EVEN IN THIS DREADFUL STATE
 MEN STILL STRUT AND POSE ON THE STAGE OF LIFE.
 THEY MAKE LOVE AT THE RISK OF DESTRUCTION,
 INTRIGUE, CARRY ON WAR, AND FORM PROJECTS, JUST AS IF THEY
 WERE TO LIVE IN LUXURY AND HAPPINESS FOR A THOUSAND
 AGES.

                                              -- VOLTAIRE
 Job cpu time:       0 days  8 hours 37 minutes 50.0 seconds.
 Elapsed time:       0 days  0 hours 21 minutes 42.3 seconds.
 File lengths (MBytes):  RWF=    341 Int=      0 D2E=      0 Chk=     16 Scr=      1
 Normal termination of Gaussian 16 at Tue Sep 17 17:34:15 2024.
