 Entering Gaussian System, Link 0=/usr/local/Gaussian/G16C/g16/g16
 Input=arbr48_xtbopt_oxd.com
 Output=arbr48_xtbopt_oxd.log
 Initial command:
 /usr/local/Gaussian/G16C/g16/l1.exe "/home/rpaton/arbr500/xtb/fukui/Gau-2163508.inp" -scrdir="/home/rpaton/arbr500/xtb/fukui/"
 Entering Link 1 = /usr/local/Gaussian/G16C/g16/l1.exe PID=   2163509.
  
 Copyright (c) 1988-2019, Gaussian, Inc.  All Rights Reserved.
  
 This is part of the Gaussian(R) 16 program.  It is based on
 the Gaussian(R) 09 system (copyright 2009, Gaussian, Inc.),
 the Gaussian(R) 03 system (copyright 2003, Gaussian, Inc.),
 the Gaussian(R) 98 system (copyright 1998, Gaussian, Inc.),
 the Gaussian(R) 94 system (copyright 1995, Gaussian, Inc.),
 the Gaussian 92(TM) system (copyright 1992, Gaussian, Inc.),
 the Gaussian 90(TM) system (copyright 1990, Gaussian, Inc.),
 the Gaussian 88(TM) system (copyright 1988, Gaussian, Inc.),
 the Gaussian 86(TM) system (copyright 1986, Carnegie Mellon
 University), and the Gaussian 82(TM) system (copyright 1983,
 Carnegie Mellon University). Gaussian is a federally registered
 trademark of Gaussian, Inc.
  
 This software contains proprietary and confidential information,
 including trade secrets, belonging to Gaussian, Inc.
  
 This software is provided under written license and may be
 used, copied, transmitted, or stored only in accord with that
 written license.
  
 The following legend is applicable only to US Government
 contracts under FAR:
  
                    RESTRICTED RIGHTS LEGEND
  
 Use, reproduction and disclosure by the US Government is
 subject to restrictions as set forth in subparagraphs (a)
 and (c) of the Commercial Computer Software - Restricted
 Rights clause in FAR 52.227-19.
  
 Gaussian, Inc.
 340 Quinnipiac St., Bldg. 40, Wallingford CT 06492
  
  
 ---------------------------------------------------------------
 Warning -- This program may not be used in any manner that
 competes with the business of Gaussian, Inc. or will provide
 assistance to any competitor of Gaussian, Inc.  The licensee
 of this program is prohibited from giving any competitor of
 Gaussian, Inc. access to this program.  By using this program,
 the user acknowledges that Gaussian, Inc. is engaged in the
 business of creating and licensing software in the field of
 computational chemistry and represents and warrants to the
 licensee that it is not a competitor of Gaussian, Inc. and that
 it will not use this program in any manner prohibited above.
 ---------------------------------------------------------------
  

 Cite this work as:
 Gaussian 16, Revision C.01,
 M. J. Frisch, G. W. Trucks, H. B. Schlegel, G. E. Scuseria, 
 M. A. Robb, J. R. Cheeseman, G. Scalmani, V. Barone, 
 G. A. Petersson, H. Nakatsuji, X. Li, M. Caricato, A. V. Marenich, 
 J. Bloino, B. G. Janesko, R. Gomperts, B. Mennucci, H. P. Hratchian, 
 J. V. Ortiz, A. F. Izmaylov, J. L. Sonnenberg, D. Williams-Young, 
 F. Ding, F. Lipparini, F. Egidi, J. Goings, B. Peng, A. Petrone, 
 T. Henderson, D. Ranasinghe, V. G. Zakrzewski, J. Gao, N. Rega, 
 G. Zheng, W. Liang, M. Hada, M. Ehara, K. Toyota, R. Fukuda, 
 J. Hasegawa, M. Ishida, T. Nakajima, Y. Honda, O. Kitao, H. Nakai, 
 T. Vreven, K. Throssell, J. A. Montgomery, Jr., J. E. Peralta, 
 F. Ogliaro, M. J. Bearpark, J. J. Heyd, E. N. Brothers, K. N. Kudin, 
 V. N. Staroverov, T. A. Keith, R. Kobayashi, J. Normand, 
 K. Raghavachari, A. P. Rendell, J. C. Burant, S. S. Iyengar, 
 J. Tomasi, M. Cossi, J. M. Millam, M. Klene, C. Adamo, R. Cammi, 
 J. W. Ochterski, R. L. Martin, K. Morokuma, O. Farkas, 
 J. B. Foresman, and D. J. Fox, Gaussian, Inc., Wallingford CT, 2019.
 
 ******************************************
 Gaussian 16:  ES64L-G16RevC.01  3-Jul-2019
                28-Sep-2024 
 ******************************************
 %nprocshared=24
 Will use up to   24 processors via shared memory.
 ----------------------------------
 # wb97xd midix pop(nbo6,hirshfeld)
 ----------------------------------
 1/38=1,172=1/1;
 2/12=2,17=6,18=5,40=1/2;
 3/5=20,11=2,25=1,30=1,74=-58/1,2,3;
 4//1;
 5/5=2,38=5/2;
 6/7=2,8=2,9=2,10=2,28=1,40=1,79=1,113=1,114=1,124=3103,126=1/1,12;
 99/5=1,9=1/99;
 -------------------------------------------------------------------
 energy: -32.159136574353 gnorm: 0.000850729375 xtb: 6.7.0 (08769fc)
 -------------------------------------------------------------------
 Symbolic Z-matrix:
 Charge =  1 Multiplicity = 2
 Br                    3.49952  -0.89335   0.00664 
 C                     1.8195    0.00208  -0.00085 
 C                     0.65976  -0.75455  -0.00012 
 C                    -0.57029  -0.11604  -0.00167 
 I                    -2.37275  -1.20212  -0.00201 
 C                    -0.61067   1.26535  -0.00373 
 C                     0.56934   2.01229  -0.0073 
 C                     1.79733   1.39259  -0.00607 
 C                     0.19051   3.4642   -0.02291 
 C                    -1.34975   3.39203   0.03979 
 O                    -1.72691   2.01413  -0.00429 
 H                     0.71393  -1.83172   0.00285 
 H                     2.71421   1.96007  -0.00857 
 H                     0.60931   4.00205   0.82808 
 H                     0.53844   3.95082  -0.93587 
 H                    -1.82941   3.89524  -0.80361 
 H                    -1.74362   3.81459   0.96951 
 
                          Input orientation:                          
 ---------------------------------------------------------------------
 Center     Atomic      Atomic             Coordinates (Angstroms)
 Number     Number       Type             X           Y           Z
 ---------------------------------------------------------------------
      1         35           0        3.499520   -0.893350    0.006640
      2          6           0        1.819500    0.002080   -0.000850
      3          6           0        0.659760   -0.754550   -0.000120
      4          6           0       -0.570290   -0.116040   -0.001670
      5         53           0       -2.372750   -1.202120   -0.002010
      6          6           0       -0.610670    1.265350   -0.003730
      7          6           0        0.569340    2.012290   -0.007300
      8          6           0        1.797330    1.392590   -0.006070
      9          6           0        0.190510    3.464200   -0.022910
     10          6           0       -1.349750    3.392030    0.039790
     11          8           0       -1.726910    2.014130   -0.004290
     12          1           0        0.713930   -1.831720    0.002850
     13          1           0        2.714210    1.960070   -0.008570
     14          1           0        0.609310    4.002050    0.828080
     15          1           0        0.538440    3.950820   -0.935870
     16          1           0       -1.829410    3.895240   -0.803610
     17          1           0       -1.743620    3.814590    0.969510
 ---------------------------------------------------------------------
                    Distance matrix (angstroms):
                    1          2          3          4          5
     1  Br   0.000000
     2  C    1.903764   0.000000
     3  C    2.843158   1.384733   0.000000
     4  C    4.143384   2.392708   1.385901   0.000000
     5  I    5.880388   4.361772   3.065361   2.104384   0.000000
     6  C    4.642602   2.738902   2.386211   1.381982   3.032052
     7  C    4.126608   2.367253   2.768326   2.414245   4.357563
     8  C    2.850111   1.390697   2.429879   2.807420   4.911426
     9  C    5.471623   3.826274   4.244828   3.660244   5.324029
    10  C    6.471553   4.640857   4.608020   3.593860   4.706856
    11  O    5.980730   4.077423   3.655380   2.423923   3.280454
    12  H    2.939399   2.141290   1.078535   2.143082   3.150240
    13  H    2.959552   2.152740   3.404409   3.885643   5.989712
    14  H    5.743955   4.260451   4.828427   4.363325   6.055173
    15  H    5.755198   4.255341   4.799047   4.317564   5.991654
    16  H    7.210034   5.395893   5.334989   4.280054   5.188532
    17  H    7.112126   5.307792   5.252948   4.215418   5.148498
                    6          7          8          9         10
     6  C    0.000000
     7  C    1.396551   0.000000
     8  C    2.411361   1.375496   0.000000
     9  C    2.340342   1.500599   2.621778   0.000000
    10  C    2.251866   2.364066   3.728804   1.543224   0.000000
    11  O    1.344122   2.296253   3.578629   2.404069   1.429266
    12  H    3.368449   3.846742   3.401472   5.321785   5.616734
    13  H    3.396688   2.145506   1.078290   2.937971   4.309132
    14  H    3.109628   2.158380   2.986047   1.090349   2.198054
    15  H    3.066119   2.149673   2.998979   1.091490   2.197594
    16  H    3.006901   3.151763   4.478010   2.208023   1.092986
    17  H    2.954555   3.090668   4.399564   2.201938   1.094564
                   11         12         13         14         15
    11  O    0.000000
    12  H    4.555032   0.000000
    13  H    4.441451   4.287064   0.000000
    14  H    3.178457   5.892777   3.049634   0.000000
    15  H    3.122566   5.860867   3.091431   1.766116   0.000000
    16  H    2.046459   6.317992   5.002145   2.936184   2.372192
    17  H    2.047003   6.233362   4.926270   2.364619   2.976043
                   16         17
    16  H    0.000000
    17  H    1.777025   0.000000
 Stoichiometry    C8H6BrIO(1+,2)
 Framework group  C1[X(C8H6BrIO)]
 Deg. of freedom    45
 Full point group                 C1      NOp   1
 Largest Abelian subgroup         C1      NOp   1
 Largest concise Abelian subgroup C1      NOp   1
                         Standard orientation:                         
 ---------------------------------------------------------------------
 Center     Atomic      Atomic             Coordinates (Angstroms)
 Number     Number       Type             X           Y           Z
 ---------------------------------------------------------------------
      1         35           0        3.506710   -0.898446    0.004264
      2          6           0        1.826503   -0.003362   -0.002707
      3          6           0        0.666919   -0.760229   -0.000984
      4          6           0       -0.563262   -0.121971   -0.002146
      5         53           0       -2.365500   -1.208419   -0.000984
      6          6           0       -0.603926    1.259410   -0.004822
      7          6           0        0.575929    2.006589   -0.009392
      8          6           0        1.804046    1.387141   -0.008558
      9          6           0        0.196794    3.458414   -0.025463
     10          6           0       -1.343417    3.385959    0.038125
     11          8           0       -1.720319    2.007962   -0.005109
     12          1           0        0.721311   -1.837386    0.002454
     13          1           0        2.720809    1.954807   -0.011829
     14          1           0        0.615956    3.996743    0.825046
     15          1           0        0.544117    3.944683   -0.938841
     16          1           0       -1.823648    3.888681   -0.805241
     17          1           0       -1.736857    3.808868    0.967868
 ---------------------------------------------------------------------
 Rotational constants (GHZ):           0.6686337           0.2710174           0.1933220
 Standard basis: MIDIx (5D, 7F)
 There are   167 symmetry adapted cartesian basis functions of A   symmetry.
 There are   161 symmetry adapted basis functions of A   symmetry.
   161 basis functions,   315 primitive gaussians,   167 cartesian basis functions
    75 alpha electrons       74 beta electrons
       nuclear repulsion energy      1338.4721735521 Hartrees.
 NAtoms=   17 NActive=   17 NUniq=   17 SFac= 1.00D+00 NAtFMM=   60 NAOKFM=F Big=F
 Integral buffers will be    131072 words long.
 Raffenetti 2 integral format.
 Two-electron integral symmetry is turned on.
 Nuclear repulsion after empirical dispersion term =     1338.4615001820 Hartrees.
 One-electron integrals computed using PRISM.
 NBasis=   161 RedAO= T EigKep=  1.05D-03  NBF=   161
 NBsUse=   161 1.00D-06 EigRej= -1.00D+00 NBFU=   161
 Defaulting to unpruned grid for atomic number  53.
 ExpMin= 1.15D-01 ExpMax= 1.44D+04 ExpMxC= 1.44D+04 IAcc=3 IRadAn=         5 AccDes= 0.00D+00
 Harris functional with IExCor= 4639 and IRadAn=       5 diagonalized for initial guess.
 HarFok:  IExCor= 4639 AccDes= 0.00D+00 IRadAn=         5 IDoV= 1 UseB2=F ITyADJ=14
 ICtDFT=  3500011 ScaDFX=  1.000000  1.000000  1.000000  1.000000
 Defaulting to unpruned grid for atomic number  53.
 FoFCou: FMM=F IPFlag=           0 FMFlag=      100000 FMFlg1=           0
         NFxFlg=           0 DoJE=T BraDBF=F KetDBF=T FulRan=T
         wScrn=  0.000000 ICntrl=       500 IOpCl=  0 I1Cent=   200000004 NGrid=           0
         NMat0=    1 NMatS0=      1 NMatT0=    0 NMatD0=    1 NMtDS0=    0 NMtDT0=    0
 Petite list used in FoFCou.
 Initial guess <Sx>= 0.0000 <Sy>= 0.0000 <Sz>= 0.5000 <S**2>= 0.7500 S= 0.5000
 Requested convergence on RMS density matrix=1.00D-08 within 128 cycles.
 Requested convergence on MAX density matrix=1.00D-06.
 Requested convergence on             energy=1.00D-06.
 No special actions if energy rises.
 Integral accuracy reduced to 1.0D-05 until final iterations.
 Defaulting to unpruned grid for atomic number  53.
 Defaulting to unpruned grid for atomic number  53.
 Defaulting to unpruned grid for atomic number  53.
 Defaulting to unpruned grid for atomic number  53.
 Defaulting to unpruned grid for atomic number  53.
 Defaulting to unpruned grid for atomic number  53.
 Defaulting to unpruned grid for atomic number  53.
 Defaulting to unpruned grid for atomic number  53.
 Defaulting to unpruned grid for atomic number  53.
 Defaulting to unpruned grid for atomic number  53.
 Defaulting to unpruned grid for atomic number  53.
 Defaulting to unpruned grid for atomic number  53.
 Defaulting to unpruned grid for atomic number  53.
 Defaulting to unpruned grid for atomic number  53.
 Defaulting to unpruned grid for atomic number  53.
 Defaulting to unpruned grid for atomic number  53.
 Defaulting to unpruned grid for atomic number  53.
 Defaulting to unpruned grid for atomic number  53.
 Defaulting to unpruned grid for atomic number  53.
 Defaulting to unpruned grid for atomic number  53.
 Defaulting to unpruned grid for atomic number  53.
 Defaulting to unpruned grid for atomic number  53.
 Defaulting to unpruned grid for atomic number  53.
 Defaulting to unpruned grid for atomic number  53.
 Initial convergence to 1.0D-05 achieved.  Increase integral accuracy.
 SCF Done:  E(UwB97XD) =  -9833.34654636     A.U. after   31 cycles
            NFock= 31  Conv=0.57D-08     -V/T= 1.9995
 <Sx>= 0.0000 <Sy>= 0.0000 <Sz>= 0.5000 <S**2>= 0.7666 S= 0.5083
 <L.S>= 0.000000000000E+00
 Annihilation of the first spin contaminant:
 S**2 before annihilation     0.7666,   after     0.7502

 **********************************************************************

            Population analysis using the SCF Density.

 **********************************************************************

 Orbital symmetries:
 Alpha Orbitals:
       Occupied  (A) (A) (A) (A) (A) (A) (A) (A) (A) (A) (A) (A)
                 (A) (A) (A) (A) (A) (A) (A) (A) (A) (A) (A) (A)
                 (A) (A) (A) (A) (A) (A) (A) (A) (A) (A) (A) (A)
                 (A) (A) (A) (A) (A) (A) (A) (A) (A) (A) (A) (A)
                 (A) (A) (A) (A) (A) (A) (A) (A) (A) (A) (A) (A)
                 (A) (A) (A) (A) (A) (A) (A) (A) (A) (A) (A) (A)
                 (A) (A) (A)
       Virtual   (A) (A) (A) (A) (A) (A) (A) (A) (A) (A) (A) (A)
                 (A) (A) (A) (A) (A) (A) (A) (A) (A) (A) (A) (A)
                 (A) (A) (A) (A) (A) (A) (A) (A) (A) (A) (A) (A)
                 (A) (A) (A) (A) (A) (A) (A) (A) (A) (A) (A) (A)
                 (A) (A) (A) (A) (A) (A) (A) (A) (A) (A) (A) (A)
                 (A) (A) (A) (A) (A) (A) (A) (A) (A) (A) (A) (A)
                 (A) (A) (A) (A) (A) (A) (A) (A) (A) (A) (A) (A)
                 (A) (A)
 Beta  Orbitals:
       Occupied  (A) (A) (A) (A) (A) (A) (A) (A) (A) (A) (A) (A)
                 (A) (A) (A) (A) (A) (A) (A) (A) (A) (A) (A) (A)
                 (A) (A) (A) (A) (A) (A) (A) (A) (A) (A) (A) (A)
                 (A) (A) (A) (A) (A) (A) (A) (A) (A) (A) (A) (A)
                 (A) (A) (A) (A) (A) (A) (A) (A) (A) (A) (A) (A)
                 (A) (A) (A) (A) (A) (A) (A) (A) (A) (A) (A) (A)
                 (A) (A)
       Virtual   (A) (A) (A) (A) (A) (A) (A) (A) (A) (A) (A) (A)
                 (A) (A) (A) (A) (A) (A) (A) (A) (A) (A) (A) (A)
                 (A) (A) (A) (A) (A) (A) (A) (A) (A) (A) (A) (A)
                 (A) (A) (A) (A) (A) (A) (A) (A) (A) (A) (A) (A)
                 (A) (A) (A) (A) (A) (A) (A) (A) (A) (A) (A) (A)
                 (A) (A) (A) (A) (A) (A) (A) (A) (A) (A) (A) (A)
                 (A) (A) (A) (A) (A) (A) (A) (A) (A) (A) (A) (A)
                 (A) (A) (A)
 The electronic state is 2-A.
 Alpha  occ. eigenvalues -- **********-480.31791-176.07164-164.81269-164.81021
 Alpha  occ. eigenvalues -- -164.80985 -62.75119 -56.34028 -56.33639 -56.33555
 Alpha  occ. eigenvalues --  -36.09667 -31.25652 -31.25134 -31.25007 -23.19680
 Alpha  occ. eigenvalues --  -23.19440 -23.19391 -23.18953 -23.18952 -19.43249
 Alpha  occ. eigenvalues --  -10.52559 -10.49380 -10.48132 -10.46796 -10.45423
 Alpha  occ. eigenvalues --  -10.43860 -10.43627 -10.42043  -9.05952  -6.84444
 Alpha  occ. eigenvalues --   -6.83144  -6.82839  -6.65377  -4.95650  -4.94225
 Alpha  occ. eigenvalues --   -4.93926  -2.94756  -2.94333  -2.94138  -2.93019
 Alpha  occ. eigenvalues --   -2.93015  -2.32167  -2.31724  -2.31507  -2.30231
 Alpha  occ. eigenvalues --   -2.30223  -1.41800  -1.19667  -1.10610  -1.10128
 Alpha  occ. eigenvalues --   -1.03896  -1.01880  -0.94637  -0.92180  -0.88885
 Alpha  occ. eigenvalues --   -0.86456  -0.80187  -0.78782  -0.78187  -0.74291
 Alpha  occ. eigenvalues --   -0.70269  -0.68894  -0.67987  -0.67830  -0.67376
 Alpha  occ. eigenvalues --   -0.63911  -0.62042  -0.61717  -0.59416  -0.56645
 Alpha  occ. eigenvalues --   -0.53334  -0.52364  -0.48920  -0.48834  -0.47421
 Alpha virt. eigenvalues --   -0.13181  -0.12634  -0.12098  -0.07230   0.01793
 Alpha virt. eigenvalues --    0.02915   0.04843   0.05974   0.07244   0.08777
 Alpha virt. eigenvalues --    0.10017   0.11729   0.13777   0.15807   0.18078
 Alpha virt. eigenvalues --    0.20531   0.22985   0.23672   0.26429   0.28120
 Alpha virt. eigenvalues --    0.33124   0.34775   0.35429   0.36088   0.38345
 Alpha virt. eigenvalues --    0.41943   0.42751   0.44656   0.47609   0.47891
 Alpha virt. eigenvalues --    0.47969   0.48042   0.48794   0.49329   0.50415
 Alpha virt. eigenvalues --    0.52329   0.53090   0.53651   0.55328   0.55921
 Alpha virt. eigenvalues --    0.58629   0.62914   0.66200   0.66436   0.67674
 Alpha virt. eigenvalues --    0.70684   0.71731   0.72943   0.73164   0.75870
 Alpha virt. eigenvalues --    0.76469   0.78424   0.78781   0.82694   0.83548
 Alpha virt. eigenvalues --    0.84786   0.85236   0.86307   0.87182   0.87435
 Alpha virt. eigenvalues --    0.90532   0.91214   0.95145   0.96032   0.97298
 Alpha virt. eigenvalues --    0.99165   1.01922   1.06627   1.08961   1.13133
 Alpha virt. eigenvalues --    1.23468   1.28376   1.31444   1.36765   1.43100
 Alpha virt. eigenvalues --    1.46229   1.51820   1.62611   1.68433   1.70265
 Alpha virt. eigenvalues --    1.77765   1.82620   1.83004   2.04603   2.29324
 Alpha virt. eigenvalues --    2.50769
  Beta  occ. eigenvalues -- **********-480.31758-176.07154-164.81263-164.80984
  Beta  occ. eigenvalues -- -164.80978 -62.75096 -56.34018 -56.33555 -56.33539
  Beta  occ. eigenvalues --  -36.09651 -31.25646 -31.25081 -31.24999 -23.19671
  Beta  occ. eigenvalues --  -23.19419 -23.19388 -23.18932 -23.18929 -19.42606
  Beta  occ. eigenvalues --  -10.52336 -10.49063 -10.47971 -10.46806 -10.45308
  Beta  occ. eigenvalues --  -10.43902 -10.43715 -10.42047  -9.05908  -6.84434
  Beta  occ. eigenvalues --   -6.83016  -6.82820  -6.65342  -4.95644  -4.94135
  Beta  occ. eigenvalues --   -4.93916  -2.94734  -2.94279  -2.94133  -2.92963
  Beta  occ. eigenvalues --   -2.92962  -2.32149  -2.31679  -2.31504  -2.30188
  Beta  occ. eigenvalues --   -2.30182  -1.40388  -1.19011  -1.10288  -1.09281
  Beta  occ. eigenvalues --   -1.03765  -1.01317  -0.94357  -0.91722  -0.88424
  Beta  occ. eigenvalues --   -0.85932  -0.79879  -0.78014  -0.77048  -0.73966
  Beta  occ. eigenvalues --   -0.69960  -0.67707  -0.67425  -0.67121  -0.66135
  Beta  occ. eigenvalues --   -0.63583  -0.61784  -0.59649  -0.59128  -0.55006
  Beta  occ. eigenvalues --   -0.52177  -0.50907  -0.48742  -0.46690
  Beta virt. eigenvalues --   -0.29222  -0.11828  -0.11763  -0.09990  -0.06731
  Beta virt. eigenvalues --    0.02008   0.03639   0.05061   0.06123   0.07917
  Beta virt. eigenvalues --    0.08904   0.10049   0.11894   0.14109   0.15893
  Beta virt. eigenvalues --    0.18323   0.20787   0.23281   0.23912   0.26713
  Beta virt. eigenvalues --    0.28268   0.33219   0.34986   0.35522   0.36233
  Beta virt. eigenvalues --    0.38477   0.42076   0.42924   0.44963   0.48142
  Beta virt. eigenvalues --    0.48408   0.48647   0.48695   0.49334   0.49947
  Beta virt. eigenvalues --    0.50846   0.52479   0.53343   0.53897   0.55626
  Beta virt. eigenvalues --    0.56413   0.58803   0.63173   0.66462   0.66912
  Beta virt. eigenvalues --    0.67878   0.70880   0.71950   0.73135   0.73618
  Beta virt. eigenvalues --    0.76058   0.76564   0.78643   0.79009   0.82751
  Beta virt. eigenvalues --    0.83649   0.84858   0.85837   0.86459   0.87393
  Beta virt. eigenvalues --    0.87734   0.90764   0.91378   0.95592   0.96176
  Beta virt. eigenvalues --    0.97452   0.99371   1.01998   1.07005   1.09140
  Beta virt. eigenvalues --    1.13301   1.23726   1.28537   1.31817   1.37353
  Beta virt. eigenvalues --    1.43260   1.48571   1.52094   1.62927   1.69875
  Beta virt. eigenvalues --    1.70531   1.78446   1.83533   1.84091   2.04940
  Beta virt. eigenvalues --    2.30326   2.51325
          Condensed to atoms (all electrons):
               1          2          3          4          5          6
     1  Br  34.695685   0.240822  -0.037496   0.001756  -0.000071   0.000385
     2  C    0.240822   5.066215   0.438298  -0.032782   0.001877  -0.027413
     3  C   -0.037496   0.438298   5.021137   0.456061  -0.038751  -0.036369
     4  C    0.001756  -0.032782   0.456061   5.271636   0.274893   0.365979
     5  I   -0.000071   0.001877  -0.038751   0.274893  52.405164  -0.040226
     6  C    0.000385  -0.027413  -0.036369   0.365979  -0.040226   4.736539
     7  C    0.002109  -0.030499  -0.030796  -0.033671   0.002987   0.432633
     8  C   -0.037562   0.432901  -0.042414  -0.020288  -0.000100  -0.029316
     9  C   -0.000006   0.000075   0.000356   0.001194   0.000049  -0.061799
    10  C    0.000000  -0.000012  -0.000265   0.007947  -0.000251  -0.063233
    11  O    0.000000   0.000044   0.001586  -0.044066   0.001039   0.298454
    12  H    0.000966  -0.011136   0.375956  -0.009162   0.000920   0.002094
    13  H    0.000982  -0.011859   0.001838  -0.000023   0.000006   0.001809
    14  H   -0.000000   0.000056   0.000004  -0.000027  -0.000000   0.002069
    15  H   -0.000000   0.000054   0.000005  -0.000045  -0.000000   0.001556
    16  H   -0.000000   0.000001   0.000005  -0.000081   0.000012   0.001514
    17  H   -0.000000   0.000002   0.000005  -0.000097   0.000020   0.000961
               7          8          9         10         11         12
     1  Br   0.002109  -0.037562  -0.000006   0.000000   0.000000   0.000966
     2  C   -0.030499   0.432901   0.000075  -0.000012   0.000044  -0.011136
     3  C   -0.030796  -0.042414   0.000356  -0.000265   0.001586   0.375956
     4  C   -0.033671  -0.020288   0.001194   0.007947  -0.044066  -0.009162
     5  I    0.002987  -0.000100   0.000049  -0.000251   0.001039   0.000920
     6  C    0.432633  -0.029316  -0.061799  -0.063233   0.298454   0.002094
     7  C    5.232609   0.444764   0.237666  -0.068030  -0.047374   0.000085
     8  C    0.444764   4.938047   0.010551   0.002321   0.001828   0.001768
     9  C    0.237666   0.010551   5.271575   0.305750  -0.032298   0.000003
    10  C   -0.068030   0.002321   0.305750   5.014443   0.127099   0.000001
    11  O   -0.047374   0.001828  -0.032298   0.127099   8.275133  -0.000009
    12  H    0.000085   0.001768   0.000003   0.000001  -0.000009   0.361233
    13  H   -0.006212   0.375203  -0.003093  -0.000016  -0.000016  -0.000033
    14  H   -0.018913  -0.003903   0.379305  -0.026082   0.001222  -0.000000
    15  H   -0.019876  -0.004234   0.379459  -0.026634   0.001089  -0.000000
    16  H    0.002988  -0.000008  -0.030698   0.381136  -0.015092  -0.000000
    17  H    0.002307  -0.000032  -0.031467   0.380186  -0.015662  -0.000000
              13         14         15         16         17
     1  Br   0.000982  -0.000000  -0.000000  -0.000000  -0.000000
     2  C   -0.011859   0.000056   0.000054   0.000001   0.000002
     3  C    0.001838   0.000004   0.000005   0.000005   0.000005
     4  C   -0.000023  -0.000027  -0.000045  -0.000081  -0.000097
     5  I    0.000006  -0.000000  -0.000000   0.000012   0.000020
     6  C    0.001809   0.002069   0.001556   0.001514   0.000961
     7  C   -0.006212  -0.018913  -0.019876   0.002988   0.002307
     8  C    0.375203  -0.003903  -0.004234  -0.000008  -0.000032
     9  C   -0.003093   0.379305   0.379459  -0.030698  -0.031467
    10  C   -0.000016  -0.026082  -0.026634   0.381136   0.380186
    11  O   -0.000016   0.001222   0.001089  -0.015092  -0.015662
    12  H   -0.000033  -0.000000  -0.000000  -0.000000  -0.000000
    13  H    0.368060   0.000457   0.000383  -0.000000  -0.000000
    14  H    0.000457   0.401590  -0.017432   0.001881  -0.003657
    15  H    0.000383  -0.017432   0.402166  -0.003704   0.002091
    16  H   -0.000000   0.001881  -0.003704   0.413321  -0.023105
    17  H   -0.000000  -0.003657   0.002091  -0.023105   0.416591
          Atomic-Atomic Spin Densities.
               1          2          3          4          5          6
     1  Br   0.141912  -0.037283  -0.000920   0.000225  -0.000010   0.000023
     2  C   -0.037283   0.267129   0.018756  -0.007532   0.000327  -0.004121
     3  C   -0.000920   0.018756  -0.093535  -0.014956   0.003868  -0.005241
     4  C    0.000225  -0.007532  -0.014956   0.134596  -0.027953   0.044321
     5  I   -0.000010   0.000327   0.003868  -0.027953   0.141075  -0.005437
     6  C    0.000023  -0.004121  -0.005241   0.044321  -0.005437   0.165029
     7  C    0.000240  -0.008525  -0.000325  -0.000983  -0.000157   0.040656
     8  C   -0.001961   0.026835  -0.000778  -0.001024   0.000026  -0.005028
     9  C   -0.000001   0.000119  -0.000016   0.000050   0.000002  -0.004902
    10  C    0.000000  -0.000006  -0.000003   0.000016  -0.000015   0.003566
    11  O   -0.000000   0.000025   0.000070  -0.003351   0.001670  -0.067472
    12  H   -0.000044  -0.000181   0.001071   0.000087  -0.000101   0.000016
    13  H   -0.000020  -0.000263  -0.000001  -0.000006  -0.000000   0.000030
    14  H   -0.000001   0.000017   0.000003  -0.000013   0.000001  -0.000318
    15  H   -0.000001   0.000024   0.000003  -0.000015   0.000001  -0.000446
    16  H    0.000000  -0.000001  -0.000000   0.000013  -0.000012   0.000652
    17  H    0.000000  -0.000001  -0.000001   0.000023  -0.000017   0.001013
               7          8          9         10         11         12
     1  Br   0.000240  -0.001961  -0.000001   0.000000  -0.000000  -0.000044
     2  C   -0.008525   0.026835   0.000119  -0.000006   0.000025  -0.000181
     3  C   -0.000325  -0.000778  -0.000016  -0.000003   0.000070   0.001071
     4  C   -0.000983  -0.001024   0.000050   0.000016  -0.003351   0.000087
     5  I   -0.000157   0.000026   0.000002  -0.000015   0.001670  -0.000101
     6  C    0.040656  -0.005028  -0.004902   0.003566  -0.067472   0.000016
     7  C    0.107763  -0.022631  -0.010105   0.001750  -0.005378  -0.000006
     8  C   -0.022631  -0.047053   0.000701  -0.000015   0.000117   0.000007
     9  C   -0.010105   0.000701  -0.006497   0.000574   0.002123  -0.000000
    10  C    0.001750  -0.000015   0.000574  -0.008227  -0.015390  -0.000000
    11  O   -0.005378   0.000117   0.002123  -0.015390   0.347974  -0.000000
    12  H   -0.000006   0.000007  -0.000000  -0.000000  -0.000000   0.002003
    13  H    0.000002   0.000712   0.000040   0.000001  -0.000000  -0.000000
    14  H   -0.002093   0.000285   0.004105  -0.000654   0.000137   0.000000
    15  H   -0.002775   0.000311   0.004582  -0.000716   0.000221   0.000000
    16  H    0.000245  -0.000009  -0.000362   0.004118  -0.002081   0.000000
    17  H    0.000390  -0.000018  -0.001181   0.005024  -0.002807   0.000000
              13         14         15         16         17
     1  Br  -0.000020  -0.000001  -0.000001   0.000000   0.000000
     2  C   -0.000263   0.000017   0.000024  -0.000001  -0.000001
     3  C   -0.000001   0.000003   0.000003  -0.000000  -0.000001
     4  C   -0.000006  -0.000013  -0.000015   0.000013   0.000023
     5  I   -0.000000   0.000001   0.000001  -0.000012  -0.000017
     6  C    0.000030  -0.000318  -0.000446   0.000652   0.001013
     7  C    0.000002  -0.002093  -0.002775   0.000245   0.000390
     8  C    0.000712   0.000285   0.000311  -0.000009  -0.000018
     9  C    0.000040   0.004105   0.004582  -0.000362  -0.001181
    10  C    0.000001  -0.000654  -0.000716   0.004118   0.005024
    11  O   -0.000000   0.000137   0.000221  -0.002081  -0.002807
    12  H   -0.000000   0.000000   0.000000   0.000000   0.000000
    13  H    0.000570  -0.000001  -0.000007   0.000000  -0.000000
    14  H   -0.000001   0.010551  -0.002050   0.000280  -0.000855
    15  H   -0.000007  -0.002050   0.012585  -0.000805   0.000323
    16  H    0.000000   0.000280  -0.000805   0.011899  -0.001994
    17  H   -0.000000  -0.000855   0.000323  -0.001994   0.015379
 Mulliken charges and spin densities:
               1          2
     1  Br   0.132430   0.102160
     2  C   -0.066642   0.255319
     3  C   -0.109160  -0.092006
     4  C   -0.239226   0.123499
     5  I    0.392433   0.113268
     6  C    0.414362   0.162342
     7  C   -0.102778   0.098068
     8  C   -0.069530  -0.049523
     9  C   -0.426623  -0.010767
    10  C   -0.034359  -0.009976
    11  O   -0.552977   0.255858
    12  H    0.277314   0.002850
    13  H    0.272514   0.001057
    14  H    0.283430   0.009396
    15  H    0.285124   0.011236
    16  H    0.271831   0.011943
    17  H    0.271858   0.015277
 Sum of Mulliken charges =   1.00000   1.00000
 Mulliken charges and spin densities with hydrogens summed into heavy atoms:
               1          2
     1  Br   0.132430   0.102160
     2  C   -0.066642   0.255319
     3  C    0.168154  -0.089156
     4  C   -0.239226   0.123499
     5  I    0.392433   0.113268
     6  C    0.414362   0.162342
     7  C   -0.102778   0.098068
     8  C    0.202985  -0.048466
     9  C    0.141931   0.009865
    10  C    0.509329   0.017244
    11  O   -0.552977   0.255858
 Electronic spatial extent (au):  <R**2>=           4536.8859
 Charge=              1.0000 electrons
 Dipole moment (field-independent basis, Debye):
    X=              0.6458    Y=              6.2710    Z=              0.0321  Tot=              6.3042
 Quadrupole moment (field-independent basis, Debye-Ang):
   XX=            -71.1800   YY=            -58.2638   ZZ=            -95.1936
   XY=             -1.7785   XZ=             -0.0884   YZ=              0.0990
 Traceless Quadrupole moment (field-independent basis, Debye-Ang):
   XX=              3.6992   YY=             16.6153   ZZ=            -20.3145
   XY=             -1.7785   XZ=             -0.0884   YZ=              0.0990
 Octapole moment (field-independent basis, Debye-Ang**2):
  XXX=             22.0399  YYY=             33.6864  ZZZ=              0.2188  XYY=            -19.9253
  XXY=            -38.8894  XXZ=              0.1686  XZZ=             -4.6083  YZZ=            -17.7005
  YYZ=              0.4453  XYZ=             -0.3043
 Hexadecapole moment (field-independent basis, Debye-Ang**3):
 XXXX=          -2389.9022 YYYY=          -1301.8828 ZZZZ=           -113.1919 XXXY=              9.0684
 XXXZ=              1.2128 YYYX=            -54.5857 YYYZ=              1.2291 ZZZX=              0.0152
 ZZZY=              0.2975 XXYY=           -622.7003 XXZZ=           -479.1918 YYZZ=           -284.6728
 XXYZ=             -0.1082 YYXZ=             -0.0839 ZZXY=             -3.4451
 N-N= 1.338461500182D+03 E-N=-2.603712122835D+04  KE= 9.838027513201D+03
 There are a total of      411906 grid points.
 ElSum from          density=      148.9999917456
 ElSum from atomic densities=      149.9999494264

 Hirshfeld populations at iteration   1 (CX, CA, CB, DipXYZ):
               1          2          3          4          5          6
     1  Br   0.000000  17.497069  17.378756   0.154027  -0.087078   0.000652
     2  C    0.000000   3.047412   2.884548   0.031337  -0.007784  -0.000083
     3  C    0.000000   3.000091   3.018217   0.020350  -0.026764  -0.000020
     4  C    0.000000   3.048212   2.950120  -0.008785   0.027801  -0.000180
     5  I    0.000000  26.457675  26.339259  -0.142232  -0.105188  -0.000197
     6  C    0.000000   3.010315   2.859867  -0.056155   0.036078  -0.000352
     7  C    0.000000   3.025376   2.948303  -0.011970   0.042340  -0.001000
     8  C    0.000000   3.004319   2.999217   0.046498   0.023004  -0.000502
     9  C    0.000000   3.013814   3.005111  -0.012405   0.028038   0.000909
    10  C    0.000000   2.968401   2.956900  -0.014781  -0.013855  -0.003035
    11  O    0.000000   4.131809   3.898181   0.072960   0.075918   0.001298
    12  H    0.000000   0.462946   0.464820   0.012436  -0.175117   0.000510
    13  H    0.000000   0.460490   0.461196   0.144560   0.107812  -0.000631
    14  H    0.000000   0.468781   0.461529   0.066039   0.095309   0.127112
    15  H    0.000000   0.469752   0.461145   0.055271   0.087437  -0.136969
    16  H    0.000000   0.465949   0.456785  -0.073377   0.091063  -0.124543
    17  H    0.000000   0.467584   0.456043  -0.060411   0.079842   0.137628
       Tot   0.000000  74.999995  73.999997   0.223361   0.278856   0.000598

 Dip from Atomic Chgs              0.030742   2.188372   0.012042
         Total Dipole              0.254103   2.467228   0.012639

 Hirshfeld charges, spin densities, dipoles, and CM5 charges using IRadAn=      5:
              Q-H        S-H        Dx         Dy         Dz        Q-CM5   
     1  Br   0.124175   0.118313   0.154027  -0.087078   0.000652   0.138838
     2  C    0.068041   0.162864   0.031337  -0.007784  -0.000083   0.047108
     3  C   -0.018308  -0.018127   0.020350  -0.026764  -0.000020  -0.071023
     4  C    0.001668   0.098093  -0.008785   0.027801  -0.000180  -0.023136
     5  I    0.203066   0.118415  -0.142232  -0.105188  -0.000197   0.232372
     6  C    0.129818   0.150448  -0.056155   0.036078  -0.000352   0.151803
     7  C    0.026321   0.077072  -0.011970   0.042340  -0.001000   0.017602
     8  C   -0.003537   0.005102   0.046498   0.023004  -0.000502  -0.055012
     9  C   -0.018925   0.008703  -0.012405   0.028038   0.000909  -0.118919
    10  C    0.074699   0.011501  -0.014781  -0.013855  -0.003035  -0.004951
    11  O   -0.029990   0.233629   0.072960   0.075918   0.001298  -0.110567
    12  H    0.072234  -0.001875   0.012436  -0.175117   0.000510   0.130614
    13  H    0.078314  -0.000706   0.144560   0.107812  -0.000631   0.136327
    14  H    0.069689   0.007252   0.066039   0.095309   0.127112   0.125396
    15  H    0.069103   0.008607   0.055271   0.087437  -0.136969   0.124880
    16  H    0.077266   0.009165  -0.073377   0.091063  -0.124543   0.139807
    17  H    0.076373   0.011541  -0.060411   0.079842   0.137628   0.138871
       Tot   1.000008   0.999998   0.223361   0.278856   0.000598   1.000008
 Hirshfeld charges and spin densities with hydrogens summed into heavy atoms:
              Q-H        S-H       Q-CM5   
     1  Br   0.124175   0.118313   0.138838
     2  C    0.068041   0.162864   0.047108
     3  C    0.053926  -0.020001   0.059591
     4  C    0.001668   0.098093  -0.023136
     5  I    0.203066   0.118415   0.232372
     6  C    0.129818   0.150448   0.151803
     7  C    0.026321   0.077072   0.017602
     8  C    0.074778   0.004397   0.081315
     9  C    0.119867   0.024562   0.131356
    10  C    0.228338   0.032207   0.273726
    11  O   -0.029990   0.233629  -0.110567
 
 EQQ= 0.843397603798E-01 EQD=-0.305365563358E-01 EDD= 0.304051421431E-02
 EQQ+QD+DD= 0.568437182583E-01
 
                          Isotropic Fermi Contact Couplings
        Atom                 a.u.       MegaHertz       Gauss      10(-4) cm-1
     1  Br(79)             0.01338      15.03109       5.36347       5.01383
     2  C(13)              0.02675      30.07609      10.73190      10.03230
     3  C(13)             -0.01242     -13.96747      -4.98394      -4.65904
     4  C(13)              0.01062      11.94051       4.26067       3.98292
     5  I(127)             0.00127       1.14473       0.40847       0.38184
     6  C(13)              0.00834       9.37809       3.34634       3.12819
     7  C(13)              0.00633       7.11252       2.53792       2.37248
     8  C(13)             -0.00835      -9.38269      -3.34798      -3.12973
     9  C(13)             -0.00347      -3.89868      -1.39115      -1.30046
    10  C(13)             -0.00494      -5.55478      -1.98208      -1.85287
    11  O(17)              0.05583     -33.84406     -12.07640     -11.28916
    12  H(1)               0.00067       2.99869       1.07001       1.00025
    13  H(1)               0.00020       0.91263       0.32565       0.30442
    14  H(1)               0.00454      20.30704       7.24606       6.77370
    15  H(1)               0.00532      23.79695       8.49134       7.93781
    16  H(1)               0.00584      26.10650       9.31545       8.70819
    17  H(1)               0.00721      32.22781      11.49968      10.75004
 --------------------------------------------------------
       Center         ----  Spin Dipole Couplings  ----
                      3XX-RR        3YY-RR        3ZZ-RR
 --------------------------------------------------------
     1   Atom       -0.748253     -0.654172      1.402424
     2   Atom       -0.124036     -0.130818      0.254854
     3   Atom        0.032622      0.027071     -0.059693
     4   Atom       -0.072125     -0.060908      0.133032
     5   Atom       -0.806649     -0.752845      1.559494
     6   Atom       -0.103377     -0.103452      0.206829
     7   Atom       -0.047610     -0.051456      0.099066
     8   Atom        0.010101      0.012957     -0.023058
     9   Atom       -0.005095     -0.000108      0.005203
    10   Atom       -0.011401      0.005004      0.006397
    11   Atom       -0.522470     -0.503611      1.026081
    12   Atom        0.004150     -0.000166     -0.003983
    13   Atom        0.000205      0.003691     -0.003896
    14   Atom       -0.000713      0.003089     -0.002376
    15   Atom       -0.001186      0.003064     -0.001878
    16   Atom       -0.003837      0.007418     -0.003582
    17   Atom       -0.004168      0.006556     -0.002388
 --------------------------------------------------------
                        XY            XZ            YZ
 --------------------------------------------------------
     1   Atom        0.070370     -0.002254      0.008246
     2   Atom       -0.005974     -0.000732      0.001044
     3   Atom        0.000777     -0.000164      0.000019
     4   Atom        0.004106     -0.000430      0.001447
     5   Atom       -0.066878      0.008104     -0.008327
     6   Atom       -0.005442      0.001315     -0.000162
     7   Atom        0.005183      0.001063      0.001508
     8   Atom       -0.000992     -0.000026      0.000102
     9   Atom        0.004521     -0.001530      0.000153
    10   Atom        0.002679     -0.000230      0.000429
    11   Atom        0.000110     -0.009611     -0.025512
    12   Atom        0.001792     -0.000021     -0.000016
    13   Atom        0.001720     -0.000046     -0.000054
    14   Atom        0.003088      0.001503      0.002563
    15   Atom        0.002810     -0.001479     -0.003061
    16   Atom       -0.003010      0.001411     -0.005207
    17   Atom       -0.002414     -0.001433      0.006175
 --------------------------------------------------------


 ---------------------------------------------------------------------------------
              Anisotropic Spin Dipole Couplings in Principal Axis System
 ---------------------------------------------------------------------------------

       Atom             a.u.   MegaHertz   Gauss  10(-4) cm-1        Axes

              Baa    -0.7859  -105.415   -37.615   -35.163  0.8819 -0.4714  0.0027
     1 Br(79) Bbb    -0.6166   -82.707   -29.512   -27.588  0.4714  0.8819 -0.0031
              Bcc     1.4025   188.122    67.127    62.751 -0.0009  0.0040  1.0000
 
              Baa    -0.1343   -18.021    -6.430    -6.011  0.5031  0.8642 -0.0014
     2 C(13)  Bbb    -0.1206   -16.178    -5.773    -5.396  0.8642 -0.5031  0.0031
              Bcc     0.2549    34.200    12.203    11.408 -0.0020  0.0027  1.0000
 
              Baa    -0.0597    -8.010    -2.858    -2.672  0.0018 -0.0002  1.0000
     3 C(13)  Bbb     0.0270     3.618     1.291     1.207 -0.1361  0.9907  0.0005
              Bcc     0.0327     4.392     1.567     1.465  0.9907  0.1361 -0.0017
 
              Baa    -0.0735    -9.859    -3.518    -3.289  0.9504 -0.3111  0.0042
     4 C(13)  Bbb    -0.0596    -7.994    -2.853    -2.667  0.3111  0.9504 -0.0064
              Bcc     0.1330    17.853     6.370     5.955 -0.0019  0.0074  1.0000
 
              Baa    -0.8518   -91.565   -32.673   -30.543  0.8286  0.5598 -0.0009
     5 I(127) Bbb    -0.7077   -76.074   -27.145   -25.375 -0.5598  0.8286  0.0050
              Bcc     1.5596   167.638    59.818    55.918  0.0035 -0.0037  1.0000
 
              Baa    -0.1089   -14.608    -5.212    -4.873  0.7048  0.7094 -0.0026
     6 C(13)  Bbb    -0.0980   -13.147    -4.691    -4.386  0.7094 -0.7048 -0.0034
              Bcc     0.2068    27.755     9.904     9.258  0.0043 -0.0006  1.0000
 
              Baa    -0.0551    -7.389    -2.637    -2.465 -0.5705  0.8213 -0.0041
     7 C(13)  Bbb    -0.0440    -5.908    -2.108    -1.971  0.8212  0.5704 -0.0121
              Bcc     0.0991    13.297     4.745     4.435  0.0076  0.0103  0.9999
 
              Baa    -0.0231    -3.094    -1.104    -1.032  0.0007 -0.0028  1.0000
     8 C(13)  Bbb     0.0098     1.314     0.469     0.438  0.9543  0.2989  0.0002
              Bcc     0.0133     1.780     0.635     0.594 -0.2989  0.9543  0.0029
 
              Baa    -0.0079    -1.062    -0.379    -0.354  0.8595 -0.4999  0.1061
     9 C(13)  Bbb     0.0024     0.325     0.116     0.108  0.4716  0.8558  0.2125
              Bcc     0.0055     0.737     0.263     0.246 -0.1970 -0.1326  0.9714
 
              Baa    -0.0118    -1.588    -0.567    -0.530  0.9874 -0.1575  0.0162
    10 C(13)  Bbb     0.0053     0.710     0.254     0.237  0.1539  0.9312 -0.3304
              Bcc     0.0065     0.877     0.313     0.293  0.0370  0.3287  0.9437
 
              Baa    -0.5225    37.810    13.492    12.612  1.0000  0.0026  0.0062
    11 O(17)  Bbb    -0.5040    36.472    13.014    12.166 -0.0027  0.9999  0.0167
              Bcc     1.0266   -74.282   -26.506   -24.778 -0.0062 -0.0167  0.9998
 
              Baa    -0.0040    -2.125    -0.758    -0.709  0.0019  0.0033  1.0000
    12 H(1)   Bbb    -0.0008    -0.434    -0.155    -0.145 -0.3396  0.9406 -0.0024
              Bcc     0.0048     2.559     0.913     0.854  0.9406  0.3396 -0.0029
 
              Baa    -0.0039    -2.079    -0.742    -0.694  0.0091  0.0051  0.9999
    13 H(1)   Bbb    -0.0005    -0.267    -0.095    -0.089  0.9251 -0.3797 -0.0065
              Bcc     0.0044     2.346     0.837     0.783  0.3797  0.9251 -0.0082
 
              Baa    -0.0034    -1.840    -0.656    -0.614 -0.2149 -0.2669  0.9395
    14 H(1)   Bbb    -0.0024    -1.299    -0.464    -0.433  0.8609 -0.5059  0.0533
              Bcc     0.0059     3.139     1.120     1.047  0.4611  0.8203  0.3385
 
              Baa    -0.0034    -1.792    -0.639    -0.598  0.1359  0.3772  0.9161
    15 H(1)   Bbb    -0.0026    -1.378    -0.492    -0.460  0.9034 -0.4269  0.0417
              Bcc     0.0059     3.169     1.131     1.057  0.4068  0.8219 -0.3988
 
              Baa    -0.0057    -3.036    -1.083    -1.013 -0.1720  0.3293  0.9284
    16 H(1)   Bbb    -0.0046    -2.445    -0.872    -0.816  0.9581  0.2750  0.0800
              Bcc     0.0103     5.481     1.956     1.828 -0.2290  0.9033 -0.3628
 
              Baa    -0.0056    -2.975    -1.062    -0.992  0.1952 -0.4137  0.8892
    17 H(1)   Bbb    -0.0047    -2.495    -0.890    -0.832  0.9620  0.2571 -0.0916
              Bcc     0.0103     5.470     1.952     1.825 -0.1907  0.8733  0.4482
 

 ---------------------------------------------------------------------------------

 Running external command "gaunbo6 R"
         input file       "/home/rpaton/arbr500/xtb/fukui/Gau-2163509.EIn"
         output file      "/home/rpaton/arbr500/xtb/fukui/Gau-2163509.EOu"
         message file     "/home/rpaton/arbr500/xtb/fukui/Gau-2163509.EMs"
         fchk file        "/home/rpaton/arbr500/xtb/fukui/Gau-2163509.EFC"
         mat. el file     "/home/rpaton/arbr500/xtb/fukui/Gau-2163509.EUF"

 Writing WrtUnf unformatted file "/home/rpaton/arbr500/xtb/fukui/Gau-2163509.EUF"
 Gaussian matrix elements                                         Version   2 NLab=11 Len12L=8 Len4L=8
 Write SHELL TO ATOM MAP                   from file      0 offset           0 length                  83 to matrix element file.
 Write SHELL TYPES                         from file      0 offset           0 length                  83 to matrix element file.
 Write NUMBER OF PRIMITIVES PER SHELL      from file      0 offset           0 length                  83 to matrix element file.
 Write PRIMITIVE EXPONENTS                 from file      0 offset           0 length                 159 to matrix element file.
 Write CONTRACTION COEFFICIENTS            from file      0 offset           0 length                 159 to matrix element file.
 Write P(S=P) CONTRACTION COEFFICIENTS     from file      0 offset           0 length                 159 to matrix element file.
 Write COORDINATES OF EACH SHELL           from file      0 offset           0 length                 249 to matrix element file.
 Write BONDS PER ATOM                      from file      0 offset           0 length                  17 to matrix element file.
 Write BONDED ATOMS                        from file      0 offset           0 length                  36 to matrix element file.
 Write BOND TYPES                          from file      0 offset           0 length                  36 to matrix element file.
 Write ONIOM CHARGE/MULT                   from file      0 offset           0 length                  32 to matrix element file.
 Write ONIOM ATOM LAYERS                   from file      0 offset           0 length                  17 to matrix element file.
 Write ONIOM ATOM MODIFIERS                from file      0 offset           0 length                  17 to matrix element file.
 Write ONIOM ATOM TYPES                    from file      0 offset           0 length                  17 to matrix element file.
 Write ONIOM LINK ATOMS                    from file      0 offset           0 length                  17 to matrix element file.
 Write ONIOM LINK CHARGES                  from file      0 offset           0 length                  17 to matrix element file.
 Write ONIOM LINK DISTANCES                from file      0 offset           0 length                  68 to matrix element file.
 Write SYMINF INTS                         from file      0 offset           0 length                  26 to matrix element file.
 Write ROTTR TO SO                         from file      0 offset           0 length                  12 to matrix element file.
 Write GAUSSIAN SCALARS                    from file    501 offset           0 to matrix element file.
 Write OPTIMIZATION FLAGS                  from file      0 offset           0 length                  17 to matrix element file.
 Write INTEGER ISO                         from file      0 offset           0 length                  17 to matrix element file.
 Write INTEGER SPIN                        from file      0 offset           0 length                  17 to matrix element file.
 Write REAL ZEFFECTIVE                     from file      0 offset           0 length                  17 to matrix element file.
 Write REAL QUADRUPOLEMOMENT               from file      0 offset           0 length                  17 to matrix element file.
 Write REAL GFACTOR                        from file      0 offset           0 length                  17 to matrix element file.
 Write REAL ZNUCLEAR                       from file      0 offset           0 length                  17 to matrix element file.
 Write MULLIKEN CHARGES                    from file      0 offset           0 length                  17 to matrix element file.
 Write TYPE 6 CHARGES                      from file      0 offset           0 length                  17 to matrix element file.
 Write TYPE 7 CHARGES                      from file      0 offset           0 length                  17 to matrix element file.
 Write NUCLEAR GRADIENT                    from file  10584 offset           0 length                  51 to matrix element file.
 Array NUCLEAR FORCE CONSTANTS              on  file  10585 does not exist.
 Write ELECTRIC DIPOLE MOMENT              from file      0 offset           0 length                   3 to matrix element file.
 Write NON-ADIABATIC COUPLING              from file  10810 offset           0 length                  51 to matrix element file.
 Write FINITE EM FIELD                     from file  10521 offset           0 length                  35 to matrix element file.
 Write OVERLAP                             from file  10514 offset           0 length               13041 to matrix element file.
 Write CORE HAMILTONIAN ALPHA              from file  10515 offset           0 length               13041 to matrix element file.
 Write CORE HAMILTONIAN BETA               from file  10515 offset       13041 length               13041 to matrix element file.
 Write KINETIC ENERGY                      from file  10516 offset           0 length               13041 to matrix element file.
 Write ORTHOGONAL BASIS                    from file  10685 offset           0 length               25921 to matrix element file.
 Write DIPOLE INTEGRALS                    from file  10518 offset           0 length               39123 to matrix element file.
 Array DIP VEL INTEGRALS                    on  file  10572 does not exist.
 Array R X DEL INTEGRALS                    on  file  10572 does not exist.
 Write ALPHA ORBITAL ENERGIES              from file      0 offset           0 length                 161 to matrix element file.
 Write BETA ORBITAL ENERGIES               from file      0 offset           0 length                 161 to matrix element file.
 Write ALPHA MO COEFFICIENTS               from file  10524 offset           0 length               25921 to matrix element file.
 Write BETA MO COEFFICIENTS                from file  10526 offset           0 length               25921 to matrix element file.
 Write ALPHA DENSITY MATRIX                from file      0 offset           0 length               13041 to matrix element file.
 Write BETA DENSITY MATRIX                 from file      0 offset           0 length               13041 to matrix element file.
 Write ALPHA FOCK MATRIX                   from file  10536 offset           0 length               13041 to matrix element file.
 Write BETA FOCK MATRIX                    from file  10538 offset           0 length               13041 to matrix element file.
 Write ENERGY-WEIGHTED DENSITY             from file  10571 offset           0 length               13041 to matrix element file.
 Write ALPHA SCF DENSITY MATRIX            from file      0 offset           0 length               13041 to matrix element file.
 Write BETA SCF DENSITY MATRIX             from file      0 offset           0 length               13041 to matrix element file.
 No 2e integrals to process.
 Perform NBO analysis...

 *********************************** NBO 7.0 ***********************************
             N A T U R A L   A T O M I C   O R B I T A L   A N D
          N A T U R A L   B O N D   O R B I T A L   A N A L Y S I S
 **************************** Robert Paton (I101709) ***************************
  (c) Copyright 1996-2019 Board of Regents of the University of Wisconsin System
      on behalf of the Theoretical Chemistry Institute.  All rights reserved.

          Cite this program [NBO 7.0.5 (4-Jun-2019)] as:

          NBO 7.0.  E. D. Glendening, J. K. Badenhoop, A. E. Reed,
          J. E. Carpenter, J. A. Bohmann, C. M. Morales, P. Karafiloglou,
          C. R. Landis, and F. Weinhold, Theoretical Chemistry Institute,
          University of Wisconsin, Madison, WI (2018)

 Filename set to /home/rpaton/arbr500/xtb/fukui/Gau-2163509

 Job title:  energy: -32.159136574353 gnorm: 0.000850729375 xtb: 6.7.0 (08769fc)


 NATURAL POPULATIONS:  Natural atomic orbital occupancies

  NAO Atom No lang   Type(AO)    Occupancy     Spin
 -----------------------------------------------------
   1   Br  1  s      Cor( 3s)     2.00000     0.00000
   2   Br  1  s      Cor( 1s)     2.00000     0.00000
   3   Br  1  s      Cor( 2s)     1.99999     0.00000
   4   Br  1  s      Val( 4s)     1.88050     0.00109
   5   Br  1  s      Ryd( 5s)     0.00298     0.00009
   6   Br  1  px     Cor( 3p)     2.00000     0.00000
   7   Br  1  px     Cor( 2p)     1.99999     0.00000
   8   Br  1  px     Val( 4p)     1.25419    -0.00709
   9   Br  1  px     Ryd( 5p)     0.00313     0.00006
  10   Br  1  py     Cor( 3p)     2.00000     0.00000
  11   Br  1  py     Cor( 2p)     1.99999     0.00000
  12   Br  1  py     Val( 4p)     1.77394    -0.00181
  13   Br  1  py     Ryd( 5p)     0.00191     0.00001
  14   Br  1  pz     Cor( 3p)     2.00000     0.00000
  15   Br  1  pz     Cor( 2p)     2.00000     0.00000
  16   Br  1  pz     Val( 4p)     1.82496     0.11871
  17   Br  1  pz     Ryd( 5p)     0.00069     0.00010
  18   Br  1  dxy    Cor( 3d)     1.99951     0.00000
  19   Br  1  dxy    Ryd( 4d)     0.00384    -0.00007
  20   Br  1  dxz    Cor( 3d)     1.99989     0.00001
  21   Br  1  dxz    Ryd( 4d)     0.00195    -0.00031
  22   Br  1  dyz    Cor( 3d)     1.99997     0.00000
  23   Br  1  dyz    Ryd( 4d)     0.00058    -0.00010
  24   Br  1  dx2y2  Cor( 3d)     1.99961     0.00000
  25   Br  1  dx2y2  Ryd( 4d)     0.00224    -0.00005
  26   Br  1  dz2    Cor( 3d)     1.99980     0.00000
  27   Br  1  dz2    Ryd( 4d)     0.00164     0.00003

  28    C  2  s      Cor( 1s)     1.99989     0.00000
  29    C  2  s      Val( 2s)     0.95176     0.00923
  30    C  2  s      Ryd( 3s)     0.00049    -0.00002
  31    C  2  px     Val( 2p)     1.05194     0.00611
  32    C  2  px     Ryd( 3p)     0.00750    -0.00010
  33    C  2  py     Val( 2p)     1.08646     0.00490
  34    C  2  py     Ryd( 3p)     0.00826    -0.00007
  35    C  2  pz     Val( 2p)     0.95035     0.19292
  36    C  2  pz     Ryd( 3p)     0.00108    -0.00019

  37    C  3  s      Cor( 1s)     1.99986     0.00000
  38    C  3  s      Val( 2s)     0.94937    -0.00388
  39    C  3  s      Ryd( 3s)     0.00154     0.00002
  40    C  3  px     Val( 2p)     1.05255    -0.00570
  41    C  3  px     Ryd( 3p)     0.00623     0.00004
  42    C  3  py     Val( 2p)     1.25215    -0.00268
  43    C  3  py     Ryd( 3p)     0.00844     0.00006
  44    C  3  pz     Val( 2p)     0.96994    -0.04753
  45    C  3  pz     Ryd( 3p)     0.00057    -0.00011

  46    C  4  s      Cor( 1s)     1.99984     0.00000
  47    C  4  s      Val( 2s)     0.97380     0.00398
  48    C  4  s      Ryd( 3s)     0.00165    -0.00004
  49    C  4  px     Val( 2p)     1.14734     0.00390
  50    C  4  px     Ryd( 3p)     0.00986    -0.00005
  51    C  4  py     Val( 2p)     1.09344    -0.00028
  52    C  4  py     Ryd( 3p)     0.00950    -0.00009
  53    C  4  pz     Val( 2p)     1.02472     0.10162
  54    C  4  pz     Ryd( 3p)     0.00133    -0.00008

  55    I  5  s      Cor( 2s)     2.00000     0.00000
  56    I  5  s      Cor( 1s)     2.00000     0.00000
  57    I  5  s      Cor( 4s)     2.00000     0.00000
  58    I  5  s      Cor( 3s)     1.99999     0.00000
  59    I  5  s      Val( 5s)     1.89260     0.00109
  60    I  5  s      Ryd( 6s)     0.00436     0.00006
  61    I  5  px     Cor( 4p)     2.00000     0.00000
  62    I  5  px     Cor( 2p)     2.00000     0.00000
  63    I  5  px     Cor( 3p)     1.99999     0.00000
  64    I  5  px     Val( 5p)     1.17870    -0.00415
  65    I  5  px     Ryd( 6p)     0.00387     0.00004
  66    I  5  py     Cor( 4p)     2.00000     0.00000
  67    I  5  py     Cor( 2p)     2.00000     0.00000
  68    I  5  py     Cor( 3p)     1.99999     0.00000
  69    I  5  py     Val( 5p)     1.67900    -0.00199
  70    I  5  py     Ryd( 6p)     0.00242    -0.00002
  71    I  5  pz     Cor( 4p)     2.00000     0.00000
  72    I  5  pz     Cor( 2p)     2.00000     0.00000
  73    I  5  pz     Cor( 3p)     2.00000     0.00000
  74    I  5  pz     Val( 5p)     1.82445     0.12211
  75    I  5  pz     Ryd( 6p)     0.00080     0.00010
  76    I  5  dxy    Cor( 3d)     1.99999     0.00000
  77    I  5  dxy    Cor( 4d)     1.99972     0.00000
  78    I  5  dxy    Ryd( 5d)     0.00216    -0.00003
  79    I  5  dxz    Cor( 3d)     2.00000     0.00000
  80    I  5  dxz    Cor( 4d)     1.99995     0.00000
  81    I  5  dxz    Ryd( 5d)     0.00124    -0.00013
  82    I  5  dyz    Cor( 3d)     2.00000     0.00000
  83    I  5  dyz    Cor( 4d)     1.99998     0.00000
  84    I  5  dyz    Ryd( 5d)     0.00049    -0.00007
  85    I  5  dx2y2  Cor( 3d)     2.00000     0.00000
  86    I  5  dx2y2  Cor( 4d)     1.99980     0.00000
  87    I  5  dx2y2  Ryd( 5d)     0.00096    -0.00002
  88    I  5  dz2    Cor( 3d)     2.00000     0.00000
  89    I  5  dz2    Cor( 4d)     1.99989     0.00000
  90    I  5  dz2    Ryd( 5d)     0.00085     0.00004

  91    C  6  s      Cor( 1s)     1.99987     0.00000
  92    C  6  s      Val( 2s)     0.81716     0.00308
  93    C  6  s      Ryd( 3s)     0.00227     0.00001
  94    C  6  px     Val( 2p)     0.84947    -0.00271
  95    C  6  px     Ryd( 3p)     0.01098     0.00002
  96    C  6  py     Val( 2p)     1.02963    -0.00119
  97    C  6  py     Ryd( 3p)     0.00378     0.00002
  98    C  6  pz     Val( 2p)     0.89468     0.15441
  99    C  6  pz     Ryd( 3p)     0.00106    -0.00035

 100    C  7  s      Cor( 1s)     1.99990     0.00000
 101    C  7  s      Val( 2s)     0.86646     0.00244
 102    C  7  s      Ryd( 3s)     0.00111     0.00001
 103    C  7  px     Val( 2p)     1.10199    -0.00015
 104    C  7  px     Ryd( 3p)     0.00488     0.00001
 105    C  7  py     Val( 2p)     1.07897     0.00107
 106    C  7  py     Ryd( 3p)     0.00417     0.00003
 107    C  7  pz     Val( 2p)     0.96946     0.08470
 108    C  7  pz     Ryd( 3p)     0.00108     0.00004

 109    C  8  s      Cor( 1s)     1.99983     0.00000
 110    C  8  s      Val( 2s)     0.94514    -0.00250
 111    C  8  s      Ryd( 3s)     0.00143     0.00001
 112    C  8  px     Val( 2p)     1.19276    -0.00162
 113    C  8  px     Ryd( 3p)     0.00763     0.00006
 114    C  8  py     Val( 2p)     1.10400    -0.00502
 115    C  8  py     Ryd( 3p)     0.00548     0.00002
 116    C  8  pz     Val( 2p)     0.95665    -0.01742
 117    C  8  pz     Ryd( 3p)     0.00039    -0.00003

 118    C  9  s      Cor( 1s)     1.99976     0.00000
 119    C  9  s      Val( 2s)     1.05019    -0.00099
 120    C  9  s      Ryd( 3s)     0.00055     0.00000
 121    C  9  px     Val( 2p)     1.08153    -0.00073
 122    C  9  px     Ryd( 3p)     0.00217     0.00001
 123    C  9  py     Val( 2p)     1.10853    -0.00298
 124    C  9  py     Ryd( 3p)     0.00168     0.00001
 125    C  9  pz     Val( 2p)     1.30570     0.00321
 126    C  9  pz     Ryd( 3p)     0.00222     0.00005

 127    C 10  s      Cor( 1s)     1.99977     0.00000
 128    C 10  s      Val( 2s)     1.06155    -0.00156
 129    C 10  s      Ryd( 3s)     0.00119     0.00001
 130    C 10  px     Val( 2p)     1.06151    -0.00106
 131    C 10  px     Ryd( 3p)     0.00242    -0.00002
 132    C 10  py     Val( 2p)     0.73942    -0.00757
 133    C 10  py     Ryd( 3p)     0.00327     0.00000
 134    C 10  pz     Val( 2p)     1.28990     0.00505
 135    C 10  pz     Ryd( 3p)     0.00156    -0.00005

 136    O 11  s      Cor( 1s)     1.99985     0.00000
 137    O 11  s      Val( 2s)     1.60385     0.00632
 138    O 11  s      Ryd( 3s)     0.00067     0.00000
 139    O 11  px     Val( 2p)     1.67522     0.00076
 140    O 11  px     Ryd( 3p)     0.00169    -0.00001
 141    O 11  py     Val( 2p)     1.41540     0.00629
 142    O 11  py     Ryd( 3p)     0.00053     0.00000
 143    O 11  pz     Val( 2p)     1.61599     0.24851
 144    O 11  pz     Ryd( 3p)     0.00089     0.00030
 145    O 11  dxy    Ryd( 3d)     0.00486    -0.00001
 146    O 11  dxz    Ryd( 3d)     0.00300    -0.00015
 147    O 11  dyz    Ryd( 3d)     0.00038     0.00003
 148    O 11  dx2y2  Ryd( 3d)     0.00298     0.00000
 149    O 11  dz2    Ryd( 3d)     0.00289    -0.00009

 150    H 12  s      Val( 1s)     0.69253     0.00157
 151    H 12  s      Ryd( 2s)     0.00144    -0.00002

 152    H 13  s      Val( 1s)     0.69877     0.00056
 153    H 13  s      Ryd( 2s)     0.00107    -0.00001

 154    H 14  s      Val( 1s)     0.68930     0.00755
 155    H 14  s      Ryd( 2s)     0.00076     0.00007

 156    H 15  s      Val( 1s)     0.68916     0.00902
 157    H 15  s      Ryd( 2s)     0.00083     0.00010

 158    H 16  s      Val( 1s)     0.71499     0.00925
 159    H 16  s      Ryd( 2s)     0.00075     0.00003

 160    H 17  s      Val( 1s)     0.71581     0.01191
 161    H 17  s      Ryd( 2s)     0.00084     0.00006


 Summary of Natural Population Analysis:

                                     Natural Population                 Natural
             Natural    ---------------------------------------------    Spin
  Atom No    Charge        Core      Valence    Rydberg      Total      Density
 -------------------------------------------------------------------------------
   Br  1    0.24868     27.99875     6.73360    0.01897    34.75132     0.11067
    C  2   -0.05773      1.99989     4.04051    0.01733     6.05773     0.21278
    C  3   -0.24065      1.99986     4.22401    0.01678     6.24065    -0.05978
    C  4   -0.26149      1.99984     4.23931    0.02234     6.26149     0.10896
    I  5    0.40882     45.99930     6.57475    0.01714    52.59118     0.11703
    C  6    0.39110      1.99987     3.59095    0.01809     5.60890     0.15330
    C  7   -0.02802      1.99990     4.01689    0.01123     6.02802     0.08815
    C  8   -0.21331      1.99983     4.19854    0.01493     6.21331    -0.02650
    C  9   -0.55234      1.99976     4.54596    0.00662     6.55234    -0.00144
    C 10   -0.16060      1.99977     4.15238    0.00844     6.16060    -0.00520
    O 11   -0.32821      1.99985     6.31046    0.01790     8.32821     0.26193
    H 12    0.30603      0.00000     0.69253    0.00144     0.69397     0.00156
    H 13    0.30016      0.00000     0.69877    0.00107     0.69984     0.00056
    H 14    0.30994      0.00000     0.68930    0.00076     0.69006     0.00762
    H 15    0.31001      0.00000     0.68916    0.00083     0.68999     0.00912
    H 16    0.28426      0.00000     0.71499    0.00075     0.71574     0.00928
    H 17    0.28335      0.00000     0.71581    0.00084     0.71665     0.01196
 ===============================================================================
 * Total *  1.00000     91.99662    56.82792    0.17546   149.00000     1.00000

                                 Natural Population
 ---------------------------------------------------------
   Core                      91.99662 ( 99.9963% of   92)
   Valence                   56.82792 ( 99.6981% of   57)
   Natural Minimal Basis    148.82454 ( 99.8822% of  149)
   Natural Rydberg Basis      0.17546 (  0.1178% of  149)
 ---------------------------------------------------------

    Atom No         Natural Electron Configuration
 ----------------------------------------------------------------------------
     Br  1      [core]4s( 1.88)4p( 4.85)4d( 0.01)5p( 0.01)
      C  2      [core]2s( 0.95)2p( 3.09)3p( 0.02)
      C  3      [core]2s( 0.95)2p( 3.27)3p( 0.02)
      C  4      [core]2s( 0.97)2p( 3.27)3p( 0.02)
      I  5      [core]5s( 1.89)5p( 4.68)5d( 0.01)6p( 0.01)
      C  6      [core]2s( 0.82)2p( 2.77)3p( 0.02)
      C  7      [core]2s( 0.87)2p( 3.15)3p( 0.01)
      C  8      [core]2s( 0.95)2p( 3.25)3p( 0.01)
      C  9      [core]2s( 1.05)2p( 3.50)3p( 0.01)
      C 10      [core]2s( 1.06)2p( 3.09)3p( 0.01)
      O 11      [core]2s( 1.60)2p( 4.71)3d( 0.01)
      H 12            1s( 0.69)
      H 13            1s( 0.70)
      H 14            1s( 0.69)
      H 15            1s( 0.69)
      H 16            1s( 0.71)
      H 17            1s( 0.72)


 ***************************************************
 *******         Alpha spin orbitals         *******
 ***************************************************


 NATURAL POPULATIONS:  Natural atomic orbital occupancies

  NAO Atom No lang   Type(AO)    Occupancy      Energy
 -------------------------------------------------------
   1   Br  1  s      Cor( 3s)     1.00000     -19.93839
   2   Br  1  s      Cor( 1s)     1.00000    -451.97755
   3   Br  1  s      Cor( 2s)     1.00000     -80.21206
   4   Br  1  s      Val( 4s)     0.94080      -0.93712
   5   Br  1  s      Ryd( 5s)     0.00154       0.70484
   6   Br  1  px     Cor( 3p)     1.00000      -7.39374
   7   Br  1  px     Cor( 2p)     0.99999     -55.78593
   8   Br  1  px     Val( 4p)     0.62355      -0.41110
   9   Br  1  px     Ryd( 5p)     0.00160       0.59380
  10   Br  1  py     Cor( 3p)     1.00000      -7.38455
  11   Br  1  py     Cor( 2p)     1.00000     -55.78364
  12   Br  1  py     Val( 4p)     0.88607      -0.48911
  13   Br  1  py     Ryd( 5p)     0.00096       0.61157
  14   Br  1  pz     Cor( 3p)     1.00000      -7.38402
  15   Br  1  pz     Cor( 2p)     1.00000     -55.78368
  16   Br  1  pz     Val( 4p)     0.97183      -0.52088
  17   Br  1  pz     Ryd( 5p)     0.00039       0.57684
  18   Br  1  dxy    Cor( 3d)     0.99975      -2.94092
  19   Br  1  dxy    Ryd( 4d)     0.00188       0.80760
  20   Br  1  dxz    Cor( 3d)     0.99995      -2.94024
  21   Br  1  dxz    Ryd( 4d)     0.00082       0.53936
  22   Br  1  dyz    Cor( 3d)     0.99998      -2.93303
  23   Br  1  dyz    Ryd( 4d)     0.00024       0.50092
  24   Br  1  dx2y2  Cor( 3d)     0.99981      -2.94084
  25   Br  1  dx2y2  Ryd( 4d)     0.00109       0.77875
  26   Br  1  dz2    Cor( 3d)     0.99990      -2.93530
  27   Br  1  dz2    Ryd( 4d)     0.00084       0.59541

  28    C  2  s      Cor( 1s)     0.99994     -10.49200
  29    C  2  s      Val( 2s)     0.48050      -0.34562
  30    C  2  s      Ryd( 3s)     0.00024       0.54767
  31    C  2  px     Val( 2p)     0.52902      -0.30688
  32    C  2  px     Ryd( 3p)     0.00370       1.11981
  33    C  2  py     Val( 2p)     0.54568      -0.26131
  34    C  2  py     Ryd( 3p)     0.00410       0.98723
  35    C  2  pz     Val( 2p)     0.57164      -0.36542
  36    C  2  pz     Ryd( 3p)     0.00044       0.75892

  37    C  3  s      Cor( 1s)     0.99993     -10.43298
  38    C  3  s      Val( 2s)     0.47275      -0.26166
  39    C  3  s      Ryd( 3s)     0.00078       0.54967
  40    C  3  px     Val( 2p)     0.52343      -0.20971
  41    C  3  px     Ryd( 3p)     0.00313       0.81723
  42    C  3  py     Val( 2p)     0.62473      -0.27319
  43    C  3  py     Ryd( 3p)     0.00425       1.15712
  44    C  3  pz     Val( 2p)     0.46121      -0.29272
  45    C  3  pz     Ryd( 3p)     0.00023       0.75572

  46    C  4  s      Cor( 1s)     0.99992     -10.47939
  47    C  4  s      Val( 2s)     0.48889      -0.34225
  48    C  4  s      Ryd( 3s)     0.00080       0.53615
  49    C  4  px     Val( 2p)     0.57562      -0.32244
  50    C  4  px     Ryd( 3p)     0.00490       1.04112
  51    C  4  py     Val( 2p)     0.54658      -0.27735
  52    C  4  py     Ryd( 3p)     0.00470       0.91715
  53    C  4  pz     Val( 2p)     0.56317      -0.35912
  54    C  4  pz     Ryd( 3p)     0.00063       0.75885

  55    I  5  s      Cor( 2s)     1.00000    -342.46643
  56    I  5  s      Cor( 1s)     1.00000    -825.21023
  57    I  5  s      Cor( 4s)     1.00000     -77.00725
  58    I  5  s      Cor( 3s)     1.00000    -133.56535
  59    I  5  s      Val( 5s)     0.94684      -0.82737
  60    I  5  s      Ryd( 6s)     0.00221       0.36041
  61    I  5  px     Cor( 4p)     1.00000      -8.31246
  62    I  5  px     Cor( 2p)     1.00000    -102.04330
  63    I  5  px     Cor( 3p)     1.00000     -90.66198
  64    I  5  px     Val( 5p)     0.58727      -0.37412
  65    I  5  px     Ryd( 6p)     0.00196       0.42004
  66    I  5  py     Cor( 4p)     1.00000      -8.30478
  67    I  5  py     Cor( 2p)     1.00000    -102.04091
  68    I  5  py     Cor( 3p)     1.00000     -90.66057
  69    I  5  py     Val( 5p)     0.83851      -0.44460
  70    I  5  py     Ryd( 6p)     0.00120       0.41383
  71    I  5  pz     Cor( 4p)     1.00000      -8.30290
  72    I  5  pz     Cor( 2p)     1.00000    -102.04041
  73    I  5  pz     Cor( 3p)     1.00000     -90.66042
  74    I  5  pz     Val( 5p)     0.97328      -0.48619
  75    I  5  pz     Ryd( 6p)     0.00045       0.35991
  76    I  5  dxy    Cor( 3d)     0.99999     -16.81326
  77    I  5  dxy    Cor( 4d)     0.99986      -8.69496
  78    I  5  dxy    Ryd( 5d)     0.00107       0.88168
  79    I  5  dxz    Cor( 3d)     1.00000     -16.81257
  80    I  5  dxz    Cor( 4d)     0.99998      -8.69327
  81    I  5  dxz    Ryd( 5d)     0.00055       0.55118
  82    I  5  dyz    Cor( 3d)     1.00000     -16.80968
  83    I  5  dyz    Cor( 4d)     0.99999      -8.68759
  84    I  5  dyz    Ryd( 5d)     0.00021       0.51436
  85    I  5  dx2y2  Cor( 3d)     1.00000     -16.81325
  86    I  5  dx2y2  Cor( 4d)     0.99990      -8.69490
  87    I  5  dx2y2  Ryd( 5d)     0.00047       0.76799
  88    I  5  dz2    Cor( 3d)     1.00000     -16.81040
  89    I  5  dz2    Cor( 4d)     0.99995      -8.68909
  90    I  5  dz2    Ryd( 5d)     0.00044       0.63400

  91    C  6  s      Cor( 1s)     0.99993     -10.52186
  92    C  6  s      Val( 2s)     0.41012      -0.26147
  93    C  6  s      Ryd( 3s)     0.00114       0.55839
  94    C  6  px     Val( 2p)     0.42338      -0.20684
  95    C  6  px     Ryd( 3p)     0.00550       0.97732
  96    C  6  py     Val( 2p)     0.51422      -0.23783
  97    C  6  py     Ryd( 3p)     0.00190       1.13936
  98    C  6  pz     Val( 2p)     0.52454      -0.36076
  99    C  6  pz     Ryd( 3p)     0.00036       0.74979

 100    C  7  s      Cor( 1s)     0.99995     -10.45127
 101    C  7  s      Val( 2s)     0.43445      -0.24298
 102    C  7  s      Ryd( 3s)     0.00056       0.54966
 103    C  7  px     Val( 2p)     0.55092      -0.23097
 104    C  7  px     Ryd( 3p)     0.00244       1.10646
 105    C  7  py     Val( 2p)     0.54002      -0.24420
 106    C  7  py     Ryd( 3p)     0.00210       1.31058
 107    C  7  pz     Val( 2p)     0.52708      -0.32479
 108    C  7  pz     Ryd( 3p)     0.00056       0.81040

 109    C  8  s      Cor( 1s)     0.99992     -10.43499
 110    C  8  s      Val( 2s)     0.47132      -0.25238
 111    C  8  s      Ryd( 3s)     0.00072       0.54840
 112    C  8  px     Val( 2p)     0.59557      -0.24336
 113    C  8  px     Ryd( 3p)     0.00384       1.07267
 114    C  8  py     Val( 2p)     0.54949      -0.22557
 115    C  8  py     Ryd( 3p)     0.00275       0.93411
 116    C  8  pz     Val( 2p)     0.46961      -0.29612
 117    C  8  pz     Ryd( 3p)     0.00018       0.75829

 118    C  9  s      Cor( 1s)     0.99988     -10.41640
 119    C  9  s      Val( 2s)     0.52460      -0.34972
 120    C  9  s      Ryd( 3s)     0.00028       1.05088
 121    C  9  px     Val( 2p)     0.54040      -0.26815
 122    C  9  px     Ryd( 3p)     0.00109       0.80798
 123    C  9  py     Val( 2p)     0.55278      -0.25753
 124    C  9  py     Ryd( 3p)     0.00084       0.76443
 125    C  9  pz     Val( 2p)     0.65446      -0.30452
 126    C  9  pz     Ryd( 3p)     0.00113       0.95397

 127    C 10  s      Cor( 1s)     0.99989     -10.46444
 128    C 10  s      Val( 2s)     0.53000      -0.39282
 129    C 10  s      Ryd( 3s)     0.00060       0.94409
 130    C 10  px     Val( 2p)     0.53023      -0.26228
 131    C 10  px     Ryd( 3p)     0.00120       0.76558
 132    C 10  py     Val( 2p)     0.36592      -0.21752
 133    C 10  py     Ryd( 3p)     0.00163       0.77559
 134    C 10  pz     Val( 2p)     0.64747      -0.31103
 135    C 10  pz     Ryd( 3p)     0.00076       0.90526

 136    O 11  s      Cor( 1s)     0.99993     -19.43018
 137    O 11  s      Val( 2s)     0.80508      -0.99918
 138    O 11  s      Ryd( 3s)     0.00034       1.64689
 139    O 11  px     Val( 2p)     0.83799      -0.59421
 140    O 11  px     Ryd( 3p)     0.00084       1.65704
 141    O 11  py     Val( 2p)     0.71084      -0.54002
 142    O 11  py     Ryd( 3p)     0.00026       1.93781
 143    O 11  pz     Val( 2p)     0.93225      -0.61762
 144    O 11  pz     Ryd( 3p)     0.00059       1.47209
 145    O 11  dxy    Ryd( 3d)     0.00243       2.04803
 146    O 11  dxz    Ryd( 3d)     0.00142       1.65531
 147    O 11  dyz    Ryd( 3d)     0.00020       1.75153
 148    O 11  dx2y2  Ryd( 3d)     0.00149       2.01500
 149    O 11  dz2    Ryd( 3d)     0.00140       1.88317

 150    H 12  s      Val( 1s)     0.34705       0.00847
 151    H 12  s      Ryd( 2s)     0.00071       0.46364

 152    H 13  s      Val( 1s)     0.34967       0.00374
 153    H 13  s      Ryd( 2s)     0.00053       0.45717

 154    H 14  s      Val( 1s)     0.34842      -0.01006
 155    H 14  s      Ryd( 2s)     0.00042       0.45513

 156    H 15  s      Val( 1s)     0.34909      -0.01174
 157    H 15  s      Ryd( 2s)     0.00047       0.45650

 158    H 16  s      Val( 1s)     0.36212      -0.02402
 159    H 16  s      Ryd( 2s)     0.00039       0.43712

 160    H 17  s      Val( 1s)     0.36386      -0.02800
 161    H 17  s      Ryd( 2s)     0.00045       0.43877


 Summary of Natural Population Analysis:

                                     Natural Population
             Natural    ---------------------------------------------
  Atom No    Charge        Core      Valence    Rydberg      Total
 --------------------------------------------------------------------
   Br  1    0.06901     13.99938     3.42225    0.00936    17.43099
    C  2   -0.13526      0.99994     2.12683    0.00848     3.13526
    C  3   -0.09044      0.99993     2.08211    0.00839     3.09044
    C  4   -0.18523      0.99992     2.17426    0.01104     3.18523
    I  5    0.14589     22.99965     3.34590    0.00856    26.35411
    C  6    0.11890      0.99993     1.87227    0.00890     2.88110
    C  7   -0.05808      0.99995     2.05247    0.00566     3.05808
    C  8   -0.09341      0.99992     2.08599    0.00750     3.09341
    C  9   -0.27545      0.99988     2.27223    0.00334     3.27545
    C 10   -0.07770      0.99989     2.07362    0.00419     3.07770
    O 11   -0.29507      0.99993     3.28617    0.00898     4.29507
    H 12    0.15223      0.00000     0.34705    0.00071     0.34777
    H 13    0.14980      0.00000     0.34967    0.00053     0.35020
    H 14    0.15116      0.00000     0.34842    0.00042     0.34884
    H 15    0.15045      0.00000     0.34909    0.00047     0.34955
    H 16    0.13749      0.00000     0.36212    0.00039     0.36251
    H 17    0.13569      0.00000     0.36386    0.00045     0.36431
 ====================================================================
 * Total *  0.00000     45.99832    28.91433    0.08735    75.00000

                                 Natural Population
 ---------------------------------------------------------
   Core                      45.99832 ( 99.9963% of   46)
   Valence                   28.91433 ( 99.7046% of   29)
   Natural Minimal Basis     74.91265 ( 99.8835% of   75)
   Natural Rydberg Basis      0.08735 (  0.1165% of   75)
 ---------------------------------------------------------

    Atom No         Natural Electron Configuration
 ----------------------------------------------------------------------------
     Br  1      [core]4s( 0.94)4p( 2.48)
      C  2      [core]2s( 0.48)2p( 1.65)3p( 0.01)
      C  3      [core]2s( 0.47)2p( 1.61)3p( 0.01)
      C  4      [core]2s( 0.49)2p( 1.69)3p( 0.01)
      I  5      [core]5s( 0.95)5p( 2.40)
      C  6      [core]2s( 0.41)2p( 1.46)3p( 0.01)
      C  7      [core]2s( 0.43)2p( 1.62)3p( 0.01)
      C  8      [core]2s( 0.47)2p( 1.61)3p( 0.01)
      C  9      [core]2s( 0.52)2p( 1.75)
      C 10      [core]2s( 0.53)2p( 1.54)
      O 11      [core]2s( 0.81)2p( 2.48)3d( 0.01)
      H 12            1s( 0.35)
      H 13            1s( 0.35)
      H 14            1s( 0.35)
      H 15            1s( 0.35)
      H 16            1s( 0.36)
      H 17            1s( 0.36)


 NATURAL BOND ORBITAL ANALYSIS, alpha spin orbitals:

                            Occupancies       Lewis Structure    Low   High
         Max    Occ     -------------------  -----------------   occ   occ
  Cycle  Ctr   Thresh    Lewis   non-Lewis     CR  BD  nC  LP    (L)   (NL)
 ============================================================================
    1     2     0.95    73.38328   1.61672     46  19   0  10     3      3
    2     2     0.94    73.38328   1.61672     46  19   0  10     3      3
    3     2     0.93    73.32565   1.67435     46  18   0  11     3      3
    4     2     0.85    73.61732   1.38268     46  19   0  10     2      3
    5     2     0.84    73.89496   1.10504     46  20   0   9     1      3
    6     2     0.83    74.20299   0.79701     46  21   0   8     0      3
 ----------------------------------------------------------------------------

 Structure accepted: No low occupancy Lewis orbitals

 -------------------------------------------------------
   Core                     45.99832 ( 99.996% of  46)
   Valence Lewis            28.20467 ( 97.257% of  29)
  ==================      =============================
   Total Lewis              74.20299 ( 98.937% of  75)
  -----------------------------------------------------
   Valence non-Lewis         0.74716 (  0.996% of  75)
   Rydberg non-Lewis         0.04985 (  0.066% of  75)
  ==================      =============================
   Total non-Lewis           0.79701 (  1.063% of  75)
 -------------------------------------------------------


     (Occupancy)   Bond orbital / Coefficients / Hybrids
 ------------------ Lewis ------------------------------------------------------
   1. (1.00000) CR ( 1)Br  1            s(100.00%)
                                         1.0000  0.0000  0.0000  0.0000  0.0000
                                         0.0000  0.0000  0.0000  0.0000  0.0000
[...]
   65. BD ( 1) C  7- C  8      76. BD*( 1)Br  1- C  2      1.61    0.91   0.048
   65. BD ( 1) C  7- C  8      78. BD*( 1) C  2- C  8      1.35    1.37   0.054
   65. BD ( 1) C  7- C  8      84. BD*( 1) C  6- C  7      1.73    1.34   0.061
   65. BD ( 1) C  7- C  8      85. BD*( 1) C  6- O 11      1.18    1.15   0.047
   65. BD ( 1) C  7- C  8      89. BD*( 1) C  7- C  9      1.74    1.23   0.058
   65. BD ( 1) C  7- C  8      90. BD*( 1) C  8- H 13      1.08    1.33   0.048
   65. BD ( 1) C  7- C  8     106. RY ( 1) C  2            0.96    1.82   0.053
   65. BD ( 1) C  7- C  8     107. RY ( 2) C  2            0.47    2.08   0.040
   65. BD ( 1) C  7- C  8     128. RY ( 2) C  6            0.94    2.03   0.055
   65. BD ( 1) C  7- C  8     139. RY ( 1) C  9            0.44    1.73   0.035
   66. BD ( 2) C  7- C  8      75. LV ( 1) C  2           47.61    0.22   0.129
   66. BD ( 2) C  7- C  8      86. BD*( 2) C  6- O 11     18.42    0.34   0.099
   66. BD ( 2) C  7- C  8      92. BD*( 1) C  9- H 14      0.88    0.91   0.036
   66. BD ( 2) C  7- C  8      93. BD*( 1) C  9- H 15      0.97    0.90   0.037
   66. BD ( 2) C  7- C  8     108. RY ( 3) C  2            0.28    1.29   0.024
   66. BD ( 2) C  7- C  8     130. RY ( 4) C  6            0.28    1.27   0.024
   67. BD ( 1) C  7- C  9      78. BD*( 1) C  2- C  8      0.71    1.29   0.038
   67. BD ( 1) C  7- C  9      83. BD*( 1) C  4- C  6      1.60    1.29   0.057
   67. BD ( 1) C  7- C  9      84. BD*( 1) C  6- C  7      0.76    1.27   0.039
   67. BD ( 1) C  7- C  9      85. BD*( 1) C  6- O 11      1.11    1.08   0.044
   67. BD ( 1) C  7- C  9      87. BD*( 1) C  7- C  8      1.75    1.34   0.061
   67. BD ( 1) C  7- C  9      92. BD*( 1) C  9- H 14      0.44    1.21   0.029
   67. BD ( 1) C  7- C  9      93. BD*( 1) C  9- H 15      0.42    1.21   0.028
   67. BD ( 1) C  7- C  9      94. BD*( 1) C 10- O 11      1.59    0.98   0.050
   67. BD ( 1) C  7- C  9     127. RY ( 1) C  6            0.51    1.80   0.038
   67. BD ( 1) C  7- C  9     135. RY ( 1) C  8            0.98    1.94   0.055
   68. BD ( 1) C  8- H 13      76. BD*( 1)Br  1- C  2      0.44    0.77   0.023
   68. BD ( 1) C  8- H 13      77. BD*( 1) C  2- C  3      1.37    1.23   0.052
   68. BD ( 1) C  8- H 13      78. BD*( 1) C  2- C  8      0.54    1.22   0.032
   68. BD ( 1) C  8- H 13      84. BD*( 1) C  6- C  7      1.80    1.20   0.059
   68. BD ( 1) C  8- H 13      87. BD*( 1) C  7- C  8      0.80    1.27   0.040
   68. BD ( 1) C  8- H 13      89. BD*( 1) C  7- C  9      0.27    1.08   0.022
   68. BD ( 1) C  8- H 13     107. RY ( 2) C  2            0.81    1.94   0.050
   68. BD ( 1) C  8- H 13     131. RY ( 1) C  7            0.85    2.04   0.053
   69. BD ( 1) C  9- C 10      84. BD*( 1) C  6- C  7      0.35    1.26   0.026
   69. BD ( 1) C  9- C 10      87. BD*( 1) C  7- C  8      1.91    1.33   0.064
   69. BD ( 1) C  9- C 10      89. BD*( 1) C  7- C  9      0.33    1.14   0.024
   69. BD ( 1) C  9- C 10      92. BD*( 1) C  9- H 14      0.32    1.21   0.025
   69. BD ( 1) C  9- C 10      93. BD*( 1) C  9- H 15      0.31    1.20   0.024
   70. BD ( 1) C  9- H 14      84. BD*( 1) C  6- C  7      0.35    1.18   0.026
   70. BD ( 1) C  9- H 14      88. BD*( 2) C  7- C  8      2.96    0.65   0.055
   70. BD ( 1) C  9- H 14      89. BD*( 1) C  7- C  9      0.29    1.06   0.022
   70. BD ( 1) C  9- H 14      94. BD*( 1) C 10- O 11      0.67    0.89   0.031
   70. BD ( 1) C  9- H 14      96. BD*( 1) C 10- H 17      0.26    1.12   0.022
   70. BD ( 1) C  9- H 14     133. RY ( 3) C  7            0.34    1.55   0.029
   70. BD ( 1) C  9- H 14     145. RY ( 3) C 10            0.29    1.63   0.027
   71. BD ( 1) C  9- H 15      84. BD*( 1) C  6- C  7      0.27    1.18   0.023
   71. BD ( 1) C  9- H 15      88. BD*( 2) C  7- C  8      3.45    0.64   0.060
   71. BD ( 1) C  9- H 15      89. BD*( 1) C  7- C  9      0.30    1.06   0.022
   71. BD ( 1) C  9- H 15      94. BD*( 1) C 10- O 11      0.38    0.89   0.023
   71. BD ( 1) C  9- H 15      95. BD*( 1) C 10- H 16      0.27    1.12   0.022
   71. BD ( 1) C  9- H 15      96. BD*( 1) C 10- H 17      0.35    1.12   0.025
   71. BD ( 1) C  9- H 15     133. RY ( 3) C  7            0.37    1.54   0.030
   72. BD ( 1) C 10- O 11      83. BD*( 1) C  4- C  6      2.28    1.48   0.073
   72. BD ( 1) C 10- O 11      84. BD*( 1) C  6- C  7      0.34    1.46   0.028
   72. BD ( 1) C 10- O 11      89. BD*( 1) C  7- C  9      0.32    1.34   0.026
   72. BD ( 1) C 10- O 11     127. RY ( 1) C  6            0.70    1.99   0.047
   73. BD ( 1) C 10- H 16      85. BD*( 1) C  6- O 11      0.49    1.01   0.028
   73. BD ( 1) C 10- H 16      86. BD*( 2) C  6- O 11      1.57    0.58   0.038
   73. BD ( 1) C 10- H 16      92. BD*( 1) C  9- H 14      0.29    1.15   0.023
   73. BD ( 1) C 10- H 16      93. BD*( 1) C  9- H 15      0.31    1.14   0.024
   73. BD ( 1) C 10- H 16     140. RY ( 2) C  9            0.37    1.70   0.032
   73. BD ( 1) C 10- H 16     148. RY ( 2) O 11            0.27    2.31   0.031
   74. BD ( 1) C 10- H 17      85. BD*( 1) C  6- O 11      0.42    1.01   0.026
   74. BD ( 1) C 10- H 17      86. BD*( 2) C  6- O 11      1.88    0.57   0.042
   74. BD ( 1) C 10- H 17      92. BD*( 1) C  9- H 14      0.30    1.14   0.023
   74. BD ( 1) C 10- H 17      93. BD*( 1) C  9- H 15      0.43    1.14   0.028
   74. BD ( 1) C 10- H 17     148. RY ( 2) O 11            0.26    2.31   0.031


 NATURAL BOND ORBITALS (Summary):

                                                     Principal Delocalizations
           NBO                 Occupancy    Energy   (geminal,vicinal,remote)
 ===============================================================================
 Molecular unit  1  (C8H6IOBr)
 ------ Lewis --------------------------------------
    1. CR ( 1)Br  1             1.00000   -19.93791
    2. CR ( 2)Br  1             1.00000  -451.97719
    3. CR ( 3)Br  1             1.00000   -80.21191
    4. CR ( 4)Br  1             1.00000    -7.39362
    5. CR ( 5)Br  1             0.99999   -55.78581
    6. CR ( 6)Br  1             1.00000    -7.38438
    7. CR ( 7)Br  1             1.00000   -55.78349
    8. CR ( 8)Br  1             1.00000    -7.38277
    9. CR ( 9)Br  1             1.00000   -55.78281
   10. CR (10)Br  1             0.99975    -2.94087  99(g)
   11. CR (11)Br  1             0.99994    -2.93970
   12. CR (12)Br  1             0.99998    -2.93247
   13. CR (13)Br  1             0.99981    -2.94079
   14. CR (14)Br  1             0.99990    -2.93459
   15. CR ( 1) C  2             0.99994   -10.48878
   16. CR ( 1) C  3             0.99993   -10.43387
   17. CR ( 1) C  4             0.99992   -10.47776
   18. CR ( 1) I  5             1.00000  -342.46627
   19. CR ( 2) I  5             1.00000  -825.21006
   20. CR ( 3) I  5             1.00000   -77.00699
   21. CR ( 4) I  5             1.00000  -133.56516
   22. CR ( 5) I  5             1.00000    -8.31238
   23. CR ( 6) I  5             1.00000  -102.04324
   24. CR ( 7) I  5             1.00000   -90.66192
   25. CR ( 8) I  5             1.00000    -8.30469
   26. CR ( 9) I  5             1.00000  -102.04084
   27. CR (10) I  5             1.00000   -90.66050
   28. CR (11) I  5             1.00000    -8.30203
   29. CR (12) I  5             1.00000  -102.04003
   30. CR (13) I  5             1.00000   -90.65987
   31. CR (14) I  5             0.99999   -16.81324
   32. CR (15) I  5             0.99986    -8.69494  121(g)
   33. CR (16) I  5             1.00000   -16.81230
   34. CR (17) I  5             0.99997    -8.69287
   35. CR (18) I  5             1.00000   -16.80942
   36. CR (19) I  5             0.99999    -8.68719
   37. CR (20) I  5             1.00000   -16.81323
   38. CR (21) I  5             0.99990    -8.69487
   39. CR (22) I  5             1.00000   -16.81006
   40. CR (23) I  5             0.99995    -8.68859
   41. CR ( 1) C  6             0.99993   -10.51958
   42. CR ( 1) C  7             0.99995   -10.45010
   43. CR ( 1) C  8             0.99992   -10.43542
   44. CR ( 1) C  9             0.99988   -10.41644  142(g)
   45. CR ( 1) C 10             0.99989   -10.46453
   46. CR ( 1) O 11             0.99993   -19.42381  149(g)
   47. LP ( 1)Br  1             0.99854    -0.92007  107(v)
   48. LP ( 2)Br  1             0.98967    -0.51785  77(v),78(v),106(v)
   49. LP ( 3)Br  1             0.85445    -0.48494  75(v),86(r)
   50. LP ( 1) I  5             0.99912    -0.82043
   51. LP ( 2) I  5             0.98986    -0.48365  83(v),79(v),114(v)
   52. LP ( 3) I  5             0.85187    -0.45271  80(v),75(r),86(r)
   53. LP ( 1) O 11             0.98486    -0.78242  84(v),91(v),127(v),143(v)
                                                     83(v),87(r),82(r)
   54. BD ( 1)Br  1- C  2       0.99255    -0.79531  79(v),110(v),87(v),135(v)
   55. BD ( 1) C  2- C  3       0.98891    -0.91281  78(g),82(v),79(g),81(g)
                                                     135(v),114(v),90(v),115(v)
                                                     136(v)
   56. BD ( 1) C  2- C  8       0.99014    -0.90879  89(v),77(g),132(v),87(g)
                                                     90(g),111(v),81(v),110(v)
   57. BD ( 1) C  3- C  4       0.98624    -0.90789  85(v),83(g),76(v),77(g)
                                                     81(g),106(v),127(v),107(v)
                                                     128(v)
   58. BD ( 2) C  3- C  4       0.85485    -0.51528  75(v),86(v),80(g),119(v)
                                                     130(v),108(v)
   59. BD ( 1) C  3- H 12       0.98897    -0.75182  78(v),83(v),107(v),115(v)
                                                     79(g),77(g),76(v)
   60. BD ( 1) C  4- I  5       0.98867    -0.73139  84(v),77(v),110(v),85(v)
                                                     127(v),128(v),81(v)
   61. BD ( 1) C  4- C  6       0.98951    -0.94402  84(g),79(g),131(v),111(v)
                                                     81(v),94(v),89(v),85(g)
                                                     110(v),147(v)
   62. BD ( 1) C  6- C  7       0.98517    -0.91081  83(g),87(g),82(v),114(v)
                                                     136(v),90(v),89(g),139(v)
                                                     115(v),91(v),147(v)
   63. BD ( 1) C  6- O 11       0.99606    -1.10978  87(v),83(g),79(v),91(v)
                                                     144(v),143(v)
   64. BD ( 2) C  6- O 11       0.94384    -0.63801  88(v),80(v),96(v),95(v)
                                                     86(g)
   65. BD ( 1) C  7- C  8       0.98462    -0.89907  89(g),84(g),76(v),78(g)
                                                     85(v),90(g),106(v),128(v)
                                                     107(v),139(v)
   66. BD ( 2) C  7- C  8       0.86725    -0.51241  75(v),86(v),93(v),92(v)
                                                     108(v),130(v)
   67. BD ( 1) C  7- C  9       0.98423    -0.82085  87(g),83(v),94(v),85(v)
                                                     135(v),84(g),78(v),127(v)
                                                     92(g),93(g)
   68. BD ( 1) C  8- H 13       0.98948    -0.75512  84(v),77(v),131(v),107(v)
                                                     87(g),78(g),76(v),89(v)
   69. BD ( 1) C  9- C 10       0.99458    -0.81252  87(v),84(v),89(g),92(g)
                                                     93(g)
   70. BD ( 1) C  9- H 14       0.98092    -0.73117  88(v),94(v),84(v),133(v)
                                                     89(g),145(v),96(v)
   71. BD ( 1) C  9- H 15       0.97916    -0.72953  88(v),94(v),133(v),96(v)
                                                     89(g),95(v),84(v)
   72. BD ( 1) C 10- O 11       0.99510    -1.01644  83(v),127(v),84(v),89(v)
   73. BD ( 1) C 10- H 16       0.98533    -0.75277  86(v),85(v),140(v),93(v)
                                                     92(v),148(v)
   74. BD ( 1) C 10- H 17       0.98325    -0.75158  86(v),93(v),85(v),92(v)
                                                     148(v)
 ------ non-Lewis ----------------------------------
   75. LV ( 1) C  2             0.37874    -0.29376
   76. BD*( 1)Br  1- C  2       0.01118     0.01012
   77. BD*( 1) C  2- C  3       0.01151     0.47856
   78. BD*( 1) C  2- C  8       0.01050     0.46957
   79. BD*( 1) C  3- C  4       0.01031     0.47907
   80. BD*( 2) C  3- C  4       0.11545    -0.11545
   81. BD*( 1) C  3- H 12       0.00598     0.42959
   82. BD*( 1) C  4- I  5       0.01067    -0.03446
   83. BD*( 1) C  4- C  6       0.01484     0.46535
   84. BD*( 1) C  6- C  7       0.01697     0.44572
   85. BD*( 1) C  6- O 11       0.01385     0.25543
   86. BD*( 2) C  6- O 11       0.11190    -0.17683
   87. BD*( 1) C  7- C  8       0.01155     0.51456
   88. BD*( 2) C  7- C  8       0.06218    -0.08471
   89. BD*( 1) C  7- C  9       0.00897     0.32801
   90. BD*( 1) C  8- H 13       0.00594     0.42745
   91. BD*( 1) C  9- C 10       0.00714     0.25701
   92. BD*( 1) C  9- H 14       0.00418     0.39296
   93. BD*( 1) C  9- H 15       0.00433     0.39062
   94. BD*( 1) C 10- O 11       0.00819     0.15572
   95. BD*( 1) C 10- H 16       0.00533     0.39122
   96. BD*( 1) C 10- H 17       0.00555     0.38704
   97. RY ( 1)Br  1             0.00045     0.59637
   98. RY ( 2)Br  1             0.00042     0.52020
   99. RY ( 3)Br  1             0.00032     0.97728
  100. RY ( 4)Br  1             0.00010     0.64552
  101. RY ( 5)Br  1             0.00005     0.77819
  102. RY ( 6)Br  1             0.00002     0.50243
  103. RY ( 7)Br  1             0.00001     0.61026
  104. RY ( 8)Br  1             0.00001     0.52024
  105. RY ( 9)Br  1             0.00000     0.56928
  106. RY ( 1) C  2             0.00369     0.92514
  107. RY ( 2) C  2             0.00263     1.18582
  108. RY ( 3) C  2             0.00061     0.77320
  109. RY ( 4) C  2             0.00013     0.54722
  110. RY ( 1) C  3             0.00354     1.15809
  111. RY ( 2) C  3             0.00197     0.80202
  112. RY ( 3) C  3             0.00038     0.55102
  113. RY ( 4) C  3             0.00030     0.75403
  114. RY ( 1) C  4             0.00401     0.85472
  115. RY ( 2) C  4             0.00172     1.09313
  116. RY ( 3) C  4             0.00074     0.76579
  117. RY ( 4) C  4             0.00016     0.54093
  118. RY ( 1) I  5             0.00078     0.41981
  119. RY ( 2) I  5             0.00057     0.49202
  120. RY ( 3) I  5             0.00031     0.48509
  121. RY ( 4) I  5             0.00012     1.01496
  122. RY ( 5) I  5             0.00006     0.57949
  123. RY ( 6) I  5             0.00004     0.45066
  124. RY ( 7) I  5             0.00002     0.54623
  125. RY ( 8) I  5             0.00000     0.41996
  126. RY ( 9) I  5             0.00001     0.49650
  127. RY ( 1) C  6             0.00384     0.97815
  128. RY ( 2) C  6             0.00169     1.13430
  129. RY ( 3) C  6             0.00094     0.56856
  130. RY ( 4) C  6             0.00048     0.76194
  131. RY ( 1) C  7             0.00207     1.28323
  132. RY ( 2) C  7             0.00148     1.06202
  133. RY ( 3) C  7             0.00053     0.81540
  134. RY ( 4) C  7             0.00032     0.62696
  135. RY ( 1) C  8             0.00301     1.12239
  136. RY ( 2) C  8             0.00188     0.86491
  137. RY ( 3) C  8             0.00036     0.55506
  138. RY ( 4) C  8             0.00017     0.75883
  139. RY ( 1) C  9             0.00097     0.82723
  140. RY ( 2) C  9             0.00073     0.94240
  141. RY ( 3) C  9             0.00039     0.76587
  142. RY ( 4) C  9             0.00017     1.03522
  143. RY ( 1) C 10             0.00134     0.72796
  144. RY ( 2) C 10             0.00065     0.86756
  145. RY ( 3) C 10             0.00049     0.89408
  146. RY ( 4) C 10             0.00013     0.89373
  147. RY ( 1) O 11             0.00078     1.44749
  148. RY ( 2) O 11             0.00040     1.55534
  149. RY ( 3) O 11             0.00028     1.87531
  150. RY ( 4) O 11             0.00015     2.19548
  151. RY ( 5) O 11             0.00007     1.64384
  152. RY ( 6) O 11             0.00004     1.89444
  153. RY ( 7) O 11             0.00002     1.92617
  154. RY ( 8) O 11             0.00001     1.89324
  155. RY ( 9) O 11             0.00001     1.73978
  156. RY ( 1) H 12             0.00073     0.46132
  157. RY ( 1) H 13             0.00054     0.45539
  158. RY ( 1) H 14             0.00035     0.45458
  159. RY ( 1) H 15             0.00037     0.45582
  160. RY ( 1) H 16             0.00036     0.43666
  161. RY ( 1) H 17             0.00039     0.43816
          -------------------------------
                 Total Lewis   73.11549  ( 98.8047%)
           Valence non-Lewis    0.83523  (  1.1287%)
           Rydberg non-Lewis    0.04927  (  0.0666%)
          -------------------------------
               Total unit  1   74.00000  (100.0000%)
              Charge unit  1    1.00000

 $CHOOSE
  ALPHA
   LONE 1 3 5 3 11 2 END
   BOND S 1 2 D 2 3 S 2 8 S 3 4 S 3 12 S 4 5 D 4 6 S 6 7 S 6 11 D 7 8 S 7 9
        S 8 13 S 9 10 S 9 14 S 9 15 S 10 11 S 10 16 S 10 17 END
  END
  BETA
   LONE 1 3 5 3 11 1 END
   BOND S 1 2 S 2 3 S 2 8 D 3 4 S 3 12 S 4 5 S 4 6 S 6 7 D 6 11 D 7 8 S 7 9
        S 8 13 S 9 10 S 9 14 S 9 15 S 10 11 S 10 16 S 10 17 END
  END
 $END

 NBO analysis completed in 1.35 CPU seconds (1 wall second)
 Maximum scratch memory used by NBO was 776005 words (5.92 MB)
 Maximum scratch memory used by G16NBO was 61055 words (0.47 MB)

 Opening RunExU unformatted file "/home/rpaton/arbr500/xtb/fukui/Gau-2163509.EUF"
 Read unf file /home/rpaton/arbr500/xtb/fukui/Gau-2163509.EUF:
 Label Gaussian matrix elements                                         IVers= 2 NLab= 2 Version=ES64L-G16RevC.01
 Title energy: -32.159136574353 gnorm: 0.000850729375 xtb: 6.7.0 (08769
 NAtoms=    17 NBasis=   161 NBsUse=   161 ICharg=     1 Multip=     2 NE=   149 Len12L=8 Len4L=8 IOpCl= 1 ICGU=112
 GAUSSIAN SCALARS                    NI= 1 NR= 1 NTot=       1 LenBuf=    2 NRI=1 N=    1000
 NPA CHARGES                         NI= 0 NR= 1 NTot=      17 LenBuf= 2048 NRI=1 N=      17
 Recovered energy= -9833.34654636     dipole=      0.254072778161      2.467200001288      0.012624635660
 Unable to Open any file for archive entry.
 1\1\GINC-DYNAMO\SP\UwB97XD\MIDIx\C8H6Br1I1O1(1+,2)\RPATON\28-Sep-2024\
 0\\# wb97xd midix pop(nbo6,hirshfeld)\\energy: -32.159136574353 gnorm:
  0.000850729375 xtb: 6.7.0 (08769fc)\\1,2\Br,0,3.49952,-0.89335,0.0066
 4\C,0,1.8195,0.00208,-0.00085\C,0,0.65976,-0.75455,-0.00012\C,0,-0.570
 29,-0.11604,-0.00167\I,0,-2.37275,-1.20212,-0.00201\C,0,-0.61067,1.265
 35,-0.00373\C,0,0.56934,2.01229,-0.0073\C,0,1.79733,1.39259,-0.00607\C
 ,0,0.19051,3.4642,-0.02291\C,0,-1.34975,3.39203,0.03979\O,0,-1.72691,2
 .01413,-0.00429\H,0,0.71393,-1.83172,0.00285\H,0,2.71421,1.96007,-0.00
 857\H,0,0.60931,4.00205,0.82808\H,0,0.53844,3.95082,-0.93587\H,0,-1.82
 941,3.89524,-0.80361\H,0,-1.74362,3.81459,0.96951\\Version=ES64L-G16Re
 vC.01\State=2-A\HF=-9833.3465464\S2=0.766609\S2-1=0.\S2A=0.750161\RMSD
 =5.685e-09\Dipole=0.2545696,2.4671419,0.0139061\Quadrupole=2.7497585,1
 2.3535386,-15.1032971,-1.320348,-0.0564161,0.0856088\PG=C01 [X(C8H6Br1
 I1O1)]\\@
 The archive entry for this job was punched.


 Some scientists claim that hydrogen, because it is so
 plentiful, is the basic building block of the universe. 
 I dispute that. I say that stupidity is far more
 abundant than hydrogen, and THAT is the basic building 
 block of the universe.
                   --Frank Zappa
 Job cpu time:       0 days  0 hours 10 minutes 44.0 seconds.
 Elapsed time:       0 days  0 hours  0 minutes 27.1 seconds.
 File lengths (MBytes):  RWF=     30 Int=      0 D2E=      0 Chk=      3 Scr=      1
 Normal termination of Gaussian 16 at Sat Sep 28 19:53:00 2024.
